<event>
 4    1  0.6853809E-004  0.2335322E+03  0.7818608E-02  0.1124178E+00
          2   -1    0    0  501    0  0.00000000000E+00  0.00000000000E+00  0.27043592021E+03  0.27043592022E+03  0.25500000000E-02 0.  1.
         -2   -1    0    0    0  501 -0.00000000000E+00 -0.00000000000E+00 -0.50416073624E+02  0.50416073689E+02  0.25500000000E-02 0. -1.
    5000001    1    1    2    0    0 -0.52800464354E+02  0.61858797473E+02  0.64631020987E+02  0.12930803817E+03  0.77000000000E+02 0.  0.
   -5000001    1    1    2    0    0  0.52800464354E+02 -0.61858797473E+02  0.15538882559E+03  0.19154395574E+03  0.77000000000E+02 0.  0.
<mgrwt>
<rscale>  0 0.23353216E+03</rscale>
<asrwt>0</asrwt>
<pdfrwt beam="1">  1        2 0.38633704E-01 0.23353216E+03</pdfrwt>
<pdfrwt beam="2">  1       -2 0.72022961E-02 0.23353216E+03</pdfrwt>
<totfact> 0.14489126E+04</totfact>
</mgrwt>
</event>
<event>
 4    1  0.6853809E-004  0.1967842E+03  0.7818608E-02  0.1152481E+00
         -2   -1    0    0    0  501 -0.00000000000E+00  0.00000000000E+00  0.12141309615E+04  0.12141309615E+04  0.25500000000E-02 0. -1.
          2   -1    0    0  501    0  0.00000000000E+00 -0.00000000000E+00 -0.79736046585E+01  0.79736050662E+01  0.25500000000E-02 0.  1.
    5000001    1    1    2    0    0 -0.57859822177E+02 -0.15916924745E+02  0.67936608181E+03  0.68634421439E+03  0.77000000000E+02 0.  0.
   -5000001    1    1    2    0    0  0.57859822177E+02  0.15916924745E+02  0.52679127506E+03  0.53576035221E+03  0.77000000000E+02 0.  0.
<mgrwt>
<rscale>  0 0.19678415E+03</rscale>
<asrwt>0</asrwt>
<pdfrwt beam="1">  1        2 0.11390874E-02 0.19678415E+03</pdfrwt>
<pdfrwt beam="2">  1       -2 0.17344713E+00 0.19678415E+03</pdfrwt>
<totfact> 0.25411563E+03</totfact>
</mgrwt>
</event>
<event>
 4    1  0.6853809E-004  0.3857401E+03  0.7818608E-02  0.1048832E+00
         -2   -1    0    0    0  501 -0.00000000000E+00  0.00000000000E+00  0.22954388862E+02  0.22954389003E+02  0.25500000000E-02 0. -1.
          2   -1    0    0  501    0  0.00000000000E+00 -0.00000000000E+00 -0.16205556070E+04  0.16205556070E+04  0.25500000000E-02 0.  1.
    5000001    1    1    2    0    0  0.80706321574E+02  0.14516566022E+03 -0.54022048066E+03  0.57039788479E+03  0.77000000000E+02 0.  0.
   -5000001    1    1    2    0    0 -0.80706321574E+02 -0.14516566022E+03 -0.10573807375E+04  0.10731121112E+04  0.77000000000E+02 0.  0.
<mgrwt>
<rscale>  0 0.38574014E+03</rscale>
<asrwt>0</asrwt>
<pdfrwt beam="1">  1        2 0.23150787E+00 0.38574014E+03</pdfrwt>
<pdfrwt beam="2">  1       -2 0.32791994E-02 0.38574014E+03</pdfrwt>
<totfact> 0.50440871E+03</totfact>
</mgrwt>
</event>
<event>
 4    1  0.6853809E-004  0.2584434E+03  0.7818608E-02  0.1108082E+00
         -2   -1    0    0    0  501 -0.00000000000E+00  0.00000000000E+00  0.40642915864E+02  0.40642915944E+02  0.25500000000E-02 0. -1.
          2   -1    0    0  501    0  0.00000000000E+00 -0.00000000000E+00 -0.41085266973E+03  0.41085266974E+03  0.25500000000E-02 0.  1.
    5000001    1    1    2    0    0  0.99686401951E+02 -0.17623560003E+02 -0.22499123214E+03  0.25845313529E+03  0.77000000000E+02 0.  0.
   -5000001    1    1    2    0    0 -0.99686401951E+02  0.17623560003E+02 -0.14521852173E+03  0.19304245039E+03  0.77000000000E+02 0.  0.
<mgrwt>
<rscale>  0 0.25844342E+03</rscale>
<asrwt>0</asrwt>
<pdfrwt beam="1">  1        2 0.58693236E-01 0.25844342E+03</pdfrwt>
<pdfrwt beam="2">  1       -2 0.58061311E-02 0.25844342E+03</pdfrwt>
<totfact> 0.12944600E+04</totfact>
</mgrwt>
</event>
<event>
 4    1  0.6853809E-004  0.2962178E+03  0.7818608E-02  0.1087147E+00
         -2   -1    0    0    0  501 -0.00000000000E+00  0.00000000000E+00  0.13262939567E+02  0.13262939812E+02  0.25500000000E-02 0. -1.
          2   -1    0    0  501    0  0.00000000000E+00 -0.00000000000E+00 -0.16539500093E+04  0.16539500093E+04  0.25500000000E-02 0.  1.
    5000001    1    1    2    0    0 -0.33746241656E+02 -0.11905364642E+03 -0.67200088376E+03  0.68762400142E+03  0.77000000000E+02 0.  0.
   -5000001    1    1    2    0    0  0.33746241656E+02  0.11905364642E+03 -0.96868618598E+03  0.97958894770E+03  0.77000000000E+02 0.  0.
<mgrwt>
<rscale>  0 0.29621775E+03</rscale>
<asrwt>0</asrwt>
<pdfrwt beam="1">  1        2 0.23627844E+00 0.29621775E+03</pdfrwt>
<pdfrwt beam="2">  1       -2 0.18947067E-02 0.29621775E+03</pdfrwt>
<totfact> 0.10952832E+04</totfact>
</mgrwt>
</event>
<event>
 4    1  0.6853809E-004  0.2582387E+03  0.7818608E-02  0.1108206E+00
         -2   -1    0    0    0  501 -0.00000000000E+00  0.00000000000E+00  0.37313987163E+02  0.37313987250E+02  0.25500000000E-02 0. -1.
          2   -1    0    0  501    0  0.00000000000E+00 -0.00000000000E+00 -0.44679764791E+03  0.44679764792E+03  0.25500000000E-02 0.  1.
    5000001    1    1    2    0    0 -0.66323724625E+02  0.69579294563E+02 -0.13207126695E+03  0.18058774664E+03  0.77000000000E+02 0.  0.
   -5000001    1    1    2    0    0  0.66323724625E+02 -0.69579294563E+02 -0.27741239379E+03  0.30352388853E+03  0.77000000000E+02 0.  0.
<mgrwt>
<rscale>  0 0.25823866E+03</rscale>
<asrwt>0</asrwt>
<pdfrwt beam="1">  1        2 0.63828232E-01 0.25823866E+03</pdfrwt>
<pdfrwt beam="2">  1       -2 0.53305699E-02 0.25823866E+03</pdfrwt>
<totfact> 0.13464455E+04</totfact>
</mgrwt>
</event>
<event>
 4    1  0.6853809E-004  0.4007356E+03  0.7818608E-02  0.1043525E+00
         -2   -1    0    0    0  501 -0.00000000000E+00  0.00000000000E+00  0.21114670235E+02  0.21114670389E+02  0.25500000000E-02 0. -1.
          2   -1    0    0  501    0  0.00000000000E+00 -0.00000000000E+00 -0.19013910623E+04  0.19013910623E+04  0.25500000000E-02 0.  1.
    5000001    1    1    2    0    0  0.17189334803E+03 -0.41927888849E+01 -0.61287867005E+03  0.64118185156E+03  0.77000000000E+02 0.  0.
   -5000001    1    1    2    0    0 -0.17189334803E+03  0.41927888849E+01 -0.12673977220E+04  0.12813238812E+04  0.77000000000E+02 0.  0.
<mgrwt>
<rscale>  0 0.40073555E+03</rscale>
<asrwt>0</asrwt>
<pdfrwt beam="1">  1        2 0.27162718E+00 0.40073555E+03</pdfrwt>
<pdfrwt beam="2">  1       -2 0.30163827E-02 0.40073555E+03</pdfrwt>
<totfact> 0.41435640E+03</totfact>
</mgrwt>
</event>
<event>
 4    1  0.6853809E-004  0.2165720E+03  0.7818608E-02  0.1136465E+00
         -2   -1    0    0    0  501 -0.00000000000E+00  0.00000000000E+00  0.31379504096E+02  0.31379504199E+02  0.25500000000E-02 0. -1.
          2   -1    0    0  501    0  0.00000000000E+00 -0.00000000000E+00 -0.37367895424E+03  0.37367895425E+03  0.25500000000E-02 0.  1.
    5000001    1    1    2    0    0  0.63658176652E+02 -0.11482601919E+02 -0.96041937779E+02  0.13905850357E+03  0.77000000000E+02 0.  0.
   -5000001    1    1    2    0    0 -0.63658176652E+02  0.11482601919E+02 -0.24625751236E+03  0.26599995488E+03  0.77000000000E+02 0.  0.
<mgrwt>
<rscale>  0 0.21657202E+03</rscale>
<asrwt>0</asrwt>
<pdfrwt beam="1">  1        2 0.53382705E-01 0.21657202E+03</pdfrwt>
<pdfrwt beam="2">  1       -2 0.44827865E-02 0.21657202E+03</pdfrwt>
<totfact> 0.21008509E+04</totfact>
</mgrwt>
</event>
<event>
 4    1  0.6853809E-004  0.3798957E+03  0.7818608E-02  0.1050972E+00
          2   -1    0    0  501    0  0.00000000000E+00  0.00000000000E+00  0.64649759413E+03  0.64649759414E+03  0.25500000000E-02 0.  1.
         -2   -1    0    0    0  501 -0.00000000000E+00 -0.00000000000E+00 -0.55808698972E+02  0.55808699030E+02  0.25500000000E-02 0. -1.
    5000001    1    1    2    0    0 -0.12716593110E+03 -0.10299193673E+03  0.18798271615E+03  0.26085439355E+03  0.77000000000E+02 0.  0.
   -5000001    1    1    2    0    0  0.12716593110E+03  0.10299193673E+03  0.40270617901E+03  0.44145189962E+03  0.77000000000E+02 0.  0.
<mgrwt>
<rscale>  0 0.37989572E+03</rscale>
<asrwt>0</asrwt>
<pdfrwt beam="1">  1        2 0.92356791E-01 0.37989572E+03</pdfrwt>
<pdfrwt beam="2">  1       -2 0.79726720E-02 0.37989572E+03</pdfrwt>
<totfact> 0.48240048E+03</totfact>
</mgrwt>
</event>
<event>
 4    1  0.6853809E-004  0.2091788E+03  0.7818608E-02  0.1142218E+00
          2   -1    0    0  501    0  0.00000000000E+00  0.00000000000E+00  0.22779288950E+04  0.22779288950E+04  0.25500000000E-02 0.  1.
         -2   -1    0    0    0  501 -0.00000000000E+00 -0.00000000000E+00 -0.48021449646E+01  0.48021456416E+01  0.25500000000E-02 0. -1.
    5000001    1    1    2    0    0  0.35946158045E+02  0.20308149254E+02  0.17639697411E+04  0.17661321567E+04  0.77000000000E+02 0.  0.
   -5000001    1    1    2    0    0 -0.35946158045E+02 -0.20308149254E+02  0.50915700894E+03  0.51659888401E+03  0.77000000000E+02 0.  0.
<mgrwt>
<rscale>  0 0.20917883E+03</rscale>
<asrwt>0</asrwt>
<pdfrwt beam="1">  1        2 0.32541859E+00 0.20917883E+03</pdfrwt>
<pdfrwt beam="2">  1       -2 0.68602039E-03 0.20917883E+03</pdfrwt>
<totfact> 0.23543447E+04</totfact>
</mgrwt>
</event>
<event>
 4    1  0.6853809E-004  0.2066237E+03  0.7818608E-02  0.1144268E+00
          2   -1    0    0  501    0  0.00000000000E+00  0.00000000000E+00  0.52737436722E+03  0.52737436723E+03  0.25500000000E-02 0.  1.
         -2   -1    0    0    0  501 -0.00000000000E+00 -0.00000000000E+00 -0.20238632704E+02  0.20238632865E+02  0.25500000000E-02 0. -1.
    5000001    1    1    2    0    0 -0.54615686838E+02 -0.34551892208E+02  0.19042472373E+03  0.21533063393E+03  0.77000000000E+02 0.  0.
   -5000001    1    1    2    0    0  0.54615686838E+02  0.34551892208E+02  0.31671101079E+03  0.33228236616E+03  0.77000000000E+02 0.  0.
<mgrwt>
<rscale>  0 0.20662368E+03</rscale>
<asrwt>0</asrwt>
<pdfrwt beam="1">  1        2 0.75339203E-01 0.20662368E+03</pdfrwt>
<pdfrwt beam="2">  1       -2 0.28912330E-02 0.20662368E+03</pdfrwt>
<totfact> 0.27703379E+04</totfact>
</mgrwt>
</event>
<event>
 4    1  0.6853809E-004  0.2134227E+03  0.7818608E-02  0.1138884E+00
          2   -1    0    0  501    0  0.00000000000E+00  0.00000000000E+00  0.30274271854E+02  0.30274271961E+02  0.25500000000E-02 0.  1.
         -2   -1    0    0    0  501 -0.00000000000E+00 -0.00000000000E+00 -0.37613841325E+03  0.37613841326E+03  0.25500000000E-02 0. -1.
    5000001    1    1    2    0    0 -0.64641294707E+02  0.34691522154E+02 -0.18956772153E+03  0.21736356580E+03  0.77000000000E+02 0.  0.
   -5000001    1    1    2    0    0  0.64641294707E+02 -0.34691522154E+02 -0.15629641987E+03  0.18904911942E+03  0.77000000000E+02 0.  0.
<mgrwt>
<rscale>  0 0.21342274E+03</rscale>
<asrwt>0</asrwt>
<pdfrwt beam="1">  1        2 0.43248962E-02 0.21342274E+03</pdfrwt>
<pdfrwt beam="2">  1       -2 0.53734056E-01 0.21342274E+03</pdfrwt>
<totfact> 0.62012317E+03</totfact>
</mgrwt>
</event>
<event>
 4    1  0.6853809E-004  0.2112995E+03  0.7818608E-02  0.1140541E+00
         -2   -1    0    0    0  501 -0.00000000000E+00  0.00000000000E+00  0.10445365939E+02  0.10445366250E+02  0.25500000000E-02 0. -1.
          2   -1    0    0  501    0  0.00000000000E+00 -0.00000000000E+00 -0.10685953107E+04  0.10685953107E+04  0.25500000000E-02 0.  1.
    5000001    1    1    2    0    0 -0.46185374226E+02 -0.72539602681E+01 -0.24718020082E+03  0.26308318154E+03  0.77000000000E+02 0.  0.
   -5000001    1    1    2    0    0  0.46185374226E+02  0.72539602681E+01 -0.81096974394E+03  0.81595749541E+03  0.77000000000E+02 0.  0.
<mgrwt>
<rscale>  0 0.21129950E+03</rscale>
<asrwt>0</asrwt>
<pdfrwt beam="1">  1        2 0.15265640E+00 0.21129950E+03</pdfrwt>
<pdfrwt beam="2">  1       -2 0.14921958E-02 0.21129950E+03</pdfrwt>
<totfact> 0.30944186E+04</totfact>
</mgrwt>
</event>
<event>
 4    1  0.6853809E-004  0.2357418E+03  0.7818608E-02  0.1122662E+00
         -2   -1    0    0    0  501 -0.00000000000E+00  0.00000000000E+00  0.58230399866E+01  0.58230405449E+01  0.25500000000E-02 0. -1.
          2   -1    0    0  501    0  0.00000000000E+00 -0.00000000000E+00 -0.23859611303E+04  0.23859611303E+04  0.25500000000E-02 0.  1.
    5000001    1    1    2    0    0  0.43107074880E+02  0.23641459388E+02 -0.19457361466E+04  0.19478796910E+04  0.77000000000E+02 0.  0.
   -5000001    1    1    2    0    0 -0.43107074880E+02 -0.23641459388E+02 -0.43440194371E+03  0.44390447982E+03  0.77000000000E+02 0.  0.
<mgrwt>
<rscale>  0 0.23574179E+03</rscale>
<asrwt>0</asrwt>
<pdfrwt beam="1">  1        2 0.34085097E+00 0.23574179E+03</pdfrwt>
<pdfrwt beam="2">  1       -2 0.83186442E-03 0.23574179E+03</pdfrwt>
<totfact> 0.15852807E+04</totfact>
</mgrwt>
</event>
<event>
 4    1  0.6853809E-004  0.1775828E+03  0.7818608E-02  0.1170163E+00
         -2   -1    0    0    0  501 -0.00000000000E+00  0.00000000000E+00  0.44044238500E+01  0.44044245882E+01  0.25500000000E-02 0. -1.
          2   -1    0    0  501    0  0.00000000000E+00 -0.00000000000E+00 -0.17899988358E+04  0.17899988358E+04  0.25500000000E-02 0.  1.
    5000001    1    1    2    0    0  0.15355289655E+02 -0.21644838592E+02 -0.12501388052E+04  0.12527890150E+04  0.77000000000E+02 0.  0.
   -5000001    1    1    2    0    0 -0.15355289655E+02  0.21644838592E+02 -0.53545560682E+03  0.54161424541E+03  0.77000000000E+02 0.  0.
<mgrwt>
<rscale>  0 0.17758282E+03</rscale>
<asrwt>0</asrwt>
<pdfrwt beam="1">  1        2 0.25571365E+00 0.17758282E+03</pdfrwt>
<pdfrwt beam="2">  1       -2 0.62920460E-03 0.17758282E+03</pdfrwt>
<totfact> 0.45408147E+04</totfact>
</mgrwt>
</event>
<event>
 4    1  0.6853809E-004  0.2340799E+03  0.7818608E-02  0.1123801E+00
          2   -1    0    0  501    0  0.00000000000E+00  0.00000000000E+00  0.75665549771E+03  0.75665549772E+03  0.25500000000E-02 0.  1.
         -2   -1    0    0    0  501 -0.00000000000E+00 -0.00000000000E+00 -0.18103808690E+02  0.18103808870E+02  0.25500000000E-02 0. -1.
    5000001    1    1    2    0    0 -0.84605271359E+02  0.89749733557E+01  0.44552682391E+03  0.46006711784E+03  0.77000000000E+02 0.  0.
   -5000001    1    1    2    0    0  0.84605271359E+02 -0.89749733557E+01  0.29302486511E+03  0.31469218875E+03  0.77000000000E+02 0.  0.
<mgrwt>
<rscale>  0 0.23407987E+03</rscale>
<asrwt>0</asrwt>
<pdfrwt beam="1">  1        2 0.10809364E+00 0.23407987E+03</pdfrwt>
<pdfrwt beam="2">  1       -2 0.25862584E-02 0.23407987E+03</pdfrwt>
<totfact> 0.21734189E+04</totfact>
</mgrwt>
</event>
<event>
 4    1  0.6853809E-004  0.4401726E+03  0.7818608E-02  0.1030694E+00
          2   -1    0    0  501    0  0.00000000000E+00  0.00000000000E+00  0.97210629298E+03  0.97210629298E+03  0.25500000000E-02 0.  1.
         -2   -1    0    0    0  501 -0.00000000000E+00 -0.00000000000E+00 -0.49827862265E+02  0.49827862331E+02  0.25500000000E-02 0. -1.
    5000001    1    1    2    0    0 -0.20370678683E+03  0.19298838953E+02  0.40240157805E+03  0.45795734539E+03  0.77000000000E+02 0.  0.
   -5000001    1    1    2    0    0  0.20370678683E+03 -0.19298838953E+02  0.51987685266E+03  0.56397680992E+03  0.77000000000E+02 0.  0.
<mgrwt>
<rscale>  0 0.44017260E+03</rscale>
<asrwt>0</asrwt>
<pdfrwt beam="1">  1        2 0.13887233E+00 0.44017260E+03</pdfrwt>
<pdfrwt beam="2">  1       -2 0.71182662E-02 0.44017260E+03</pdfrwt>
<totfact> 0.34542970E+03</totfact>
</mgrwt>
</event>
<event>
 4    1  0.6853809E-004  0.2558613E+03  0.7818608E-02  0.1109656E+00
          2   -1    0    0  501    0  0.00000000000E+00  0.00000000000E+00  0.89495349558E+03  0.89495349558E+03  0.25500000000E-02 0.  1.
         -2   -1    0    0    0  501 -0.00000000000E+00 -0.00000000000E+00 -0.18287268632E+02  0.18287268810E+02  0.25500000000E-02 0. -1.
    5000001    1    1    2    0    0 -0.49140163926E+02  0.82678953885E+02  0.56128898329E+03  0.57465197110E+03  0.77000000000E+02 0.  0.
   -5000001    1    1    2    0    0  0.49140163926E+02 -0.82678953885E+02  0.31537724366E+03  0.33858879329E+03  0.77000000000E+02 0.  0.
<mgrwt>
<rscale>  0 0.25586133E+03</rscale>
<asrwt>0</asrwt>
<pdfrwt beam="1">  1        2 0.12785055E+00 0.25586133E+03</pdfrwt>
<pdfrwt beam="2">  1       -2 0.26124658E-02 0.25586133E+03</pdfrwt>
<totfact> 0.17447430E+04</totfact>
</mgrwt>
</event>
<event>
 4    1  0.6853809E-004  0.1851306E+03  0.7818608E-02  0.1162928E+00
          2   -1    0    0  501    0  0.00000000000E+00  0.00000000000E+00  0.47092862233E+03  0.47092862234E+03  0.25500000000E-02 0.  1.
         -2   -1    0    0    0  501 -0.00000000000E+00 -0.00000000000E+00 -0.18194547385E+02  0.18194547564E+02  0.25500000000E-02 0. -1.
    5000001    1    1    2    0    0 -0.38185902107E+02  0.34140084603E+02  0.23681052797E+03  0.25422811539E+03  0.77000000000E+02 0.  0.
   -5000001    1    1    2    0    0  0.38185902107E+02 -0.34140084603E+02  0.21592354698E+03  0.23489505451E+03  0.77000000000E+02 0.  0.
<mgrwt>
<rscale>  0 0.18513058E+03</rscale>
<asrwt>0</asrwt>
<pdfrwt beam="1">  1        2 0.67275521E-01 0.18513058E+03</pdfrwt>
<pdfrwt beam="2">  1       -2 0.25992209E-02 0.18513058E+03</pdfrwt>
<totfact> 0.36372587E+04</totfact>
</mgrwt>
</event>
<event>
 4    1  0.6853809E-004  0.4305831E+03  0.7818608E-02  0.1033676E+00
         -2   -1    0    0    0  501 -0.00000000000E+00  0.00000000000E+00  0.22772923868E+03  0.22772923869E+03  0.25500000000E-02 0. -1.
          2   -1    0    0  501    0  0.00000000000E+00 -0.00000000000E+00 -0.20353314978E+03  0.20353314980E+03  0.25500000000E-02 0.  1.
    5000001    1    1    2    0    0 -0.73803812681E+02 -0.15598583273E+03  0.11542506841E+03  0.22142838390E+03  0.77000000000E+02 0.  0.
   -5000001    1    1    2    0    0  0.73803812681E+02  0.15598583273E+03 -0.91228979513E+02  0.20983400459E+03  0.77000000000E+02 0.  0.
<mgrwt>
<rscale>  0 0.43058309E+03</rscale>
<asrwt>0</asrwt>
<pdfrwt beam="1">  1        2 0.29076164E-01 0.43058309E+03</pdfrwt>
<pdfrwt beam="2">  1       -2 0.32532748E-01 0.43058309E+03</pdfrwt>
<totfact> 0.16124385E+03</totfact>
</mgrwt>
</event>
<event>
 4    1  0.6853809E-004  0.4197178E+03  0.7818608E-02  0.1037158E+00
         -2   -1    0    0    0  501 -0.00000000000E+00  0.00000000000E+00  0.56579205493E+02  0.56579205550E+02  0.25500000000E-02 0. -1.
          2   -1    0    0  501    0  0.00000000000E+00 -0.00000000000E+00 -0.77839135184E+03  0.77839135185E+03  0.25500000000E-02 0.  1.
    5000001    1    1    2    0    0  0.10215989920E+03  0.56394554815E+02 -0.67225721027E+03  0.68664091603E+03  0.77000000000E+02 0.  0.
   -5000001    1    1    2    0    0 -0.10215989920E+03 -0.56394554815E+02 -0.49554936085E+02  0.14832964136E+03  0.77000000000E+02 0.  0.
<mgrwt>
<rscale>  0 0.41971783E+03</rscale>
<asrwt>0</asrwt>
<pdfrwt beam="1">  1        2 0.11119876E+00 0.41971783E+03</pdfrwt>
<pdfrwt beam="2">  1       -2 0.80827441E-02 0.41971783E+03</pdfrwt>
<totfact> 0.37765835E+03</totfact>
</mgrwt>
</event>
<event>
 4    1  0.6853809E-004  0.2663899E+03  0.7818608E-02  0.1103364E+00
          2   -1    0    0  501    0  0.00000000000E+00  0.00000000000E+00  0.46419495679E+03  0.46419495680E+03  0.25500000000E-02 0.  1.
         -2   -1    0    0    0  501 -0.00000000000E+00 -0.00000000000E+00 -0.38218634913E+02  0.38218634998E+02  0.25500000000E-02 0. -1.
    5000001    1    1    2    0    0  0.87494189769E+02 -0.56500394493E+02  0.27155683428E+03  0.30086482357E+03  0.77000000000E+02 0.  0.
   -5000001    1    1    2    0    0 -0.87494189769E+02  0.56500394493E+02  0.15441948760E+03  0.20154876822E+03  0.77000000000E+02 0.  0.
<mgrwt>
<rscale>  0 0.26638992E+03</rscale>
<asrwt>0</asrwt>
<pdfrwt beam="1">  1        2 0.66313563E-01 0.26638992E+03</pdfrwt>
<pdfrwt beam="2">  1       -2 0.54598051E-02 0.26638992E+03</pdfrwt>
<totfact> 0.12470121E+04</totfact>
</mgrwt>
</event>
<event>
 4    1  0.6853809E-004  0.2119336E+03  0.7818608E-02  0.1140044E+00
         -2   -1    0    0    0  501 -0.00000000000E+00  0.00000000000E+00  0.47016452354E+01  0.47016459269E+01  0.25500000000E-02 0. -1.
          2   -1    0    0  501    0  0.00000000000E+00 -0.00000000000E+00 -0.23883058818E+04  0.23883058818E+04  0.25500000000E-02 0.  1.
    5000001    1    1    2    0    0  0.52132487054E+02  0.42150807427E+02 -0.15122606276E+04  0.15157030358E+04  0.77000000000E+02 0.  0.
   -5000001    1    1    2    0    0 -0.52132487054E+02 -0.42150807427E+02 -0.87134360897E+03  0.87730449199E+03  0.77000000000E+02 0.  0.
<mgrwt>
<rscale>  0 0.21193365E+03</rscale>
<asrwt>0</asrwt>
<pdfrwt beam="1">  1        2 0.34118578E+00 0.21193365E+03</pdfrwt>
<pdfrwt beam="2">  1       -2 0.67166519E-03 0.21193365E+03</pdfrwt>
<totfact> 0.21448104E+04</totfact>
</mgrwt>
</event>
<event>
 4    1  0.6853809E-004  0.1659350E+03  0.7818608E-02  0.1182154E+00
          2   -1    0    0  501    0  0.00000000000E+00  0.00000000000E+00  0.26358259063E+03  0.26358259064E+03  0.25500000000E-02 0.  1.
         -2   -1    0    0    0  501 -0.00000000000E+00 -0.00000000000E+00 -0.26115567774E+02  0.26115567898E+02  0.25500000000E-02 0. -1.
    5000001    1    1    2    0    0  0.30612130756E+02  0.41838895664E+01  0.11866481808E+03  0.14479277099E+03  0.77000000000E+02 0.  0.
   -5000001    1    1    2    0    0 -0.30612130756E+02 -0.41838895664E+01  0.11880220478E+03  0.14490538755E+03  0.77000000000E+02 0.  0.
<mgrwt>
<rscale>  0 0.16593504E+03</rscale>
<asrwt>0</asrwt>
<pdfrwt beam="1">  1        2 0.37654657E-01 0.16593504E+03</pdfrwt>
<pdfrwt beam="2">  1       -2 0.37307953E-02 0.16593504E+03</pdfrwt>
<totfact> 0.39264851E+04</totfact>
</mgrwt>
</event>
<event>
 4    1  0.6853809E-004  0.2556137E+03  0.7818608E-02  0.1109808E+00
          2   -1    0    0  501    0  0.00000000000E+00  0.00000000000E+00  0.20133771749E+04  0.20133771749E+04  0.25500000000E-02 0.  1.
         -2   -1    0    0    0  501 -0.00000000000E+00 -0.00000000000E+00 -0.81130315755E+01  0.81130319763E+01  0.25500000000E-02 0. -1.
    5000001    1    1    2    0    0 -0.94825948586E+02 -0.21097567351E+02  0.75651432331E+03  0.76660288888E+03  0.77000000000E+02 0.  0.
   -5000001    1    1    2    0    0  0.94825948586E+02  0.21097567351E+02  0.12487498200E+04  0.12548873180E+04  0.77000000000E+02 0.  0.
<mgrwt>
<rscale>  0 0.25561372E+03</rscale>
<asrwt>0</asrwt>
<pdfrwt beam="1">  1        2 0.28762581E+00 0.25561372E+03</pdfrwt>
<pdfrwt beam="2">  1       -2 0.11590025E-02 0.25561372E+03</pdfrwt>
<totfact> 0.14934046E+04</totfact>
</mgrwt>
</event>
<event>
 4    1  0.6853809E-004  0.2236296E+03  0.7818608E-02  0.1131206E+00
          2   -1    0    0  501    0  0.00000000000E+00  0.00000000000E+00  0.31433916632E+04  0.31433916632E+04  0.25500000000E-02 0.  1.
         -2   -1    0    0    0  501 -0.00000000000E+00 -0.00000000000E+00 -0.39774076863E+01  0.39774085038E+01  0.25500000000E-02 0. -1.
    5000001    1    1    2    0    0 -0.17291363166E+02  0.79137865583E+02  0.15214464708E+04  0.15255458552E+04  0.77000000000E+02 0.  0.
   -5000001    1    1    2    0    0  0.17291363166E+02 -0.79137865583E+02  0.16179677848E+04  0.16218232165E+04  0.77000000000E+02 0.  0.
<mgrwt>
<rscale>  0 0.22362962E+03</rscale>
<asrwt>0</asrwt>
<pdfrwt beam="1">  1        2 0.44905842E+00 0.22362962E+03</pdfrwt>
<pdfrwt beam="2">  1       -2 0.56819804E-03 0.22362962E+03</pdfrwt>
<totfact> 0.11227770E+04</totfact>
</mgrwt>
</event>
<event>
 4    1  0.6853809E-004  0.2113172E+03  0.7818608E-02  0.1140527E+00
          2   -1    0    0  501    0  0.00000000000E+00  0.00000000000E+00  0.10068542869E+04  0.10068542869E+04  0.25500000000E-02 0.  1.
         -2   -1    0    0    0  501 -0.00000000000E+00 -0.00000000000E+00 -0.11087744183E+02  0.11087744476E+02  0.25500000000E-02 0. -1.
    5000001    1    1    2    0    0  0.53426641397E+02 -0.43371782997E+02  0.39025250073E+03  0.40368494138E+03  0.77000000000E+02 0.  0.
   -5000001    1    1    2    0    0 -0.53426641397E+02  0.43371782997E+02  0.60551404203E+03  0.61425709004E+03  0.77000000000E+02 0.  0.
<mgrwt>
<rscale>  0 0.21131723E+03</rscale>
<asrwt>0</asrwt>
<pdfrwt beam="1">  1        2 0.14383629E+00 0.21131723E+03</pdfrwt>
<pdfrwt beam="2">  1       -2 0.15839639E-02 0.21131723E+03</pdfrwt>
<totfact> 0.30784366E+04</totfact>
</mgrwt>
</event>
<event>
 4    1  0.6853809E-004  0.3155964E+03  0.7818608E-02  0.1077694E+00
          2   -1    0    0  501    0  0.00000000000E+00  0.00000000000E+00  0.63719539534E+03  0.63719539535E+03  0.25500000000E-02 0.  1.
         -2   -1    0    0    0  501 -0.00000000000E+00 -0.00000000000E+00 -0.39077924201E+02  0.39077924284E+02  0.25500000000E-02 0. -1.
    5000001    1    1    2    0    0 -0.12516936709E+03 -0.41359806577E+02  0.21352552010E+03  0.26248838411E+03  0.77000000000E+02 0.  0.
   -5000001    1    1    2    0    0  0.12516936709E+03  0.41359806577E+02  0.38459195104E+03  0.41378493552E+03  0.77000000000E+02 0.  0.
<mgrwt>
<rscale>  0 0.31559641E+03</rscale>
<asrwt>0</asrwt>
<pdfrwt beam="1">  1        2 0.91027911E-01 0.31559641E+03</pdfrwt>
<pdfrwt beam="2">  1       -2 0.55825608E-02 0.31559641E+03</pdfrwt>
<totfact> 0.84953926E+03</totfact>
</mgrwt>
</event>
<event>
 4    1  0.6853809E-004  0.2640864E+03  0.7818608E-02  0.1104713E+00
          2   -1    0    0  501    0  0.00000000000E+00  0.00000000000E+00  0.82315206365E+03  0.82315206366E+03  0.25500000000E-02 0.  1.
         -2   -1    0    0    0  501 -0.00000000000E+00 -0.00000000000E+00 -0.21181267507E+02  0.21181267661E+02  0.25500000000E-02 0. -1.
    5000001    1    1    2    0    0 -0.10460723841E+03 -0.23140969781E+02  0.41797125019E+03  0.43830029066E+03  0.77000000000E+02 0.  0.
   -5000001    1    1    2    0    0  0.10460723841E+03  0.23140969781E+02  0.38399954596E+03  0.40603304066E+03  0.77000000000E+02 0.  0.
<mgrwt>
<rscale>  0 0.26408638E+03</rscale>
<asrwt>0</asrwt>
<pdfrwt beam="1">  1        2 0.11759316E+00 0.26408638E+03</pdfrwt>
<pdfrwt beam="2">  1       -2 0.30258953E-02 0.26408638E+03</pdfrwt>
<totfact> 0.15624736E+04</totfact>
</mgrwt>
</event>
<event>
 4    1  0.6853809E-004  0.2188249E+03  0.7818608E-02  0.1134762E+00
          2   -1    0    0  501    0  0.00000000000E+00  0.00000000000E+00  0.19926738432E+04  0.19926738432E+04  0.25500000000E-02 0.  1.
         -2   -1    0    0    0  501 -0.00000000000E+00 -0.00000000000E+00 -0.60075455066E+01  0.60075460478E+01  0.25500000000E-02 0. -1.
    5000001    1    1    2    0    0 -0.57235400296E+01  0.72220173296E+02  0.73603378254E+03  0.74358808582E+03  0.77000000000E+02 0.  0.
   -5000001    1    1    2    0    0  0.57235400296E+01 -0.72220173296E+02  0.12506325152E+04  0.12550933035E+04  0.77000000000E+02 0.  0.
<mgrwt>
<rscale>  0 0.21882486E+03</rscale>
<asrwt>0</asrwt>
<pdfrwt beam="1">  1        2 0.28466714E+00 0.21882486E+03</pdfrwt>
<pdfrwt beam="2">  1       -2 0.85822250E-03 0.21882486E+03</pdfrwt>
<totfact> 0.23487407E+04</totfact>
</mgrwt>
</event>
<event>
 4    1  0.6853809E-004  0.2627996E+03  0.7818608E-02  0.1105473E+00
          2   -1    0    0  501    0  0.00000000000E+00  0.00000000000E+00  0.48231522824E+03  0.48231522825E+03  0.25500000000E-02 0.  1.
         -2   -1    0    0    0  501 -0.00000000000E+00 -0.00000000000E+00 -0.35797971144E+02  0.35797971235E+02  0.25500000000E-02 0. -1.
    5000001    1    1    2    0    0 -0.26263096980E+02  0.88780366108E+02  0.11958615164E+03  0.16971019808E+03  0.77000000000E+02 0.  0.
   -5000001    1    1    2    0    0  0.26263096980E+02 -0.88780366108E+02  0.32693110546E+03  0.34840300140E+03  0.77000000000E+02 0.  0.
<mgrwt>
<rscale>  0 0.26279959E+03</rscale>
<asrwt>0</asrwt>
<pdfrwt beam="1">  1        2 0.68902171E-01 0.26279959E+03</pdfrwt>
<pdfrwt beam="2">  1       -2 0.51139962E-02 0.26279959E+03</pdfrwt>
<totfact> 0.13201412E+04</totfact>
</mgrwt>
</event>
<event>
 4    1  0.6853809E-004  0.6067988E+03  0.7818608E-02  0.9891400E-01
          2   -1    0    0  501    0  0.00000000000E+00  0.00000000000E+00  0.14126152039E+04  0.14126152039E+04  0.25500000000E-02 0.  1.
         -2   -1    0    0    0  501 -0.00000000000E+00 -0.00000000000E+00 -0.65163668860E+02  0.65163668910E+02  0.25500000000E-02 0. -1.
    5000001    1    1    2    0    0 -0.29206620745E+03 -0.28220635842E+02  0.66201683743E+03  0.72821313286E+03  0.77000000000E+02 0.  0.
   -5000001    1    1    2    0    0  0.29206620745E+03  0.28220635842E+02  0.68543469757E+03  0.74956573992E+03  0.77000000000E+02 0.  0.
<mgrwt>
<rscale>  0 0.60679878E+03</rscale>
<asrwt>0</asrwt>
<pdfrwt beam="1">  1        2 0.20180217E+00 0.60679878E+03</pdfrwt>
<pdfrwt beam="2">  1       -2 0.93090959E-02 0.60679878E+03</pdfrwt>
<totfact> 0.12712109E+03</totfact>
</mgrwt>
</event>
<event>
 4    1  0.6853809E-004  0.6869552E+03  0.7818608E-02  0.9739804E-01
          2   -1    0    0  501    0  0.00000000000E+00  0.00000000000E+00  0.10251584460E+04  0.10251584460E+04  0.25500000000E-02 0.  1.
         -2   -1    0    0    0  501 -0.00000000000E+00 -0.00000000000E+00 -0.11508159631E+03  0.11508159634E+03  0.25500000000E-02 0. -1.
    5000001    1    1    2    0    0 -0.33329276267E+03 -0.19621831843E+02  0.41510580442E+03  0.53824800120E+03  0.77000000000E+02 0.  0.
   -5000001    1    1    2    0    0  0.33329276267E+03  0.19621831843E+02  0.49497104528E+03  0.60199204114E+03  0.77000000000E+02 0.  0.
<mgrwt>
<rscale>  0 0.68695523E+03</rscale>
<asrwt>0</asrwt>
<pdfrwt beam="1">  1        2 0.14645121E+00 0.68695523E+03</pdfrwt>
<pdfrwt beam="2">  1       -2 0.16440227E-01 0.68695523E+03</pdfrwt>
<totfact> 0.81605518E+02</totfact>
</mgrwt>
</event>
<event>
 4    1  0.6853809E-004  0.4117806E+03  0.7818608E-02  0.1039775E+00
          2   -1    0    0  501    0  0.00000000000E+00  0.00000000000E+00  0.17005351045E+04  0.17005351045E+04  0.25500000000E-02 0.  1.
         -2   -1    0    0    0  501 -0.00000000000E+00 -0.00000000000E+00 -0.24927931405E+02  0.24927931535E+02  0.25500000000E-02 0. -1.
    5000001    1    1    2    0    0 -0.12071828458E+03 -0.14774343686E+03  0.87047548209E+03  0.89445938549E+03  0.77000000000E+02 0.  0.
   -5000001    1    1    2    0    0  0.12071828458E+03  0.14774343686E+03  0.80513169100E+03  0.83100365054E+03  0.77000000000E+02 0.  0.
<mgrwt>
<rscale>  0 0.41178063E+03</rscale>
<asrwt>0</asrwt>
<pdfrwt beam="1">  1        2 0.24293368E+00 0.41178063E+03</pdfrwt>
<pdfrwt beam="2">  1       -2 0.35611316E-02 0.41178063E+03</pdfrwt>
<totfact> 0.40594524E+03</totfact>
</mgrwt>
</event>
<event>
 4    1  0.6853809E-004  0.2306172E+03  0.7818608E-02  0.1126206E+00
          2   -1    0    0  501    0  0.00000000000E+00  0.00000000000E+00  0.11792147010E+04  0.11792147010E+04  0.25500000000E-02 0.  1.
         -2   -1    0    0    0  501 -0.00000000000E+00 -0.00000000000E+00 -0.11275362572E+02  0.11275362860E+02  0.25500000000E-02 0. -1.
    5000001    1    1    2    0    0  0.63990313308E+02 -0.30591540833E+02  0.83349478463E+03  0.84004354565E+03  0.77000000000E+02 0.  0.
   -5000001    1    1    2    0    0 -0.63990313308E+02  0.30591540833E+02  0.33444455378E+03  0.35044651820E+03  0.77000000000E+02 0.  0.
<mgrwt>
<rscale>  0 0.23061720E+03</rscale>
<asrwt>0</asrwt>
<pdfrwt beam="1">  1        2 0.16845929E+00 0.23061720E+03</pdfrwt>
<pdfrwt beam="2">  1       -2 0.16107656E-02 0.23061720E+03</pdfrwt>
<totfact> 0.24164985E+04</totfact>
</mgrwt>
</event>
<event>
 4    1  0.6853809E-004  0.2452071E+03  0.7818608E-02  0.1116372E+00
         -2   -1    0    0    0  501 -0.00000000000E+00  0.00000000000E+00  0.14119105353E+02  0.14119105583E+02  0.25500000000E-02 0. -1.
          2   -1    0    0  501    0  0.00000000000E+00 -0.00000000000E+00 -0.10646302753E+04  0.10646302754E+04  0.25500000000E-02 0.  1.
    5000001    1    1    2    0    0 -0.71429433384E+02  0.14533631752E+02 -0.25444637126E+03  0.27565439640E+03  0.77000000000E+02 0.  0.
   -5000001    1    1    2    0    0  0.71429433384E+02 -0.14533631752E+02 -0.79606479873E+03  0.80309498454E+03  0.77000000000E+02 0.  0.
<mgrwt>
<rscale>  0 0.24520707E+03</rscale>
<asrwt>0</asrwt>
<pdfrwt beam="1">  1        2 0.15208999E+00 0.24520707E+03</pdfrwt>
<pdfrwt beam="2">  1       -2 0.20170157E-02 0.24520707E+03</pdfrwt>
<totfact> 0.20198534E+04</totfact>
</mgrwt>
</event>
<event>
 4    1  0.6853809E-004  0.2839738E+03  0.7818608E-02  0.1093538E+00
          2   -1    0    0  501    0  0.00000000000E+00  0.00000000000E+00  0.61569915496E+03  0.61569915497E+03  0.25500000000E-02 0.  1.
         -2   -1    0    0    0  501 -0.00000000000E+00 -0.00000000000E+00 -0.32743717286E+02  0.32743717385E+02  0.25500000000E-02 0. -1.
    5000001    1    1    2    0    0 -0.81225196635E+02 -0.48474867913E+02  0.12549146043E+03  0.17499843436E+03  0.77000000000E+02 0.  0.
   -5000001    1    1    2    0    0  0.81225196635E+02  0.48474867913E+02  0.45746397725E+03  0.47344443799E+03  0.77000000000E+02 0.  0.
<mgrwt>
<rscale>  0 0.28397380E+03</rscale>
<asrwt>0</asrwt>
<pdfrwt beam="1">  1        2 0.87957013E-01 0.28397380E+03</pdfrwt>
<pdfrwt beam="2">  1       -2 0.46776744E-02 0.28397380E+03</pdfrwt>
<totfact> 0.11531966E+04</totfact>
</mgrwt>
</event>
<event>
 4    1  0.6853809E-004  0.3991153E+03  0.7818608E-02  0.1044086E+00
          2   -1    0    0  501    0  0.00000000000E+00  0.00000000000E+00  0.17091181858E+04  0.17091181858E+04  0.25500000000E-02 0.  1.
         -2   -1    0    0    0  501 -0.00000000000E+00 -0.00000000000E+00 -0.23300470940E+02  0.23300471080E+02  0.25500000000E-02 0. -1.
    5000001    1    1    2    0    0 -0.16802896229E+03 -0.45900515513E+02  0.58415134881E+03  0.61441222954E+03  0.77000000000E+02 0.  0.
   -5000001    1    1    2    0    0  0.16802896229E+03  0.45900515513E+02  0.11016663660E+04  0.11180064273E+04  0.77000000000E+02 0.  0.
<mgrwt>
<rscale>  0 0.39911532E+03</rscale>
<asrwt>0</asrwt>
<pdfrwt beam="1">  1        2 0.24415974E+00 0.39911532E+03</pdfrwt>
<pdfrwt beam="2">  1       -2 0.33286388E-02 0.39911532E+03</pdfrwt>
<totfact> 0.44517839E+03</totfact>
</mgrwt>
</event>
<event>
 4    1  0.6853809E-004  0.2910864E+03  0.7818608E-02  0.1089783E+00
          2   -1    0    0  501    0  0.00000000000E+00  0.00000000000E+00  0.50132346554E+03  0.50132346555E+03  0.25500000000E-02 0.  1.
         -2   -1    0    0    0  501 -0.00000000000E+00 -0.00000000000E+00 -0.42253788968E+02  0.42253789045E+02  0.25500000000E-02 0. -1.
    5000001    1    1    2    0    0 -0.31306797835E+02 -0.11304868851E+03  0.30170709859E+03  0.33274058199E+03  0.77000000000E+02 0.  0.
   -5000001    1    1    2    0    0  0.31306797835E+02  0.11304868851E+03  0.15736257799E+03  0.21083667261E+03  0.77000000000E+02 0.  0.
<mgrwt>
<rscale>  0 0.29108635E+03</rscale>
<asrwt>0</asrwt>
<pdfrwt beam="1">  1        2 0.71617635E-01 0.29108635E+03</pdfrwt>
<pdfrwt beam="2">  1       -2 0.60362558E-02 0.29108635E+03</pdfrwt>
<totfact> 0.98618630E+03</totfact>
</mgrwt>
</event>
<event>
 4    1  0.6853809E-004  0.1824739E+03  0.7818608E-02  0.1165430E+00
          2   -1    0    0  501    0  0.00000000000E+00  0.00000000000E+00  0.57871700213E+03  0.57871700213E+03  0.25500000000E-02 0.  1.
         -2   -1    0    0    0  501 -0.00000000000E+00 -0.00000000000E+00 -0.14383854199E+02  0.14383854425E+02  0.25500000000E-02 0. -1.
    5000001    1    1    2    0    0 -0.43633619569E+02  0.19087159409E+02  0.31879143862E+03  0.33139884391E+03  0.77000000000E+02 0.  0.
   -5000001    1    1    2    0    0  0.43633619569E+02 -0.19087159409E+02  0.24554170931E+03  0.26170201264E+03  0.77000000000E+02 0.  0.
<mgrwt>
<rscale>  0 0.18247390E+03</rscale>
<asrwt>0</asrwt>
<pdfrwt beam="1">  1        2 0.82673836E-01 0.18247390E+03</pdfrwt>
<pdfrwt beam="2">  1       -2 0.20548369E-02 0.18247390E+03</pdfrwt>
<totfact> 0.40841833E+04</totfact>
</mgrwt>
</event>
<event>
 4    1  0.6853809E-004  0.2140983E+03  0.7818608E-02  0.1138361E+00
          2   -1    0    0  501    0  0.00000000000E+00  0.00000000000E+00  0.64744864178E+03  0.64744864178E+03  0.25500000000E-02 0.  1.
         -2   -1    0    0    0  501 -0.00000000000E+00 -0.00000000000E+00 -0.17699498426E+02  0.17699498610E+02  0.25500000000E-02 0. -1.
    5000001    1    1    2    0    0  0.72150400719E+02  0.69491896422E+01  0.36653855969E+03  0.38148851529E+03  0.77000000000E+02 0.  0.
   -5000001    1    1    2    0    0 -0.72150400719E+02 -0.69491896422E+01  0.26321058366E+03  0.28365962510E+03  0.77000000000E+02 0.  0.
<mgrwt>
<rscale>  0 0.21409826E+03</rscale>
<asrwt>0</asrwt>
<pdfrwt beam="1">  1        2 0.92492658E-01 0.21409826E+03</pdfrwt>
<pdfrwt beam="2">  1       -2 0.25284999E-02 0.21409826E+03</pdfrwt>
<totfact> 0.26854827E+04</totfact>
</mgrwt>
</event>
<event>
 4    1  0.6853809E-004  0.1985202E+03  0.7818608E-02  0.1150994E+00
          2   -1    0    0  501    0  0.00000000000E+00  0.00000000000E+00  0.16136635113E+04  0.16136635113E+04  0.25500000000E-02 0.  1.
         -2   -1    0    0    0  501 -0.00000000000E+00 -0.00000000000E+00 -0.61057108952E+01  0.61057114277E+01  0.25500000000E-02 0. -1.
    5000001    1    1    2    0    0 -0.27984203371E+01 -0.55833311212E+02  0.10343217149E+04  0.10386893663E+04  0.77000000000E+02 0.  0.
   -5000001    1    1    2    0    0  0.27984203371E+01  0.55833311212E+02  0.57323608547E+03  0.58107985637E+03  0.77000000000E+02 0.  0.
<mgrwt>
<rscale>  0 0.19852016E+03</rscale>
<asrwt>0</asrwt>
<pdfrwt beam="1">  1        2 0.23052314E+00 0.19852016E+03</pdfrwt>
<pdfrwt beam="2">  1       -2 0.87224527E-03 0.19852016E+03</pdfrwt>
<totfact> 0.34882856E+04</totfact>
</mgrwt>
</event>
<event>
 4    1  0.6853809E-004  0.2227514E+03  0.7818608E-02  0.1131848E+00
          2   -1    0    0  501    0  0.00000000000E+00  0.00000000000E+00  0.13560230871E+04  0.13560230871E+04  0.25500000000E-02 0.  1.
         -2   -1    0    0    0  501 -0.00000000000E+00 -0.00000000000E+00 -0.91477363639E+01  0.91477367193E+01  0.25500000000E-02 0. -1.
    5000001    1    1    2    0    0 -0.47007256381E+00 -0.68227322859E+02  0.93492129643E+03  0.94056473412E+03  0.77000000000E+02 0.  0.
   -5000001    1    1    2    0    0  0.47007256381E+00  0.68227322859E+02  0.41195405433E+03  0.42460608972E+03  0.77000000000E+02 0.  0.
<mgrwt>
<rscale>  0 0.22275136E+03</rscale>
<asrwt>0</asrwt>
<pdfrwt beam="1">  1        2 0.19371755E+00 0.22275136E+03</pdfrwt>
<pdfrwt beam="2">  1       -2 0.13068197E-02 0.22275136E+03</pdfrwt>
<totfact> 0.26369648E+04</totfact>
</mgrwt>
</event>
<event>
 4    1  0.6853809E-004  0.4131001E+03  0.7818608E-02  0.1039336E+00
          2   -1    0    0  501    0  0.00000000000E+00  0.00000000000E+00  0.19842190922E+03  0.19842190924E+03  0.25500000000E-02 0.  1.
         -2   -1    0    0    0  501 -0.00000000000E+00 -0.00000000000E+00 -0.21501120324E+03  0.21501120326E+03  0.25500000000E-02 0. -1.
    5000001    1    1    2    0    0  0.25744537046E+02  0.18939436915E+03 -0.22480880872E+02  0.20728578885E+03  0.77000000000E+02 0.  0.
   -5000001    1    1    2    0    0 -0.25744537046E+02 -0.18939436915E+03  0.58915868521E+01  0.20614732365E+03  0.77000000000E+02 0.  0.
<mgrwt>
<rscale>  0 0.41310015E+03</rscale>
<asrwt>0</asrwt>
<pdfrwt beam="1">  1        2 0.28345987E-01 0.41310015E+03</pdfrwt>
<pdfrwt beam="2">  1       -2 0.30715886E-01 0.41310015E+03</pdfrwt>
<totfact> 0.18441412E+03</totfact>
</mgrwt>
</event>
<event>
 4    1  0.6853809E-004  0.1982027E+03  0.7818608E-02  0.1151264E+00
         -2   -1    0    0    0  501 -0.00000000000E+00  0.00000000000E+00  0.53515338875E+01  0.53515344950E+01  0.25500000000E-02 0. -1.
          2   -1    0    0  501    0  0.00000000000E+00 -0.00000000000E+00 -0.18351888835E+04  0.18351888835E+04  0.25500000000E-02 0.  1.
    5000001    1    1    2    0    0  0.52183615021E+02 -0.30797064225E+02 -0.77703033713E+03  0.78318371642E+03  0.77000000000E+02 0.  0.
   -5000001    1    1    2    0    0 -0.52183615021E+02  0.30797064225E+02 -0.10528070125E+04  0.10573567016E+04  0.77000000000E+02 0.  0.
<mgrwt>
<rscale>  0 0.19820268E+03</rscale>
<asrwt>0</asrwt>
<pdfrwt beam="1">  1        2 0.26216944E+00 0.19820268E+03</pdfrwt>
<pdfrwt beam="2">  1       -2 0.76450606E-03 0.19820268E+03</pdfrwt>
<totfact> 0.32891296E+04</totfact>
</mgrwt>
</event>
<event>
 4    1  0.6853809E-004  0.2492892E+03  0.7818608E-02  0.1113755E+00
         -2   -1    0    0    0  501 -0.00000000000E+00  0.00000000000E+00  0.62980668416E+02  0.62980668467E+02  0.25500000000E-02 0. -1.
          2   -1    0    0  501    0  0.00000000000E+00 -0.00000000000E+00 -0.24668317708E+03  0.24668317710E+03  0.25500000000E-02 0.  1.
    5000001    1    1    2    0    0  0.67194900463E+02 -0.17771132353E+02 -0.17769982518E+03  0.20576004389E+03  0.77000000000E+02 0.  0.
   -5000001    1    1    2    0    0 -0.67194900463E+02  0.17771132353E+02 -0.60026834907E+01  0.10390380167E+03  0.77000000000E+02 0.  0.
<mgrwt>
<rscale>  0 0.24928916E+03</rscale>
<asrwt>0</asrwt>
<pdfrwt beam="1">  1        2 0.35240453E-01 0.24928916E+03</pdfrwt>
<pdfrwt beam="2">  1       -2 0.89972385E-02 0.24928916E+03</pdfrwt>
<totfact> 0.11349428E+04</totfact>
</mgrwt>
</event>
<event>
 4    1  0.6853809E-004  0.1761558E+03  0.7818608E-02  0.1171576E+00
          2   -1    0    0  501    0  0.00000000000E+00  0.00000000000E+00  0.31101060346E+04  0.31101060346E+04  0.25500000000E-02 0.  1.
         -2   -1    0    0    0  501 -0.00000000000E+00 -0.00000000000E+00 -0.24943581889E+01  0.24943594924E+01  0.25500000000E-02 0. -1.
    5000001    1    1    2    0    0 -0.10536279563E+02 -0.41444318927E+02  0.15489434086E+04  0.15514455607E+04  0.77000000000E+02 0.  0.
   -5000001    1    1    2    0    0  0.10536279563E+02  0.41444318927E+02  0.15586682678E+04  0.15611548334E+04  0.77000000000E+02 0.  0.
<mgrwt>
<rscale>  0 0.17615585E+03</rscale>
<asrwt>0</asrwt>
<pdfrwt beam="1">  1        2 0.44430127E+00 0.17615585E+03</pdfrwt>
<pdfrwt beam="2">  1       -2 0.35633665E-03 0.17615585E+03</pdfrwt>
<totfact> 0.22667504E+04</totfact>
</mgrwt>
</event>
<event>
 4    1  0.6853809E-004  0.2619333E+03  0.7818608E-02  0.1105987E+00
          2   -1    0    0  501    0  0.00000000000E+00  0.00000000000E+00  0.56071230436E+03  0.56071230437E+03  0.25500000000E-02 0.  1.
         -2   -1    0    0    0  501 -0.00000000000E+00 -0.00000000000E+00 -0.30590123961E+02  0.30590124067E+02  0.25500000000E-02 0. -1.
    5000001    1    1    2    0    0 -0.45821167268E+02 -0.93394301583E+02  0.21984522946E+03  0.25511369986E+03  0.77000000000E+02 0.  0.
   -5000001    1    1    2    0    0  0.45821167268E+02  0.93394301583E+02  0.31027695094E+03  0.33618872858E+03  0.77000000000E+02 0.  0.
<mgrwt>
<rscale>  0 0.26193327E+03</rscale>
<asrwt>0</asrwt>
<pdfrwt beam="1">  1        2 0.80101759E-01 0.26193327E+03</pdfrwt>
<pdfrwt beam="2">  1       -2 0.43700176E-02 0.26193327E+03</pdfrwt>
<totfact> 0.14165639E+04</totfact>
</mgrwt>
</event>
<event>
 4    1  0.6853809E-004  0.3006314E+03  0.7818608E-02  0.1084925E+00
         -2   -1    0    0    0  501 -0.00000000000E+00  0.00000000000E+00  0.25248244320E+02  0.25248244448E+02  0.25500000000E-02 0. -1.
          2   -1    0    0  501    0  0.00000000000E+00 -0.00000000000E+00 -0.89490639963E+03  0.89490639963E+03  0.25500000000E-02 0.  1.
    5000001    1    1    2    0    0 -0.77210370450E+02 -0.19073913507E+02 -0.74607126346E+03  0.75423907725E+03  0.77000000000E+02 0.  0.
   -5000001    1    1    2    0    0  0.77210370450E+02  0.19073913507E+02 -0.12358689185E+03  0.16591556683E+03  0.77000000000E+02 0.  0.
<mgrwt>
<rscale>  0 0.30063144E+03</rscale>
<asrwt>0</asrwt>
<pdfrwt beam="1">  1        2 0.12784375E+00 0.30063144E+03</pdfrwt>
<pdfrwt beam="2">  1       -2 0.36068926E-02 0.30063144E+03</pdfrwt>
<totfact> 0.10858327E+04</totfact>
</mgrwt>
</event>
<event>
 4    1  0.6853809E-004  0.1610881E+03  0.7818608E-02  0.1187474E+00
         -2   -1    0    0    0  501 -0.00000000000E+00  0.00000000000E+00  0.82269813022E+02  0.82269813062E+02  0.25500000000E-02 0. -1.
          2   -1    0    0  501    0  0.00000000000E+00 -0.00000000000E+00 -0.78854534286E+02  0.78854534327E+02  0.25500000000E-02 0.  1.
    5000001    1    1    2    0    0 -0.23437164958E+02  0.26468654270E+01  0.27861250158E+00  0.80531883268E+02  0.77000000000E+02 0.  0.
   -5000001    1    1    2    0    0  0.23437164958E+02 -0.26468654270E+01  0.31366662349E+01  0.80592464120E+02  0.77000000000E+02 0.  0.
<mgrwt>
<rscale>  0 0.16108815E+03</rscale>
<asrwt>0</asrwt>
<pdfrwt beam="1">  1        2 0.11264934E-01 0.16108815E+03</pdfrwt>
<pdfrwt beam="2">  1       -2 0.11752830E-01 0.16108815E+03</pdfrwt>
<totfact> 0.26479300E+04</totfact>
</mgrwt>
</event>
<event>
 4    1  0.6853809E-004  0.2090289E+03  0.7818608E-02  0.1142337E+00
          2   -1    0    0  501    0  0.00000000000E+00  0.00000000000E+00  0.13041327055E+04  0.13041327055E+04  0.25500000000E-02 0.  1.
         -2   -1    0    0    0  501 -0.00000000000E+00 -0.00000000000E+00 -0.83758892765E+01  0.83758896646E+01  0.25500000000E-02 0. -1.
    5000001    1    1    2    0    0 -0.27887018642E+02 -0.32829580667E+02  0.29609292600E+03  0.30895871570E+03  0.77000000000E+02 0.  0.
   -5000001    1    1    2    0    0  0.27887018642E+02  0.32829580667E+02  0.99966389022E+03  0.10035498795E+04  0.77000000000E+02 0.  0.
<mgrwt>
<rscale>  0 0.20902891E+03</rscale>
<asrwt>0</asrwt>
<pdfrwt beam="1">  1        2 0.18630475E+00 0.20902891E+03</pdfrwt>
<pdfrwt beam="2">  1       -2 0.11965551E-02 0.20902891E+03</pdfrwt>
<totfact> 0.31760962E+04</totfact>
</mgrwt>
</event>
<event>
 4    1  0.6853809E-004  0.1634303E+03  0.7818608E-02  0.1184878E+00
         -2   -1    0    0    0  501 -0.00000000000E+00  0.00000000000E+00  0.20161530657E+01  0.20161546783E+01  0.25500000000E-02 0. -1.
          2   -1    0    0  501    0  0.00000000000E+00 -0.00000000000E+00 -0.33119315043E+04  0.33119315043E+04  0.25500000000E-02 0.  1.
    5000001    1    1    2    0    0 -0.63209743806E+01  0.85978244442E+01 -0.21657263317E+04  0.21671209983E+04  0.77000000000E+02 0.  0.
   -5000001    1    1    2    0    0  0.63209743806E+01 -0.85978244442E+01 -0.11441890196E+04  0.11468266607E+04  0.77000000000E+02 0.  0.
<mgrwt>
<rscale>  0 0.16343027E+03</rscale>
<asrwt>0</asrwt>
<pdfrwt beam="1">  1        2 0.47312959E+00 0.16343027E+03</pdfrwt>
<pdfrwt beam="2">  1       -2 0.28802410E-03 0.16343027E+03</pdfrwt>
<totfact> 0.23787911E+04</totfact>
</mgrwt>
</event>
<event>
 4    1  0.6853809E-004  0.2307446E+03  0.7818608E-02  0.1126117E+00
          2   -1    0    0  501    0  0.00000000000E+00  0.00000000000E+00  0.11044636341E+04  0.11044636341E+04  0.25500000000E-02 0.  1.
         -2   -1    0    0    0  501 -0.00000000000E+00 -0.00000000000E+00 -0.12051796407E+02  0.12051796677E+02  0.25500000000E-02 0. -1.
    5000001    1    1    2    0    0 -0.85639177662E+02 -0.54599097828E+01  0.52573872735E+03  0.53823237435E+03  0.77000000000E+02 0.  0.
   -5000001    1    1    2    0    0  0.85639177662E+02  0.54599097828E+01  0.56667311034E+03  0.57828305642E+03  0.77000000000E+02 0.  0.
<mgrwt>
<rscale>  0 0.23074463E+03</rscale>
<asrwt>0</asrwt>
<pdfrwt beam="1">  1        2 0.15778048E+00 0.23074463E+03</pdfrwt>
<pdfrwt beam="2">  1       -2 0.17216857E-02 0.23074463E+03</pdfrwt>
<totfact> 0.24108043E+04</totfact>
</mgrwt>
</event>
<event>
 4    1  0.6853809E-004  0.2766997E+03  0.7818608E-02  0.1097505E+00
         -2   -1    0    0    0  501 -0.00000000000E+00  0.00000000000E+00  0.17235425371E+02  0.17235425560E+02  0.25500000000E-02 0. -1.
          2   -1    0    0  501    0  0.00000000000E+00 -0.00000000000E+00 -0.11105433724E+04  0.11105433724E+04  0.25500000000E-02 0.  1.
    5000001    1    1    2    0    0 -0.16707753324E+02 -0.55471299668E+02 -0.95128008810E+03  0.95614801162E+03  0.77000000000E+02 0.  0.
   -5000001    1    1    2    0    0  0.16707753324E+02  0.55471299668E+02 -0.14202785891E+03  0.17163078633E+03  0.77000000000E+02 0.  0.
<mgrwt>
<rscale>  0 0.27669975E+03</rscale>
<asrwt>0</asrwt>
<pdfrwt beam="1">  1        2 0.15864901E+00 0.27669975E+03</pdfrwt>
<pdfrwt beam="2">  1       -2 0.24622043E-02 0.27669975E+03</pdfrwt>
<totfact> 0.14253905E+04</totfact>
</mgrwt>
</event>
<event>
 4    1  0.6853809E-004  0.2317884E+03  0.7818608E-02  0.1125387E+00
          2   -1    0    0  501    0  0.00000000000E+00  0.00000000000E+00  0.62157899860E+03  0.62157899860E+03  0.25500000000E-02 0.  1.
         -2   -1    0    0    0  501 -0.00000000000E+00 -0.00000000000E+00 -0.21608628052E+02  0.21608628202E+02  0.25500000000E-02 0. -1.
    5000001    1    1    2    0    0  0.57564162397E+02  0.55694488315E+02  0.39147080311E+03  0.40693230212E+03  0.77000000000E+02 0.  0.
   -5000001    1    1    2    0    0 -0.57564162397E+02 -0.55694488315E+02  0.20849956744E+03  0.23625532469E+03  0.77000000000E+02 0.  0.
<mgrwt>
<rscale>  0 0.23178843E+03</rscale>
<asrwt>0</asrwt>
<pdfrwt beam="1">  1        2 0.88797006E-01 0.23178843E+03</pdfrwt>
<pdfrwt beam="2">  1       -2 0.30869467E-02 0.23178843E+03</pdfrwt>
<totfact> 0.21060385E+04</totfact>
</mgrwt>
</event>
<event>
 4    1  0.6853809E-004  0.3594339E+03  0.7818608E-02  0.1058808E+00
          2   -1    0    0  501    0  0.00000000000E+00  0.00000000000E+00  0.88777632136E+02  0.88777632173E+02  0.25500000000E-02 0.  1.
         -2   -1    0    0    0  501 -0.00000000000E+00 -0.00000000000E+00 -0.36380984011E+03  0.36380984012E+03  0.25500000000E-02 0. -1.
    5000001    1    1    2    0    0  0.54954579262E+02  0.28662850473E+02 -0.32650709664E+03  0.34114139142E+03  0.77000000000E+02 0.  0.
   -5000001    1    1    2    0    0 -0.54954579262E+02 -0.28662850473E+02  0.51474888669E+02  0.11144608088E+03  0.77000000000E+02 0.  0.
<mgrwt>
<rscale>  0 0.35943387E+03</rscale>
<asrwt>0</asrwt>
<pdfrwt beam="1">  1        2 0.12682519E-01 0.35943387E+03</pdfrwt>
<pdfrwt beam="2">  1       -2 0.51972834E-01 0.35943387E+03</pdfrwt>
<totfact> 0.17067134E+03</totfact>
</mgrwt>
</event>
<event>
 4    1  0.6853809E-004  0.2095248E+03  0.7818608E-02  0.1141943E+00
         -2   -1    0    0    0  501 -0.00000000000E+00  0.00000000000E+00  0.30267756234E+02  0.30267756342E+02  0.25500000000E-02 0. -1.
          2   -1    0    0  501    0  0.00000000000E+00 -0.00000000000E+00 -0.36260221305E+03  0.36260221306E+03  0.25500000000E-02 0.  1.
    5000001    1    1    2    0    0 -0.27533334960E+02 -0.25399112889E+02 -0.52994846176E+02  0.10070081028E+03  0.77000000000E+02 0.  0.
   -5000001    1    1    2    0    0  0.27533334960E+02  0.25399112889E+02 -0.27933961064E+03  0.29216915912E+03  0.77000000000E+02 0.  0.
<mgrwt>
<rscale>  0 0.20952475E+03</rscale>
<asrwt>0</asrwt>
<pdfrwt beam="1">  1        2 0.51800313E-01 0.20952475E+03</pdfrwt>
<pdfrwt beam="2">  1       -2 0.43239654E-02 0.20952475E+03</pdfrwt>
<totfact> 0.22853556E+04</totfact>
</mgrwt>
</event>
<event>
 4    1  0.6853809E-004  0.1671621E+03  0.7818608E-02  0.1180840E+00
          2   -1    0    0  501    0  0.00000000000E+00  0.00000000000E+00  0.47064411302E+03  0.47064411302E+03  0.25500000000E-02 0.  1.
         -2   -1    0    0    0  501 -0.00000000000E+00 -0.00000000000E+00 -0.14843040925E+02  0.14843041144E+02  0.25500000000E-02 0. -1.
    5000001    1    1    2    0    0  0.16975270711E+02  0.27209507258E+02  0.21245779887E+03  0.22824511692E+03  0.77000000000E+02 0.  0.
   -5000001    1    1    2    0    0 -0.16975270711E+02 -0.27209507258E+02  0.24334327322E+03  0.25724203724E+03  0.77000000000E+02 0.  0.
<mgrwt>
<rscale>  0 0.16716208E+03</rscale>
<asrwt>0</asrwt>
<pdfrwt beam="1">  1        2 0.67234880E-01 0.16716208E+03</pdfrwt>
<pdfrwt beam="2">  1       -2 0.21204342E-02 0.16716208E+03</pdfrwt>
<totfact> 0.48579446E+04</totfact>
</mgrwt>
</event>
<event>
 4    1  0.6853809E-004  0.2168516E+03  0.7818608E-02  0.1136252E+00
         -2   -1    0    0    0  501 -0.00000000000E+00  0.00000000000E+00  0.81952967255E+01  0.81952971223E+01  0.25500000000E-02 0. -1.
          2   -1    0    0  501    0  0.00000000000E+00 -0.00000000000E+00 -0.14345003873E+04  0.14345003873E+04  0.25500000000E-02 0.  1.
    5000001    1    1    2    0    0  0.29490874198E+02 -0.58382445118E+02 -0.97498812459E+03  0.98020868424E+03  0.77000000000E+02 0.  0.
   -5000001    1    1    2    0    0 -0.29490874198E+02  0.58382445118E+02 -0.45131696600E+03  0.46248700021E+03  0.77000000000E+02 0.  0.
<mgrwt>
<rscale>  0 0.21685162E+03</rscale>
<asrwt>0</asrwt>
<pdfrwt beam="1">  1        2 0.20492847E+00 0.21685162E+03</pdfrwt>
<pdfrwt beam="2">  1       -2 0.11707576E-02 0.21685162E+03</pdfrwt>
<totfact> 0.28158284E+04</totfact>
</mgrwt>
</event>
<event>
 4    1  0.6853809E-004  0.2093710E+03  0.7818608E-02  0.1142065E+00
         -2   -1    0    0    0  501 -0.00000000000E+00  0.00000000000E+00  0.10401941859E+03  0.10401941862E+03  0.25500000000E-02 0. -1.
          2   -1    0    0  501    0  0.00000000000E+00 -0.00000000000E+00 -0.10535582879E+03  0.10535582882E+03  0.25500000000E-02 0.  1.
    5000001    1    1    2    0    0  0.60099494457E+02 -0.34781318916E+02 -0.15103272546E+02  0.10477976055E+03  0.77000000000E+02 0.  0.
   -5000001    1    1    2    0    0 -0.60099494457E+02  0.34781318916E+02  0.13766862349E+02  0.10459548689E+03  0.77000000000E+02 0.  0.
<mgrwt>
<rscale>  0 0.20937098E+03</rscale>
<asrwt>0</asrwt>
<pdfrwt beam="1">  1        2 0.15050833E-01 0.20937098E+03</pdfrwt>
<pdfrwt beam="2">  1       -2 0.14859917E-01 0.20937098E+03</pdfrwt>
<totfact> 0.13077333E+04</totfact>
</mgrwt>
</event>
<event>
 4    1  0.6853809E-004  0.2827643E+03  0.7818608E-02  0.1094189E+00
         -2   -1    0    0    0  501 -0.00000000000E+00  0.00000000000E+00  0.25190894395E+03  0.25190894396E+03  0.25500000000E-02 0. -1.
          2   -1    0    0  501    0  0.00000000000E+00 -0.00000000000E+00 -0.79349731889E+02  0.79349731930E+02  0.25500000000E-02 0.  1.
    5000001    1    1    2    0    0  0.69030142628E+02 -0.82401661609E+01  0.19880988152E+03  0.22424858956E+03  0.77000000000E+02 0.  0.
   -5000001    1    1    2    0    0 -0.69030142628E+02  0.82401661609E+01 -0.26250669461E+02  0.10701008633E+03  0.77000000000E+02 0.  0.
<mgrwt>
<rscale>  0 0.28276426E+03</rscale>
<asrwt>0</asrwt>
<pdfrwt beam="1">  1        2 0.11335676E-01 0.28276426E+03</pdfrwt>
<pdfrwt beam="2">  1       -2 0.35986992E-01 0.28276426E+03</pdfrwt>
<totfact> 0.39799512E+03</totfact>
</mgrwt>
</event>
<event>
 4    1  0.6853809E-004  0.3088988E+03  0.7818608E-02  0.1080875E+00
          2   -1    0    0  501    0  0.00000000000E+00  0.00000000000E+00  0.15326069978E+03  0.15326069980E+03  0.25500000000E-02 0.  1.
         -2   -1    0    0    0  501 -0.00000000000E+00 -0.00000000000E+00 -0.15564736353E+03  0.15564736355E+03  0.25500000000E-02 0. -1.
    5000001    1    1    2    0    0  0.10237072389E+03 -0.85320906823E+02  0.11698973215E+02  0.15435442406E+03  0.77000000000E+02 0.  0.
   -5000001    1    1    2    0    0 -0.10237072389E+03  0.85320906823E+02 -0.14085636963E+02  0.15455363930E+03  0.77000000000E+02 0.  0.
<mgrwt>
<rscale>  0 0.30889884E+03</rscale>
<asrwt>0</asrwt>
<pdfrwt beam="1">  1        2 0.21894386E-01 0.30889884E+03</pdfrwt>
<pdfrwt beam="2">  1       -2 0.22235338E-01 0.30889884E+03</pdfrwt>
<totfact> 0.43696587E+03</totfact>
</mgrwt>
</event>
<event>
 4    1  0.6853809E-004  0.3432252E+03  0.7818608E-02  0.1065431E+00
          2   -1    0    0  501    0  0.00000000000E+00  0.00000000000E+00  0.86287027010E+03  0.86287027011E+03  0.25500000000E-02 0.  1.
         -2   -1    0    0    0  501 -0.00000000000E+00 -0.00000000000E+00 -0.34131291235E+02  0.34131291330E+02  0.25500000000E-02 0. -1.
    5000001    1    1    2    0    0  0.56569182447E+02 -0.15893905432E+02  0.44133195155E+02  0.10643978367E+03  0.77000000000E+02 0.  0.
   -5000001    1    1    2    0    0 -0.56569182447E+02  0.15893905432E+02  0.78460578371E+03  0.79056177777E+03  0.77000000000E+02 0.  0.
<mgrwt>
<rscale>  0 0.34322515E+03</rscale>
<asrwt>0</asrwt>
<pdfrwt beam="1">  1        2 0.12326717E+00 0.34322515E+03</pdfrwt>
<pdfrwt beam="2">  1       -2 0.48758994E-02 0.34322515E+03</pdfrwt>
<totfact> 0.72383493E+03</totfact>
</mgrwt>
</event>
<event>
 4    1  0.6853809E-004  0.8308591E+03  0.7818608E-02  0.9516393E-01
         -2   -1    0    0    0  501 -0.00000000000E+00  0.00000000000E+00  0.47707904621E+03  0.47707904622E+03  0.25500000000E-02 0. -1.
          2   -1    0    0  501    0  0.00000000000E+00 -0.00000000000E+00 -0.36174659041E+03  0.36174659042E+03  0.25500000000E-02 0.  1.
    5000001    1    1    2    0    0 -0.33105100271E+02  0.40488341005E+03  0.98378993695E+02  0.42501052904E+03  0.77000000000E+02 0.  0.
   -5000001    1    1    2    0    0  0.33105100271E+02 -0.40488341005E+03  0.16953462108E+02  0.41381510759E+03  0.77000000000E+02 0.  0.
<mgrwt>
<rscale>  0 0.83085912E+03</rscale>
<asrwt>0</asrwt>
<pdfrwt beam="1">  1        2 0.51678085E-01 0.83085912E+03</pdfrwt>
<pdfrwt beam="2">  1       -2 0.68154149E-01 0.83085912E+03</pdfrwt>
<totfact> 0.19193354E+02</totfact>
</mgrwt>
</event>
<event>
 4    1  0.6853809E-004  0.2034841E+03  0.7818608E-02  0.1146832E+00
         -2   -1    0    0    0  501 -0.00000000000E+00  0.00000000000E+00  0.20746593755E+02  0.20746593912E+02  0.25500000000E-02 0. -1.
          2   -1    0    0  501    0  0.00000000000E+00 -0.00000000000E+00 -0.49894667036E+03  0.49894667037E+03  0.25500000000E-02 0.  1.
    5000001    1    1    2    0    0 -0.41366277824E+02 -0.24047910474E+02 -0.12114695377E+03  0.15131112103E+03  0.77000000000E+02 0.  0.
   -5000001    1    1    2    0    0  0.41366277824E+02  0.24047910474E+02 -0.35705312283E+03  0.36838214325E+03  0.77000000000E+02 0.  0.
<mgrwt>
<rscale>  0 0.20348409E+03</rscale>
<asrwt>0</asrwt>
<pdfrwt beam="1">  1        2 0.71278088E-01 0.20348409E+03</pdfrwt>
<pdfrwt beam="2">  1       -2 0.29637994E-02 0.20348409E+03</pdfrwt>
<totfact> 0.28355274E+04</totfact>
</mgrwt>
</event>
<event>
 4    1  0.6853809E-004  0.1902097E+03  0.7818608E-02  0.1158272E+00
         -2   -1    0    0    0  501 -0.00000000000E+00  0.00000000000E+00  0.35957734770E+01  0.35957743812E+01  0.25500000000E-02 0. -1.
          2   -1    0    0  501    0  0.00000000000E+00 -0.00000000000E+00 -0.25154334304E+04  0.25154334304E+04  0.25500000000E-02 0.  1.
    5000001    1    1    2    0    0 -0.50645547416E+02 -0.22761029791E+02 -0.11799633746E+04  0.11837759929E+04  0.77000000000E+02 0.  0.
   -5000001    1    1    2    0    0  0.50645547416E+02  0.22761029791E+02 -0.13318742823E+04  0.13352532119E+04  0.77000000000E+02 0.  0.
<mgrwt>
<rscale>  0 0.19020967E+03</rscale>
<asrwt>0</asrwt>
<pdfrwt beam="1">  1        2 0.35934651E+00 0.19020967E+03</pdfrwt>
<pdfrwt beam="2">  1       -2 0.51368360E-03 0.19020967E+03</pdfrwt>
<totfact> 0.27155858E+04</totfact>
</mgrwt>
</event>
<event>
 4    1  0.6853809E-004  0.1990986E+03  0.7818608E-02  0.1150502E+00
         -2   -1    0    0    0  501 -0.00000000000E+00  0.00000000000E+00  0.25435429004E+02  0.25435429131E+02  0.25500000000E-02 0. -1.
          2   -1    0    0  501    0  0.00000000000E+00 -0.00000000000E+00 -0.38961668646E+03  0.38961668647E+03  0.25500000000E-02 0.  1.
    5000001    1    1    2    0    0  0.57092059654E+02  0.20750233968E+02 -0.14652954934E+03  0.17632352173E+03  0.77000000000E+02 0.  0.
   -5000001    1    1    2    0    0 -0.57092059654E+02 -0.20750233968E+02 -0.21765170812E+03  0.23872859387E+03  0.77000000000E+02 0.  0.
<mgrwt>
<rscale>  0 0.19909864E+03</rscale>
<asrwt>0</asrwt>
<pdfrwt beam="1">  1        2 0.55659523E-01 0.19909864E+03</pdfrwt>
<pdfrwt beam="2">  1       -2 0.36336330E-02 0.19909864E+03</pdfrwt>
<totfact> 0.27341842E+04</totfact>
</mgrwt>
</event>
<event>
 4    1  0.6853809E-004  0.2494305E+03  0.7818608E-02  0.1113665E+00
          2   -1    0    0  501    0  0.00000000000E+00  0.00000000000E+00  0.20283317413E+03  0.20283317414E+03  0.25500000000E-02 0.  1.
         -2   -1    0    0    0  501 -0.00000000000E+00 -0.00000000000E+00 -0.76683153266E+02  0.76683153309E+02  0.25500000000E-02 0. -1.
    5000001    1    1    2    0    0  0.50137091197E+01  0.90096143203E+02  0.19928512252E+02  0.12028548499E+03  0.77000000000E+02 0.  0.
   -5000001    1    1    2    0    0 -0.50137091197E+01 -0.90096143203E+02  0.10622150861E+03  0.15923084246E+03  0.77000000000E+02 0.  0.
<mgrwt>
<rscale>  0 0.24943045E+03</rscale>
<asrwt>0</asrwt>
<pdfrwt beam="1">  1        2 0.28976167E-01 0.24943045E+03</pdfrwt>
<pdfrwt beam="2">  1       -2 0.10954736E-01 0.24943045E+03</pdfrwt>
<totfact> 0.10282135E+04</totfact>
</mgrwt>
</event>
<event>
 4    1  0.6853809E-004  0.2133955E+03  0.7818608E-02  0.1138905E+00
         -2   -1    0    0    0  501 -0.00000000000E+00  0.00000000000E+00  0.28398410977E+01  0.28398422426E+01  0.25500000000E-02 0. -1.
          2   -1    0    0  501    0  0.00000000000E+00 -0.00000000000E+00 -0.40088175673E+04  0.40088175673E+04  0.25500000000E-02 0.  1.
    5000001    1    1    2    0    0  0.53494635609E+02  0.23289042900E+02 -0.11515397719E+04  0.11555850907E+04  0.77000000000E+02 0.  0.
   -5000001    1    1    2    0    0 -0.53494635609E+02 -0.23289042900E+02 -0.28544379543E+04  0.28560723188E+04  0.77000000000E+02 0.  0.
<mgrwt>
<rscale>  0 0.21339547E+03</rscale>
<asrwt>0</asrwt>
<pdfrwt beam="1">  1        2 0.57268460E+00 0.21339547E+03</pdfrwt>
<pdfrwt beam="2">  1       -2 0.40569424E-03 0.21339547E+03</pdfrwt>
<totfact> 0.56405836E+03</totfact>
</mgrwt>
</event>
<event>
 4    1  0.6853809E-004  0.1715318E+03  0.7818608E-02  0.1176260E+00
         -2   -1    0    0    0  501 -0.00000000000E+00  0.00000000000E+00  0.13491709936E+02  0.13491710177E+02  0.25500000000E-02 0. -1.
          2   -1    0    0  501    0  0.00000000000E+00 -0.00000000000E+00 -0.54520796840E+03  0.54520796841E+03  0.25500000000E-02 0.  1.
    5000001    1    1    2    0    0 -0.31508590519E+01  0.36126637432E+02 -0.30028606087E+03  0.31211501117E+03  0.77000000000E+02 0.  0.
   -5000001    1    1    2    0    0  0.31508590519E+01 -0.36126637432E+02 -0.23143019759E+03  0.24658466741E+03  0.77000000000E+02 0.  0.
<mgrwt>
<rscale>  0 0.17153178E+03</rscale>
<asrwt>0</asrwt>
<pdfrwt beam="1">  1        2 0.77886839E-01 0.17153178E+03</pdfrwt>
<pdfrwt beam="2">  1       -2 0.19273875E-02 0.17153178E+03</pdfrwt>
<totfact> 0.47648610E+04</totfact>
</mgrwt>
</event>
<event>
 4    1  0.6853809E-004  0.2494834E+03  0.7818608E-02  0.1113632E+00
          2   -1    0    0  501    0  0.00000000000E+00  0.00000000000E+00  0.16151461411E+02  0.16151461612E+02  0.25500000000E-02 0.  1.
         -2   -1    0    0    0  501 -0.00000000000E+00 -0.00000000000E+00 -0.96341056478E+03  0.96341056478E+03  0.25500000000E-02 0. -1.
    5000001    1    1    2    0    0 -0.57006533212E+02  0.48043773471E+02 -0.22303229976E+03  0.24744768282E+03  0.77000000000E+02 0.  0.
   -5000001    1    1    2    0    0  0.57006533212E+02 -0.48043773471E+02 -0.72422680361E+03  0.73211434357E+03  0.77000000000E+02 0.  0.
<mgrwt>
<rscale>  0 0.24948338E+03</rscale>
<asrwt>0</asrwt>
<pdfrwt beam="1">  1        2 0.23073522E-02 0.24948338E+03</pdfrwt>
<pdfrwt beam="2">  1       -2 0.13763004E+00 0.24948338E+03</pdfrwt>
<totfact> 0.17691940E+03</totfact>
</mgrwt>
</event>
<event>
 4    1  0.6853809E-004  0.4672686E+03  0.7818608E-02  0.1022694E+00
          2   -1    0    0  501    0  0.00000000000E+00  0.00000000000E+00  0.35802313243E+04  0.35802313243E+04  0.25500000000E-02 0. -1.
         -2   -1    0    0    0  501 -0.00000000000E+00 -0.00000000000E+00 -0.15246220260E+02  0.15246220474E+02  0.25500000000E-02 0.  1.
    5000001    1    1    2    0    0 -0.19092197509E+03 -0.18623417603E+02  0.94458713332E+03  0.96693944210E+03  0.77000000000E+02 0.  0.
   -5000001    1    1    2    0    0  0.19092197509E+03  0.18623417603E+02  0.26203979708E+04  0.26285381027E+04  0.77000000000E+02 0.  0.
<mgrwt>
<rscale>  0 0.46726864E+03</rscale>
<asrwt>0</asrwt>
<pdfrwt beam="1">  1        2 0.51146116E+00 0.46726864E+03</pdfrwt>
<pdfrwt beam="2">  1       -2 0.21780334E-02 0.46726864E+03</pdfrwt>
<totfact> 0.86995349E+02</totfact>
</mgrwt>
</event>
<event>
 4    1  0.6853809E-004  0.2166372E+03  0.7818608E-02  0.1136415E+00
          2   -1    0    0  501    0  0.00000000000E+00  0.00000000000E+00  0.11159953675E+03  0.11159953678E+03  0.25500000000E-02 0.  1.
         -2   -1    0    0    0  501 -0.00000000000E+00 -0.00000000000E+00 -0.10513413096E+03  0.10513413099E+03  0.25500000000E-02 0. -1.
    5000001    1    1    2    0    0 -0.47060611964E+02  0.51234602412E+02 -0.27833250606E+02  0.10744010202E+03  0.77000000000E+02 0.  0.
   -5000001    1    1    2    0    0  0.47060611964E+02 -0.51234602412E+02  0.34298656402E+02  0.10929356575E+03  0.77000000000E+02 0.  0.
<mgrwt>
<rscale>  0 0.21663721E+03</rscale>
<asrwt>0</asrwt>
<pdfrwt beam="1">  1        2 0.15942791E-01 0.21663721E+03</pdfrwt>
<pdfrwt beam="2">  1       -2 0.15019162E-01 0.21663721E+03</pdfrwt>
<totfact> 0.12035776E+04</totfact>
</mgrwt>
</event>
<event>
 4    1  0.6853809E-004  0.3392829E+03  0.7818608E-02  0.1067102E+00
         -2   -1    0    0    0  501 -0.00000000000E+00  0.00000000000E+00  0.52170237717E+03  0.52170237718E+03  0.25500000000E-02 0. -1.
          2   -1    0    0  501    0  0.00000000000E+00 -0.00000000000E+00 -0.55162139087E+02  0.55162139146E+02  0.25500000000E-02 0.  1.
    5000001    1    1    2    0    0 -0.11046481069E+03  0.54249238619E+02  0.38250260743E+03  0.40912430750E+03  0.77000000000E+02 0.  0.
   -5000001    1    1    2    0    0  0.11046481069E+03 -0.54249238619E+02  0.84037630650E+02  0.16774020883E+03  0.77000000000E+02 0.  0.
<mgrwt>
<rscale>  0 0.33928289E+03</rscale>
<asrwt>0</asrwt>
<pdfrwt beam="1">  1        2 0.78803055E-02 0.33928289E+03</pdfrwt>
<pdfrwt beam="2">  1       -2 0.74528912E-01 0.33928289E+03</pdfrwt>
<totfact> 0.14511812E+03</totfact>
</mgrwt>
</event>
<event>
 4    1  0.6853809E-004  0.2603283E+03  0.7818608E-02  0.1106946E+00
          2   -1    0    0  501    0  0.00000000000E+00  0.00000000000E+00  0.26389809657E+04  0.26389809657E+04  0.25500000000E-02 0.  1.
         -2   -1    0    0    0  501 -0.00000000000E+00 -0.00000000000E+00 -0.64201675998E+01  0.64201681062E+01  0.25500000000E-02 0. -1.
    5000001    1    1    2    0    0 -0.51135817621E+02 -0.58914463929E+02  0.20296290058E+04  0.20325866985E+04  0.77000000000E+02 0.  0.
   -5000001    1    1    2    0    0  0.51135817621E+02  0.58914463929E+02  0.60293179230E+03  0.61281443527E+03  0.77000000000E+02 0.  0.
<mgrwt>
<rscale>  0 0.26032826E+03</rscale>
<asrwt>0</asrwt>
<pdfrwt beam="1">  1        2 0.37699802E+00 0.26032826E+03</pdfrwt>
<pdfrwt beam="2">  1       -2 0.91716504E-03 0.26032826E+03</pdfrwt>
<totfact> 0.10315003E+04</totfact>
</mgrwt>
</event>
<event>
 4    1  0.6853809E-004  0.1954805E+03  0.7818608E-02  0.1153609E+00
         -2   -1    0    0    0  501 -0.00000000000E+00  0.00000000000E+00  0.40948023562E+01  0.40948031502E+01  0.25500000000E-02 0. -1.
          2   -1    0    0  501    0  0.00000000000E+00 -0.00000000000E+00 -0.23329960861E+04  0.23329960861E+04  0.25500000000E-02 0.  1.
    5000001    1    1    2    0    0 -0.13512451227E+02  0.36879272845E+02 -0.61899498572E+03  0.62500116756E+03  0.77000000000E+02 0.  0.
   -5000001    1    1    2    0    0  0.13512451227E+02 -0.36879272845E+02 -0.17099062981E+04  0.17120897217E+04  0.77000000000E+02 0.  0.
<mgrwt>
<rscale>  0 0.19548052E+03</rscale>
<asrwt>0</asrwt>
<pdfrwt beam="1">  1        2 0.33328430E+00 0.19548052E+03</pdfrwt>
<pdfrwt beam="2">  1       -2 0.58497332E-03 0.19548052E+03</pdfrwt>
<totfact> 0.27736408E+04</totfact>
</mgrwt>
</event>
<event>
 4    1  0.6853809E-004  0.2370120E+03  0.7818608E-02  0.1121800E+00
         -2   -1    0    0    0  501 -0.00000000000E+00  0.00000000000E+00  0.14765668036E+02  0.14765668257E+02  0.25500000000E-02 0. -1.
          2   -1    0    0  501    0  0.00000000000E+00 -0.00000000000E+00 -0.95110271290E+03  0.95110271290E+03  0.25500000000E-02 0.  1.
    5000001    1    1    2    0    0  0.64884530340E+02 -0.56153815547E+02 -0.35645975434E+03  0.37464090773E+03  0.77000000000E+02 0.  0.
   -5000001    1    1    2    0    0 -0.64884530340E+02  0.56153815547E+02 -0.57987729052E+03  0.59122747343E+03  0.77000000000E+02 0.  0.
<mgrwt>
<rscale>  0 0.23701196E+03</rscale>
<asrwt>0</asrwt>
<pdfrwt beam="1">  1        2 0.13587178E+00 0.23701196E+03</pdfrwt>
<pdfrwt beam="2">  1       -2 0.21093818E-02 0.23701196E+03</pdfrwt>
<totfact> 0.22004274E+04</totfact>
</mgrwt>
</event>
<event>
 4    1  0.6853809E-004  0.1890272E+03  0.7818608E-02  0.1159342E+00
          2   -1    0    0  501    0  0.00000000000E+00  0.00000000000E+00  0.65744916513E+01  0.65744921459E+01  0.25500000000E-02 0.  1.
         -2   -1    0    0    0  501 -0.00000000000E+00 -0.00000000000E+00 -0.13587087186E+04  0.13587087186E+04  0.25500000000E-02 0. -1.
    5000001    1    1    2    0    0  0.48442957419E+02  0.25128512078E+02 -0.63948209270E+03  0.64640893336E+03  0.77000000000E+02 0.  0.
   -5000001    1    1    2    0    0 -0.48442957419E+02 -0.25128512078E+02 -0.71265213429E+03  0.71887427743E+03  0.77000000000E+02 0.  0.
<mgrwt>
<rscale>  0 0.18902719E+03</rscale>
<asrwt>0</asrwt>
<pdfrwt beam="1">  1        2 0.93921399E-03 0.18902719E+03</pdfrwt>
<pdfrwt beam="2">  1       -2 0.19410107E+00 0.18902719E+03</pdfrwt>
<totfact> 0.24268026E+03</totfact>
</mgrwt>
</event>
<event>
 4    1  0.6853809E-004  0.3297102E+03  0.7818608E-02  0.1071265E+00
          2   -1    0    0  501    0  0.00000000000E+00  0.00000000000E+00  0.13793335065E+04  0.13793335065E+04  0.25500000000E-02 0.  1.
         -2   -1    0    0    0  501 -0.00000000000E+00 -0.00000000000E+00 -0.19703145888E+02  0.19703146053E+02  0.25500000000E-02 0. -1.
    5000001    1    1    2    0    0 -0.34170397033E+02  0.14093095018E+03  0.74261796111E+03  0.76055215792E+03  0.77000000000E+02 0.  0.
   -5000001    1    1    2    0    0  0.34170397033E+02 -0.14093095018E+03  0.61701239953E+03  0.63848449466E+03  0.77000000000E+02 0.  0.
<mgrwt>
<rscale>  0 0.32971023E+03</rscale>
<asrwt>0</asrwt>
<pdfrwt beam="1">  1        2 0.19704761E+00 0.32971023E+03</pdfrwt>
<pdfrwt beam="2">  1       -2 0.28147356E-02 0.32971023E+03</pdfrwt>
<totfact> 0.84116392E+03</totfact>
</mgrwt>
</event>
<event>
 4    1  0.6853809E-004  0.1797095E+03  0.7818608E-02  0.1168084E+00
         -2   -1    0    0    0  501 -0.00000000000E+00  0.00000000000E+00  0.24908440957E+03  0.24908440958E+03  0.25500000000E-02 0. -1.
          2   -1    0    0  501    0  0.00000000000E+00 -0.00000000000E+00 -0.32414217544E+02  0.32414217644E+02  0.25500000000E-02 0.  1.
    5000001    1    1    2    0    0  0.39935028310E+02 -0.18313041818E+02  0.13128725571E+03  0.15841564790E+03  0.77000000000E+02 0.  0.
   -5000001    1    1    2    0    0 -0.39935028310E+02  0.18313041818E+02  0.85382936311E+02  0.12308297933E+03  0.77000000000E+02 0.  0.
<mgrwt>
<rscale>  0 0.17970950E+03</rscale>
<asrwt>0</asrwt>
<pdfrwt beam="1">  1        2 0.46306022E-02 0.17970950E+03</pdfrwt>
<pdfrwt beam="2">  1       -2 0.35583489E-01 0.17970950E+03</pdfrwt>
<totfact> 0.12426842E+04</totfact>
</mgrwt>
</event>
<event>
 4    1  0.6853809E-004  0.3395382E+03  0.7818608E-02  0.1066993E+00
          2   -1    0    0  501    0  0.00000000000E+00  0.00000000000E+00  0.59929227852E+03  0.59929227852E+03  0.25500000000E-02 0.  1.
         -2   -1    0    0    0  501 -0.00000000000E+00 -0.00000000000E+00 -0.48092636300E+02  0.48092636368E+02  0.25500000000E-02 0. -1.
    5000001    1    1    2    0    0 -0.89542673688E+02 -0.10404615771E+03  0.39692491544E+03  0.42699166484E+03  0.77000000000E+02 0.  0.
   -5000001    1    1    2    0    0  0.89542673688E+02  0.10404615771E+03  0.15427472677E+03  0.22039325005E+03  0.77000000000E+02 0.  0.
<mgrwt>
<rscale>  0 0.33953819E+03</rscale>
<asrwt>0</asrwt>
<pdfrwt beam="1">  1        2 0.85613177E-01 0.33953819E+03</pdfrwt>
<pdfrwt beam="2">  1       -2 0.68703771E-02 0.33953819E+03</pdfrwt>
<totfact> 0.66336615E+03</totfact>
</mgrwt>
</event>
<event>
 4    1  0.6853809E-004  0.2573213E+03  0.7818608E-02  0.1108763E+00
          2   -1    0    0  501    0  0.00000000000E+00  0.00000000000E+00  0.58226433490E+02  0.58226433546E+02  0.25500000000E-02 0.  1.
         -2   -1    0    0    0  501 -0.00000000000E+00 -0.00000000000E+00 -0.28429624866E+03  0.28429624868E+03  0.25500000000E-02 0. -1.
    5000001    1    1    2    0    0 -0.68483144692E+02  0.62740632678E+02 -0.53532264292E+02  0.13198875488E+03  0.77000000000E+02 0.  0.
   -5000001    1    1    2    0    0  0.68483144692E+02 -0.62740632678E+02 -0.17253755088E+03  0.21053392734E+03  0.77000000000E+02 0.  0.
<mgrwt>
<rscale>  0 0.25732125E+03</rscale>
<asrwt>0</asrwt>
<pdfrwt beam="1">  1        2 0.83180621E-02 0.25732125E+03</pdfrwt>
<pdfrwt beam="2">  1       -2 0.40613749E-01 0.25732125E+03</pdfrwt>
<totfact> 0.46382777E+03</totfact>
</mgrwt>
</event>
<event>
 4    1  0.6853809E-004  0.2504823E+03  0.7818608E-02  0.1113000E+00
         -2   -1    0    0    0  501 -0.00000000000E+00  0.00000000000E+00  0.19315592845E+02  0.19315593013E+02  0.25500000000E-02 0. -1.
          2   -1    0    0  501    0  0.00000000000E+00 -0.00000000000E+00 -0.81205631431E+03  0.81205631431E+03  0.25500000000E-02 0.  1.
    5000001    1    1    2    0    0 -0.47592545306E+02  0.84356401861E+02 -0.46066953511E+03  0.47699735165E+03  0.77000000000E+02 0.  0.
   -5000001    1    1    2    0    0  0.47592545306E+02 -0.84356401861E+02 -0.33207118636E+03  0.35437455568E+03  0.77000000000E+02 0.  0.
<mgrwt>
<rscale>  0 0.25048233E+03</rscale>
<asrwt>0</asrwt>
<pdfrwt beam="1">  1        2 0.11600802E+00 0.25048233E+03</pdfrwt>
<pdfrwt beam="2">  1       -2 0.27593709E-02 0.25048233E+03</pdfrwt>
<totfact> 0.18176451E+04</totfact>
</mgrwt>
</event>
<event>
 4    1  0.6853809E-004  0.2397541E+03  0.7818608E-02  0.1119957E+00
         -2   -1    0    0    0  501 -0.00000000000E+00  0.00000000000E+00  0.42306409709E+02  0.42306409786E+02  0.25500000000E-02 0. -1.
          2   -1    0    0  501    0  0.00000000000E+00 -0.00000000000E+00 -0.33967683351E+03  0.33967683352E+03  0.25500000000E-02 0.  1.
    5000001    1    1    2    0    0  0.44774839216E+02 -0.77794206353E+02 -0.11743262713E+03  0.16666177331E+03  0.77000000000E+02 0.  0.
   -5000001    1    1    2    0    0 -0.44774839216E+02  0.77794206353E+02 -0.17993779667E+03  0.21532146999E+03  0.77000000000E+02 0.  0.
<mgrwt>
<rscale>  0 0.23975410E+03</rscale>
<asrwt>0</asrwt>
<pdfrwt beam="1">  1        2 0.48525260E-01 0.23975410E+03</pdfrwt>
<pdfrwt beam="2">  1       -2 0.60437730E-02 0.23975410E+03</pdfrwt>
<totfact> 0.14882565E+04</totfact>
</mgrwt>
</event>
<event>
 4    1  0.6853809E-004  0.1969951E+03  0.7818608E-02  0.1152299E+00
          2   -1    0    0  501    0  0.00000000000E+00  0.00000000000E+00  0.72651842772E+03  0.72651842772E+03  0.25500000000E-02 0.  1.
         -2   -1    0    0    0  501 -0.00000000000E+00 -0.00000000000E+00 -0.13353776828E+02  0.13353777071E+02  0.25500000000E-02 0. -1.
    5000001    1    1    2    0    0 -0.37673431278E+02  0.16729063625E+02  0.18555499675E+03  0.20508243663E+03  0.77000000000E+02 0.  0.
   -5000001    1    1    2    0    0  0.37673431278E+02 -0.16729063625E+02  0.52760965414E+03  0.53478976816E+03  0.77000000000E+02 0.  0.
<mgrwt>
<rscale>  0 0.19699508E+03</rscale>
<asrwt>0</asrwt>
<pdfrwt beam="1">  1        2 0.10378836E+00 0.19699508E+03</pdfrwt>
<pdfrwt beam="2">  1       -2 0.19076821E-02 0.19699508E+03</pdfrwt>
<totfact> 0.35255782E+04</totfact>
</mgrwt>
</event>
<event>
 4    1  0.6853809E-004  0.1897247E+03  0.7818608E-02  0.1158710E+00
          2   -1    0    0  501    0  0.00000000000E+00  0.00000000000E+00  0.25358273288E+03  0.25358273289E+03  0.25500000000E-02 0.  1.
         -2   -1    0    0    0  501 -0.00000000000E+00 -0.00000000000E+00 -0.35486910682E+02  0.35486910773E+02  0.25500000000E-02 0. -1.
    5000001    1    1    2    0    0  0.33348570827E+02 -0.40254561276E+02  0.81064944068E+02  0.12342237251E+03  0.77000000000E+02 0.  0.
   -5000001    1    1    2    0    0 -0.33348570827E+02  0.40254561276E+02  0.13703087813E+03  0.16564727115E+03  0.77000000000E+02 0.  0.
<mgrwt>
<rscale>  0 0.18972472E+03</rscale>
<asrwt>0</asrwt>
<pdfrwt beam="1">  1        2 0.36226107E-01 0.18972472E+03</pdfrwt>
<pdfrwt beam="2">  1       -2 0.50695583E-02 0.18972472E+03</pdfrwt>
<totfact> 0.26169452E+04</totfact>
</mgrwt>
</event>
<event>
 4    1  0.6853809E-004  0.2289840E+03  0.7818608E-02  0.1127357E+00
         -2   -1    0    0    0  501 -0.00000000000E+00  0.00000000000E+00  0.21481466006E+02  0.21481466158E+02  0.25500000000E-02 0. -1.
          2   -1    0    0  501    0  0.00000000000E+00 -0.00000000000E+00 -0.61022004170E+03  0.61022004171E+03  0.25500000000E-02 0.  1.
    5000001    1    1    2    0    0 -0.13157150420E+02  0.58243816607E+02 -0.12852561866E+03  0.16128635228E+03  0.77000000000E+02 0.  0.
   -5000001    1    1    2    0    0  0.13157150420E+02 -0.58243816607E+02 -0.46021295704E+03  0.47041515558E+03  0.77000000000E+02 0.  0.
<mgrwt>
<rscale>  0 0.22898403E+03</rscale>
<asrwt>0</asrwt>
<pdfrwt beam="1">  1        2 0.87174281E-01 0.22898403E+03</pdfrwt>
<pdfrwt beam="2">  1       -2 0.30687813E-02 0.22898403E+03</pdfrwt>
<totfact> 0.21681827E+04</totfact>
</mgrwt>
</event>
<event>
 4    1  0.6853809E-004  0.2224116E+03  0.7818608E-02  0.1132098E+00
          2   -1    0    0  501    0  0.00000000000E+00  0.00000000000E+00  0.38511549010E+03  0.38511549011E+03  0.25500000000E-02 0.  1.
         -2   -1    0    0    0  501 -0.00000000000E+00 -0.00000000000E+00 -0.32111737121E+02  0.32111737222E+02  0.25500000000E-02 0. -1.
    5000001    1    1    2    0    0  0.21667135153E+02 -0.76280453052E+02  0.19944306546E+03  0.22802348262E+03  0.77000000000E+02 0.  0.
   -5000001    1    1    2    0    0 -0.21667135153E+02  0.76280453052E+02  0.15356068752E+03  0.18920374472E+03  0.77000000000E+02 0.  0.
<mgrwt>
<rscale>  0 0.22241158E+03</rscale>
<asrwt>0</asrwt>
<pdfrwt beam="1">  1        2 0.55016501E-01 0.22241158E+03</pdfrwt>
<pdfrwt beam="2">  1       -2 0.45873909E-02 0.22241158E+03</pdfrwt>
<totfact> 0.19679718E+04</totfact>
</mgrwt>
</event>
<event>
 4    1  0.6853809E-004  0.3275929E+03  0.7818608E-02  0.1072207E+00
          2   -1    0    0  501    0  0.00000000000E+00  0.00000000000E+00  0.31432790186E+04  0.31432790186E+04  0.25500000000E-02 0.  1.
         -2   -1    0    0    0  501 -0.00000000000E+00 -0.00000000000E+00 -0.85354430605E+01  0.85354434414E+01  0.25500000000E-02 0. -1.
    5000001    1    1    2    0    0  0.56200760583E+02  0.61392509836E+02  0.27046494936E+04  0.27070252029E+04  0.77000000000E+02 0.  0.
   -5000001    1    1    2    0    0 -0.56200760583E+02 -0.61392509836E+02  0.43009408194E+03  0.44478925918E+03  0.77000000000E+02 0.  0.
<mgrwt>
<rscale>  0 0.32759292E+03</rscale>
<asrwt>0</asrwt>
<pdfrwt beam="1">  1        2 0.44904106E+00 0.32759292E+03</pdfrwt>
<pdfrwt beam="2">  1       -2 0.12193458E-02 0.32759292E+03</pdfrwt>
<totfact> 0.37011771E+03</totfact>
</mgrwt>
</event>
<event>
 4    1  0.6853809E-004  0.1646984E+03  0.7818608E-02  0.1183492E+00
          2   -1    0    0  501    0  0.00000000000E+00  0.00000000000E+00  0.50434909353E+03  0.50434909354E+03  0.25500000000E-02 0.  1.
         -2   -1    0    0    0  501 -0.00000000000E+00 -0.00000000000E+00 -0.13445823090E+02  0.13445823332E+02  0.25500000000E-02 0. -1.
    5000001    1    1    2    0    0 -0.27817155303E+02  0.54994396593E+01  0.22359062461E+03  0.23817179803E+03  0.77000000000E+02 0.  0.
   -5000001    1    1    2    0    0  0.27817155303E+02 -0.54994396593E+01  0.26731264583E+03  0.27962311884E+03  0.77000000000E+02 0.  0.
<mgrwt>
<rscale>  0 0.16469838E+03</rscale>
<asrwt>0</asrwt>
<pdfrwt beam="1">  1        2 0.72049866E-01 0.16469838E+03</pdfrwt>
<pdfrwt beam="2">  1       -2 0.19208320E-02 0.16469838E+03</pdfrwt>
<totfact> 0.51962758E+04</totfact>
</mgrwt>
</event>
<event>
 4    1  0.6853809E-004  0.1808195E+03  0.7818608E-02  0.1167012E+00
          2   -1    0    0  501    0  0.00000000000E+00  0.00000000000E+00  0.34802737906E+02  0.34802737999E+02  0.25500000000E-02 0.  1.
         -2   -1    0    0    0  501 -0.00000000000E+00 -0.00000000000E+00 -0.23486440137E+03  0.23486440139E+03  0.25500000000E-02 0. -1.
    5000001    1    1    2    0    0 -0.73838599107E+01 -0.45681220304E+02 -0.11521263165E+03  0.14609670006E+03  0.77000000000E+02 0.  0.
   -5000001    1    1    2    0    0  0.73838599107E+01  0.45681220304E+02 -0.84849031815E+02  0.12357043933E+03  0.77000000000E+02 0.  0.
<mgrwt>
<rscale>  0 0.18081951E+03</rscale>
<asrwt>0</asrwt>
<pdfrwt beam="1">  1        2 0.49718198E-02 0.18081951E+03</pdfrwt>
<pdfrwt beam="2">  1       -2 0.33552056E-01 0.18081951E+03</pdfrwt>
<totfact> 0.12622714E+04</totfact>
</mgrwt>
</event>
<event>
 4    1  0.6853809E-004  0.1999494E+03  0.7818608E-02  0.1149782E+00
         -2   -1    0    0    0  501 -0.00000000000E+00  0.00000000000E+00  0.53514624385E+01  0.53514630460E+01  0.25500000000E-02 0. -1.
          2   -1    0    0  501    0  0.00000000000E+00 -0.00000000000E+00 -0.18677032506E+04  0.18677032506E+04  0.25500000000E-02 0.  1.
    5000001    1    1    2    0    0  0.45890495490E-01 -0.47785221443E+02 -0.53567555689E+03  0.54328696997E+03  0.77000000000E+02 0.  0.
   -5000001    1    1    2    0    0 -0.45890495490E-01  0.47785221443E+02 -0.13266762313E+04  0.13297677437E+04  0.77000000000E+02 0.  0.
<mgrwt>
<rscale>  0 0.19994944E+03</rscale>
<asrwt>0</asrwt>
<pdfrwt beam="1">  1        2 0.26681433E+00 0.19994944E+03</pdfrwt>
<pdfrwt beam="2">  1       -2 0.76449587E-03 0.19994944E+03</pdfrwt>
<totfact> 0.31739167E+04</totfact>
</mgrwt>
</event>
<event>
 4    1  0.6853809E-004  0.1922611E+03  0.7818608E-02  0.1156438E+00
          2   -1    0    0  501    0  0.00000000000E+00  0.00000000000E+00  0.13793992011E+04  0.13793992011E+04  0.25500000000E-02 0.  1.
         -2   -1    0    0    0  501 -0.00000000000E+00 -0.00000000000E+00 -0.66993519778E+01  0.66993524631E+01  0.25500000000E-02 0. -1.
    5000001    1    1    2    0    0 -0.13871115088E+02  0.55127627872E+02  0.62161800205E+03  0.62894308459E+03  0.77000000000E+02 0.  0.
   -5000001    1    1    2    0    0  0.13871115088E+02 -0.55127627872E+02  0.75108184705E+03  0.75715546894E+03  0.77000000000E+02 0.  0.
<mgrwt>
<rscale>  0 0.19226108E+03</rscale>
<asrwt>0</asrwt>
<pdfrwt beam="1">  1        2 0.19705711E+00 0.19226108E+03</pdfrwt>
<pdfrwt beam="2">  1       -2 0.95704990E-03 0.19226108E+03</pdfrwt>
<totfact> 0.39880246E+04</totfact>
</mgrwt>
</event>
<event>
 4    1  0.6853809E-004  0.5700635E+03  0.7818608E-02  0.9969538E-01
         -2   -1    0    0    0  501 -0.00000000000E+00  0.00000000000E+00  0.88340015365E+02  0.88340015402E+02  0.25500000000E-02 0. -1.
          2   -1    0    0  501    0  0.00000000000E+00 -0.00000000000E+00 -0.91966356441E+03  0.91966356442E+03  0.25500000000E-02 0.  1.
    5000001    1    1    2    0    0 -0.18660043345E+03 -0.19792804375E+03 -0.47987705641E+03  0.55696159790E+03  0.77000000000E+02 0.  0.
   -5000001    1    1    2    0    0  0.18660043345E+03  0.19792804375E+03 -0.35144649264E+03  0.45104198192E+03  0.77000000000E+02 0.  0.
<mgrwt>
<rscale>  0 0.57006348E+03</rscale>
<asrwt>0</asrwt>
<pdfrwt beam="1">  1        2 0.13138050E+00 0.57006348E+03</pdfrwt>
<pdfrwt beam="2">  1       -2 0.12620003E-01 0.57006348E+03</pdfrwt>
<totfact> 0.14825834E+03</totfact>
</mgrwt>
</event>
<event>
 4    1  0.6853809E-004  0.3716324E+03  0.7818608E-02  0.1054071E+00
         -2   -1    0    0    0  501 -0.00000000000E+00  0.00000000000E+00  0.22953267809E+02  0.22953267951E+02  0.25500000000E-02 0. -1.
          2   -1    0    0  501    0  0.00000000000E+00 -0.00000000000E+00 -0.15042593188E+04  0.15042593188E+04  0.25500000000E-02 0.  1.
    5000001    1    1    2    0    0  0.12826131747E+03  0.98615809872E+02 -0.94292180420E+03  0.95979506789E+03  0.77000000000E+02 0.  0.
   -5000001    1    1    2    0    0 -0.12826131747E+03 -0.98615809872E+02 -0.53838424679E+03  0.56741751885E+03  0.77000000000E+02 0.  0.
<mgrwt>
<rscale>  0 0.37163244E+03</rscale>
<asrwt>0</asrwt>
<pdfrwt beam="1">  1        2 0.21489413E+00 0.37163244E+03</pdfrwt>
<pdfrwt beam="2">  1       -2 0.32790392E-02 0.37163244E+03</pdfrwt>
<totfact> 0.57772461E+03</totfact>
</mgrwt>
</event>
<event>
 4    1  0.6853809E-004  0.3821723E+03  0.7818608E-02  0.1050134E+00
          2   -1    0    0  501    0  0.00000000000E+00  0.00000000000E+00  0.37059697197E+03  0.37059697198E+03  0.25500000000E-02 0.  1.
         -2   -1    0    0    0  501 -0.00000000000E+00 -0.00000000000E+00 -0.98527289437E+02  0.98527289470E+02  0.25500000000E-02 0. -1.
    5000001    1    1    2    0    0  0.10734153080E+03  0.13497849158E+03  0.10038350608E+03  0.21388605779E+03  0.77000000000E+02 0.  0.
   -5000001    1    1    2    0    0 -0.10734153080E+03 -0.13497849158E+03  0.17168617646E+03  0.25523820366E+03  0.77000000000E+02 0.  0.
<mgrwt>
<rscale>  0 0.38217229E+03</rscale>
<asrwt>0</asrwt>
<pdfrwt beam="1">  1        2 0.52942425E-01 0.38217229E+03</pdfrwt>
<pdfrwt beam="2">  1       -2 0.14075327E-01 0.38217229E+03</pdfrwt>
<totfact> 0.36039597E+03</totfact>
</mgrwt>
</event>
<event>
 4    1  0.6853809E-004  0.4613631E+03  0.7818608E-02  0.1024387E+00
          2   -1    0    0  501    0  0.00000000000E+00  0.00000000000E+00  0.66273841221E+03  0.66273841221E+03  0.25500000000E-02 0.  1.
         -2   -1    0    0    0  501 -0.00000000000E+00 -0.00000000000E+00 -0.80294092380E+02  0.80294092420E+02  0.25500000000E-02 0. -1.
    5000001    1    1    2    0    0  0.20817802744E+03  0.62390101222E+02  0.30309674740E+03  0.38082444003E+03  0.77000000000E+02 0.  0.
   -5000001    1    1    2    0    0 -0.20817802744E+03 -0.62390101222E+02  0.27934757243E+03  0.36220806460E+03  0.77000000000E+02 0.  0.
<mgrwt>
<rscale>  0 0.46136311E+03</rscale>
<asrwt>0</asrwt>
<pdfrwt beam="1">  1        2 0.94676916E-01 0.46136311E+03</pdfrwt>
<pdfrwt beam="2">  1       -2 0.11470585E-01 0.46136311E+03</pdfrwt>
<totfact> 0.26230034E+03</totfact>
</mgrwt>
</event>
<event>
 4    1  0.6853809E-004  0.1942144E+03  0.7818608E-02  0.1154714E+00
         -2   -1    0    0    0  501 -0.00000000000E+00  0.00000000000E+00  0.24075968903E+02  0.24075969038E+02  0.25500000000E-02 0. -1.
          2   -1    0    0  501    0  0.00000000000E+00 -0.00000000000E+00 -0.39166885277E+03  0.39166885278E+03  0.25500000000E-02 0.  1.
    5000001    1    1    2    0    0  0.53493669411E+02  0.23244076269E+02 -0.16250291300E+03  0.18904511759E+03  0.77000000000E+02 0.  0.
   -5000001    1    1    2    0    0 -0.53493669411E+02 -0.23244076269E+02 -0.20508997086E+03  0.22669970423E+03  0.77000000000E+02 0.  0.
<mgrwt>
<rscale>  0 0.19421439E+03</rscale>
<asrwt>0</asrwt>
<pdfrwt beam="1">  1        2 0.55952689E-01 0.19421439E+03</pdfrwt>
<pdfrwt beam="2">  1       -2 0.34394244E-02 0.19421439E+03</pdfrwt>
<totfact> 0.29446039E+04</totfact>
</mgrwt>
</event>
<event>
 4    1  0.6853809E-004  0.1873358E+03  0.7818608E-02  0.1160886E+00
          2   -1    0    0  501    0  0.00000000000E+00  0.00000000000E+00  0.22109774002E+02  0.22109774149E+02  0.25500000000E-02 0.  1.
         -2   -1    0    0    0  501 -0.00000000000E+00 -0.00000000000E+00 -0.39682352977E+03  0.39682352978E+03  0.25500000000E-02 0. -1.
    5000001    1    1    2    0    0  0.44160425183E+02 -0.26483295027E+02 -0.15627591515E+03  0.18166636927E+03  0.77000000000E+02 0.  0.
   -5000001    1    1    2    0    0 -0.44160425183E+02  0.26483295027E+02 -0.21843784062E+03  0.23726693465E+03  0.77000000000E+02 0.  0.
<mgrwt>
<rscale>  0 0.18733583E+03</rscale>
<asrwt>0</asrwt>
<pdfrwt beam="1">  1        2 0.31585394E-02 0.18733583E+03</pdfrwt>
<pdfrwt beam="2">  1       -2 0.56689071E-01 0.18733583E+03</pdfrwt>
<totfact> 0.84000490E+03</totfact>
</mgrwt>
</event>
<event>
 4    1  0.6853809E-004  0.2693835E+03  0.7818608E-02  0.1101633E+00
         -2   -1    0    0    0  501 -0.00000000000E+00  0.00000000000E+00  0.27605662735E+02  0.27605662853E+02  0.25500000000E-02 0. -1.
          2   -1    0    0  501    0  0.00000000000E+00 -0.00000000000E+00 -0.65717899733E+03  0.65717899734E+03  0.25500000000E-02 0.  1.
    5000001    1    1    2    0    0  0.44653260162E+02  0.95848573810E+02 -0.23312415248E+03  0.26731392260E+03  0.77000000000E+02 0.  0.
   -5000001    1    1    2    0    0 -0.44653260162E+02 -0.95848573810E+02 -0.39644918212E+03  0.41747073759E+03  0.77000000000E+02 0.  0.
<mgrwt>
<rscale>  0 0.26938346E+03</rscale>
<asrwt>0</asrwt>
<pdfrwt beam="1">  1        2 0.93882704E-01 0.26938346E+03</pdfrwt>
<pdfrwt beam="2">  1       -2 0.39436665E-02 0.26938346E+03</pdfrwt>
<totfact> 0.13804896E+04</totfact>
</mgrwt>
</event>
<event>
 4    1  0.6853809E-004  0.2264777E+03  0.7818608E-02  0.1129144E+00
         -2   -1    0    0    0  501 -0.00000000000E+00  0.00000000000E+00  0.58101631133E+03  0.58101631134E+03  0.25500000000E-02 0. -1.
          2   -1    0    0  501    0  0.00000000000E+00 -0.00000000000E+00 -0.22070015784E+02  0.22070015931E+02  0.25500000000E-02 0.  1.
    5000001    1    1    2    0    0  0.16277214227E+02 -0.81343650235E+02  0.28881306706E+03  0.31019949200E+03  0.77000000000E+02 0.  0.
   -5000001    1    1    2    0    0 -0.16277214227E+02  0.81343650235E+02  0.27013322849E+03  0.29288683527E+03  0.77000000000E+02 0.  0.
<mgrwt>
<rscale>  0 0.22647772E+03</rscale>
<asrwt>0</asrwt>
<pdfrwt beam="1">  1        2 0.31528597E-02 0.22647772E+03</pdfrwt>
<pdfrwt beam="2">  1       -2 0.83002322E-01 0.22647772E+03</pdfrwt>
<totfact> 0.37901474E+03</totfact>
</mgrwt>
</event>
<event>
 4    1  0.6853809E-004  0.4160691E+03  0.7818608E-02  0.1038353E+00
          2   -1    0    0  501    0  0.00000000000E+00  0.00000000000E+00  0.59279579146E+03  0.59279579147E+03  0.25500000000E-02 0.  1.
         -2   -1    0    0    0  501 -0.00000000000E+00 -0.00000000000E+00 -0.73007209842E+02  0.73007209887E+02  0.25500000000E-02 0. -1.
    5000001    1    1    2    0    0 -0.11726089263E+03  0.14257013501E+03  0.16834526022E+03  0.26142969796E+03  0.77000000000E+02 0.  0.
   -5000001    1    1    2    0    0  0.11726089263E+03 -0.14257013501E+03  0.35144332140E+03  0.40437330339E+03  0.77000000000E+02 0.  0.
<mgrwt>
<rscale>  0 0.41606907E+03</rscale>
<asrwt>0</asrwt>
<pdfrwt beam="1">  1        2 0.84685119E-01 0.41606907E+03</pdfrwt>
<pdfrwt beam="2">  1       -2 0.10429601E-01 0.41606907E+03</pdfrwt>
<totfact> 0.34849131E+03</totfact>
</mgrwt>
</event>
<event>
 4    1  0.6853809E-004  0.1936634E+03  0.7818608E-02  0.1155198E+00
         -2   -1    0    0    0  501 -0.00000000000E+00  0.00000000000E+00  0.74689812864E+01  0.74689817217E+01  0.25500000000E-02 0. -1.
          2   -1    0    0  501    0  0.00000000000E+00 -0.00000000000E+00 -0.12553751033E+04  0.12553751033E+04  0.25500000000E-02 0.  1.
    5000001    1    1    2    0    0  0.38811728207E+02  0.25889074320E+02 -0.39149890878E+03  0.40171755001E+03  0.77000000000E+02 0.  0.
   -5000001    1    1    2    0    0 -0.38811728207E+02 -0.25889074320E+02 -0.85640721328E+03  0.86112653505E+03  0.77000000000E+02 0.  0.
<mgrwt>
<rscale>  0 0.19366335E+03</rscale>
<asrwt>0</asrwt>
<pdfrwt beam="1">  1        2 0.17933917E+00 0.19366335E+03</pdfrwt>
<pdfrwt beam="2">  1       -2 0.10669982E-02 0.19366335E+03</pdfrwt>
<totfact> 0.39551052E+04</totfact>
</mgrwt>
</event>
<event>
 4    1  0.6853809E-004  0.3162588E+03  0.7818608E-02  0.1077384E+00
         -2   -1    0    0    0  501 -0.00000000000E+00  0.00000000000E+00  0.26699604366E+02  0.26699604488E+02  0.25500000000E-02 0. -1.
          2   -1    0    0  501    0  0.00000000000E+00 -0.00000000000E+00 -0.93652700540E+03  0.93652700541E+03  0.25500000000E-02 0.  1.
    5000001    1    1    2    0    0  0.13207278686E+03 -0.29572284203E+02 -0.37105150692E+03  0.40240025075E+03  0.77000000000E+02 0.  0.
   -5000001    1    1    2    0    0 -0.13207278686E+03  0.29572284203E+02 -0.53877589412E+03  0.56082635914E+03  0.77000000000E+02 0.  0.
<mgrwt>
<rscale>  0 0.31625876E+03</rscale>
<asrwt>0</asrwt>
<pdfrwt beam="1">  1        2 0.13378955E+00 0.31625876E+03</pdfrwt>
<pdfrwt beam="2">  1       -2 0.38142298E-02 0.31625876E+03</pdfrwt>
<totfact> 0.94193146E+03</totfact>
</mgrwt>
</event>
<event>
 4    1  0.6853809E-004  0.3408451E+03  0.7818608E-02  0.1066437E+00
          2   -1    0    0  501    0  0.00000000000E+00  0.00000000000E+00  0.27767687929E+03  0.27767687930E+03  0.25500000000E-02 0.  1.
         -2   -1    0    0    0  501 -0.00000000000E+00 -0.00000000000E+00 -0.10459580959E+03  0.10459580962E+03  0.25500000000E-02 0. -1.
    5000001    1    1    2    0    0  0.15933844270E+02 -0.13647524089E+03  0.13550003401E+02  0.15808852381E+03  0.77000000000E+02 0.  0.
   -5000001    1    1    2    0    0 -0.15933844270E+02  0.13647524089E+03  0.15953106630E+03  0.22418416511E+03  0.77000000000E+02 0.  0.
<mgrwt>
<rscale>  0 0.34084506E+03</rscale>
<asrwt>0</asrwt>
<pdfrwt beam="1">  1        2 0.39668125E-01 0.34084506E+03</pdfrwt>
<pdfrwt beam="2">  1       -2 0.14942259E-01 0.34084506E+03</pdfrwt>
<totfact> 0.44550063E+03</totfact>
</mgrwt>
</event>
<event>
 4    1  0.6853809E-004  0.5905752E+03  0.7818608E-02  0.9925155E-01
          2   -1    0    0  501    0  0.00000000000E+00  0.00000000000E+00  0.42486146805E+02  0.42486146882E+02  0.25500000000E-02 0.  1.
         -2   -1    0    0    0  501 -0.00000000000E+00 -0.00000000000E+00 -0.20523104850E+04  0.20523104850E+04  0.25500000000E-02 0. -1.
    5000001    1    1    2    0    0  0.11255525385E+03 -0.18279909152E+03 -0.16702225265E+04  0.16857213533E+04  0.77000000000E+02 0.  0.
   -5000001    1    1    2    0    0 -0.11255525385E+03  0.18279909152E+03 -0.33960181176E+03  0.40907527862E+03  0.77000000000E+02 0.  0.
<mgrwt>
<rscale>  0 0.59057519E+03</rscale>
<asrwt>0</asrwt>
<pdfrwt beam="1">  1        2 0.60694508E-02 0.59057519E+03</pdfrwt>
<pdfrwt beam="2">  1       -2 0.29318715E+00 0.59057519E+03</pdfrwt>
<totfact> 0.47052087E+01</totfact>
</mgrwt>
</event>
<event>
 4    1  0.6853809E-004  0.2393813E+03  0.7818608E-02  0.1120206E+00
          2   -1    0    0  501    0  0.00000000000E+00  0.00000000000E+00  0.23231717670E+03  0.23231717671E+03  0.25500000000E-02 0.  1.
         -2   -1    0    0    0  501 -0.00000000000E+00 -0.00000000000E+00 -0.61665038789E+02  0.61665038842E+02  0.25500000000E-02 0. -1.
    5000001    1    1    2    0    0  0.71071661184E+02  0.38555437894E+02  0.32373440998E+02  0.11625292468E+03  0.77000000000E+02 0.  0.
   -5000001    1    1    2    0    0 -0.71071661184E+02 -0.38555437894E+02  0.13827869691E+03  0.17772929087E+03  0.77000000000E+02 0.  0.
<mgrwt>
<rscale>  0 0.23938127E+03</rscale>
<asrwt>0</asrwt>
<pdfrwt beam="1">  1        2 0.33188168E-01 0.23938127E+03</pdfrwt>
<pdfrwt beam="2">  1       -2 0.88092914E-02 0.23938127E+03</pdfrwt>
<totfact> 0.12494625E+04</totfact>
</mgrwt>
</event>
<event>
 4    1  0.6853809E-004  0.2220218E+03  0.7818608E-02  0.1132385E+00
          2   -1    0    0  501    0  0.00000000000E+00  0.00000000000E+00  0.72959494038E+02  0.72959494083E+02  0.25500000000E-02 0. -1.
         -2   -1    0    0    0  501 -0.00000000000E+00 -0.00000000000E+00 -0.16890776376E+03  0.16890776378E+03  0.25500000000E-02 0.  1.
    5000001    1    1    2    0    0  0.74465316256E+02 -0.20523425945E+02 -0.70514945664E+02  0.12987552464E+03  0.77000000000E+02 0.  0.
   -5000001    1    1    2    0    0 -0.74465316256E+02  0.20523425945E+02 -0.25433324054E+02  0.11199173322E+03  0.77000000000E+02 0.  0.
<mgrwt>
<rscale>  0 0.22202185E+03</rscale>
<asrwt>0</asrwt>
<pdfrwt beam="1">  1        2 0.10422785E-01 0.22202185E+03</pdfrwt>
<pdfrwt beam="2">  1       -2 0.24129680E-01 0.22202185E+03</pdfrwt>
<totfact> 0.89961419E+03</totfact>
</mgrwt>
</event>
<event>
 4    1  0.6853809E-004  0.6081059E+03  0.7818608E-02  0.9888730E-01
          2   -1    0    0  501    0  0.00000000000E+00  0.00000000000E+00  0.57950542598E+03  0.57950542599E+03  0.25500000000E-02 0.  1.
         -2   -1    0    0    0  501 -0.00000000000E+00 -0.00000000000E+00 -0.15952945365E+03  0.15952945367E+03  0.25500000000E-02 0. -1.
    5000001    1    1    2    0    0  0.17835248751E+03 -0.14509901484E+02 -0.73725618746E+02  0.20828973547E+03  0.77000000000E+02 0.  0.
   -5000001    1    1    2    0    0 -0.17835248751E+03  0.14509901484E+02  0.49370159108E+03  0.53074514419E+03  0.77000000000E+02 0.  0.
<mgrwt>
<rscale>  0 0.60810586E+03</rscale>
<asrwt>0</asrwt>
<pdfrwt beam="1">  1        2 0.82786489E-01 0.60810586E+03</pdfrwt>
<pdfrwt beam="2">  1       -2 0.22789922E-01 0.60810586E+03</pdfrwt>
<totfact> 0.95952972E+02</totfact>
</mgrwt>
</event>
<event>
 4    1  0.6853809E-004  0.3833040E+03  0.7818608E-02  0.1049719E+00
          2   -1    0    0  501    0  0.00000000000E+00  0.00000000000E+00  0.48448901226E+03  0.48448901226E+03  0.25500000000E-02 0. -1.
         -2   -1    0    0    0  501 -0.00000000000E+00 -0.00000000000E+00 -0.75812830486E+02  0.75812830529E+02  0.25500000000E-02 0.  1.
    5000001    1    1    2    0    0 -0.69834802488E+02  0.11047047802E+03  0.33112231016E+02  0.15526121858E+03  0.77000000000E+02 0.  0.
   -5000001    1    1    2    0    0  0.69834802488E+02 -0.11047047802E+03  0.37556395076E+03  0.40504062421E+03  0.77000000000E+02 0.  0.
<mgrwt>
<rscale>  0 0.38330397E+03</rscale>
<asrwt>0</asrwt>
<pdfrwt beam="1">  1        2 0.69212720E-01 0.38330397E+03</pdfrwt>
<pdfrwt beam="2">  1       -2 0.10830404E-01 0.38330397E+03</pdfrwt>
<totfact> 0.41171824E+03</totfact>
</mgrwt>
</event>
<event>
 4    1  0.6853809E-004  0.3458533E+03  0.7818608E-02  0.1064330E+00
          2   -1    0    0  501    0  0.00000000000E+00  0.00000000000E+00  0.28596632337E+04  0.28596632337E+04  0.25500000000E-02 0.  1.
         -2   -1    0    0    0  501 -0.00000000000E+00 -0.00000000000E+00 -0.10457046675E+02  0.10457046986E+02  0.25500000000E-02 0. -1.
    5000001    1    1    2    0    0 -0.12365636341E+03 -0.77094535155E+02  0.18590100663E+04  0.18663016611E+04  0.77000000000E+02 0.  0.
   -5000001    1    1    2    0    0  0.12365636341E+03  0.77094535155E+02  0.99019612074E+03  0.10038186196E+04  0.77000000000E+02 0.  0.
<mgrwt>
<rscale>  0 0.34585334E+03</rscale>
<asrwt>0</asrwt>
<pdfrwt beam="1">  1        2 0.40852313E+00 0.34585334E+03</pdfrwt>
<pdfrwt beam="2">  1       -2 0.14938645E-02 0.34585334E+03</pdfrwt>
<totfact> 0.38893520E+03</totfact>
</mgrwt>
</event>
<event>
 4    1  0.6853809E-004  0.2053867E+03  0.7818608E-02  0.1145272E+00
         -2   -1    0    0    0  501 -0.00000000000E+00  0.00000000000E+00  0.71401186923E+01  0.71401191477E+01  0.25500000000E-02 0.  1.
          2   -1    0    0  501    0  0.00000000000E+00 -0.00000000000E+00 -0.14769958310E+04  0.14769958310E+04  0.25500000000E-02 0. -1.
    5000001    1    1    2    0    0 -0.12855320799E+01  0.65292879272E+02 -0.59933322692E+03  0.60777802656E+03  0.77000000000E+02 0.  0.
   -5000001    1    1    2    0    0  0.12855320799E+01 -0.65292879272E+02 -0.87052248534E+03  0.87635792354E+03  0.77000000000E+02 0.  0.
<mgrwt>
<rscale>  0 0.20538672E+03</rscale>
<asrwt>0</asrwt>
<pdfrwt beam="1">  1        2 0.21099921E+00 0.20538672E+03</pdfrwt>
<pdfrwt beam="2">  1       -2 0.10200179E-02 0.20538672E+03</pdfrwt>
<totfact> 0.32611272E+04</totfact>
</mgrwt>
</event>
<event>
 4    1  0.6853809E-004  0.2335151E+03  0.7818608E-02  0.1124190E+00
          2   -1    0    0  501    0  0.00000000000E+00  0.00000000000E+00  0.98574781843E+03  0.98574781844E+03  0.25500000000E-02 0.  1.
         -2   -1    0    0    0  501 -0.00000000000E+00 -0.00000000000E+00 -0.13829419293E+02  0.13829419528E+02  0.25500000000E-02 0. -1.
    5000001    1    1    2    0    0  0.62216766059E+02  0.53263982399E+02  0.35091134519E+03  0.36847761123E+03  0.77000000000E+02 0.  0.
   -5000001    1    1    2    0    0 -0.62216766059E+02 -0.53263982399E+02  0.62100705395E+03  0.63109962673E+03  0.77000000000E+02 0.  0.
<mgrwt>
<rscale>  0 0.23351505E+03</rscale>
<asrwt>0</asrwt>
<pdfrwt beam="1">  1        2 0.14082116E+00 0.23351505E+03</pdfrwt>
<pdfrwt beam="2">  1       -2 0.19756307E-02 0.23351505E+03</pdfrwt>
<totfact> 0.23078590E+04</totfact>
</mgrwt>
</event>
<event>
 4    1  0.6853809E-004  0.2858887E+03  0.7818608E-02  0.1092515E+00
          2   -1    0    0  501    0  0.00000000000E+00  0.00000000000E+00  0.20116271488E+04  0.20116271488E+04  0.25500000000E-02 0.  1.
         -2   -1    0    0    0  501 -0.00000000000E+00 -0.00000000000E+00 -0.10157493537E+02  0.10157493857E+02  0.25500000000E-02 0. -1.
    5000001    1    1    2    0    0 -0.13887108999E+02 -0.11733231634E+03  0.83573507145E+03  0.84755049047E+03  0.77000000000E+02 0.  0.
   -5000001    1    1    2    0    0  0.13887108999E+02  0.11733231634E+03  0.11657345838E+04  0.11742341522E+04  0.77000000000E+02 0.  0.
<mgrwt>
<rscale>  0 0.28588872E+03</rscale>
<asrwt>0</asrwt>
<pdfrwt beam="1">  1        2 0.28737568E+00 0.28588872E+03</pdfrwt>
<pdfrwt beam="2">  1       -2 0.14510686E-02 0.28588872E+03</pdfrwt>
<totfact> 0.10806701E+04</totfact>
</mgrwt>
</event>
<event>
 4    1  0.6853809E-004  0.4554405E+03  0.7818608E-02  0.1026112E+00
          2   -1    0    0  501    0  0.00000000000E+00  0.00000000000E+00  0.97954511790E+02  0.97954511823E+02  0.25500000000E-02 0.  1.
         -2   -1    0    0    0  501 -0.00000000000E+00 -0.00000000000E+00 -0.52939370069E+03  0.52939370070E+03  0.25500000000E-02 0. -1.
    5000001    1    1    2    0    0 -0.62292562809E+02 -0.19642244300E+03 -0.13463256932E+03  0.25790903089E+03  0.77000000000E+02 0.  0.
   -5000001    1    1    2    0    0  0.62292562809E+02  0.19642244300E+03 -0.29680661959E+03  0.36943918163E+03  0.77000000000E+02 0.  0.
<mgrwt>
<rscale>  0 0.45544045E+03</rscale>
<asrwt>0</asrwt>
<pdfrwt beam="1">  1        2 0.13993502E-01 0.45544045E+03</pdfrwt>
<pdfrwt beam="2">  1       -2 0.75627670E-01 0.45544045E+03</pdfrwt>
<totfact> 0.68813978E+02</totfact>
</mgrwt>
</event>
<event>
 4    1  0.6853809E-004  0.3016658E+03  0.7818608E-02  0.1084411E+00
          2   -1    0    0  501    0  0.00000000000E+00  0.00000000000E+00  0.40185580805E+04  0.40185580805E+04  0.25500000000E-02 0.  1.
         -2   -1    0    0    0  501 -0.00000000000E+00 -0.00000000000E+00 -0.56613728104E+01  0.56613733847E+01  0.25500000000E-02 0. -1.
    5000001    1    1    2    0    0 -0.17782253899E+02  0.86496266106E+02  0.73923707275E+03  0.74846393523E+03  0.77000000000E+02 0.  0.
   -5000001    1    1    2    0    0  0.17782253899E+02 -0.86496266106E+02  0.32736596349E+04  0.32757555186E+04  0.77000000000E+02 0.  0.
<mgrwt>
<rscale>  0 0.30166575E+03</rscale>
<asrwt>0</asrwt>
<pdfrwt beam="1">  1        2 0.57408279E+00 0.30166575E+03</pdfrwt>
<pdfrwt beam="2">  1       -2 0.80876326E-03 0.30166575E+03</pdfrwt>
<totfact> 0.20353324E+03</totfact>
</mgrwt>
</event>
<event>
 4    1  0.6853809E-004  0.2474811E+03  0.7818608E-02  0.1114907E+00
          2   -1    0    0  501    0  0.00000000000E+00  0.00000000000E+00  0.87725845819E+02  0.87725845856E+02  0.25500000000E-02 0.  1.
         -2   -1    0    0    0  501 -0.00000000000E+00 -0.00000000000E+00 -0.17454067008E+03  0.17454067010E+03  0.25500000000E-02 0. -1.
    5000001    1    1    2    0    0  0.68732780542E+02  0.61315964716E+02 -0.75180021357E+02  0.14165054981E+03  0.77000000000E+02 0.  0.
   -5000001    1    1    2    0    0 -0.68732780542E+02 -0.61315964716E+02 -0.11634802902E+02  0.12061596614E+03  0.77000000000E+02 0.  0.
<mgrwt>
<rscale>  0 0.24748113E+03</rscale>
<asrwt>0</asrwt>
<pdfrwt beam="1">  1        2 0.12532264E-01 0.24748113E+03</pdfrwt>
<pdfrwt beam="2">  1       -2 0.24934381E-01 0.24748113E+03</pdfrwt>
<totfact> 0.68204054E+03</totfact>
</mgrwt>
</event>
<event>
 4    1  0.6853809E-004  0.2046064E+03  0.7818608E-02  0.1145910E+00
         -2   -1    0    0    0  501 -0.00000000000E+00  0.00000000000E+00  0.71337558670E+02  0.71337558716E+02  0.25500000000E-02 0. -1.
          2   -1    0    0  501    0  0.00000000000E+00 -0.00000000000E+00 -0.14671012337E+03  0.14671012339E+03  0.25500000000E-02 0.  1.
    5000001    1    1    2    0    0  0.54709052367E+02 -0.30352507830E+01 -0.79434393378E+02  0.12345491489E+03  0.77000000000E+02 0.  0.
   -5000001    1    1    2    0    0 -0.54709052367E+02  0.30352507830E+01  0.40618286789E+01  0.94592767221E+02  0.77000000000E+02 0.  0.
<mgrwt>
<rscale>  0 0.20460637E+03</rscale>
<asrwt>0</asrwt>
<pdfrwt beam="1">  1        2 0.20958589E-01 0.20460637E+03</pdfrwt>
<pdfrwt beam="2">  1       -2 0.10191080E-01 0.20460637E+03</pdfrwt>
<totfact> 0.16356887E+04</totfact>
</mgrwt>
</event>
<event>
 4    1  0.6853809E-004  0.2265916E+03  0.7818608E-02  0.1129062E+00
         -2   -1    0    0    0  501 -0.00000000000E+00  0.00000000000E+00  0.43199017412E+02  0.43199017487E+02  0.25500000000E-02 0. -1.
          2   -1    0    0  501    0  0.00000000000E+00 -0.00000000000E+00 -0.29713500004E+03  0.29713500005E+03  0.25500000000E-02 0.  1.
    5000001    1    1    2    0    0  0.65704769007E+02 -0.51465505186E+01 -0.20301188171E+03  0.22690620919E+03  0.77000000000E+02 0.  0.
   -5000001    1    1    2    0    0 -0.65704769007E+02  0.51465505186E+01 -0.50924100917E+02  0.11342780835E+03  0.77000000000E+02 0.  0.
<mgrwt>
<rscale>  0 0.22659162E+03</rscale>
<asrwt>0</asrwt>
<pdfrwt beam="1">  1        2 0.42447856E-01 0.22659162E+03</pdfrwt>
<pdfrwt beam="2">  1       -2 0.61712884E-02 0.22659162E+03</pdfrwt>
<totfact> 0.16580804E+04</totfact>
</mgrwt>
</event>
<event>
 4    1  0.6853809E-004  0.2770474E+03  0.7818608E-02  0.1097313E+00
          2   -1    0    0  501    0  0.00000000000E+00  0.00000000000E+00  0.11462135938E+04  0.11462135939E+04  0.25500000000E-02 0.  1.
         -2   -1    0    0    0  501 -0.00000000000E+00 -0.00000000000E+00 -0.16741042071E+02  0.16741042265E+02  0.25500000000E-02 0. -1.
    5000001    1    1    2    0    0  0.11466651182E+03  0.45213589851E+01  0.52470214733E+03  0.54259579342E+03  0.77000000000E+02 0.  0.
   -5000001    1    1    2    0    0 -0.11466651182E+03 -0.45213589851E+01  0.60477040445E+03  0.62035884270E+03  0.77000000000E+02 0.  0.
<mgrwt>
<rscale>  0 0.27704736E+03</rscale>
<asrwt>0</asrwt>
<pdfrwt beam="1">  1        2 0.16374483E+00 0.27704736E+03</pdfrwt>
<pdfrwt beam="2">  1       -2 0.23915770E-02 0.27704736E+03</pdfrwt>
<totfact> 0.14215829E+04</totfact>
</mgrwt>
</event>
<event>
 4    1  0.6853809E-004  0.1914260E+03  0.7818608E-02  0.1157181E+00
         -2   -1    0    0    0  501 -0.00000000000E+00  0.00000000000E+00  0.31295125059E+01  0.31295135448E+01  0.25500000000E-02 0. -1.
          2   -1    0    0  501    0  0.00000000000E+00 -0.00000000000E+00 -0.29272855603E+04  0.29272855603E+04  0.25500000000E-02 0.  1.
    5000001    1    1    2    0    0  0.19072315740E+02  0.42251325991E+02 -0.95828450749E+03  0.96249006492E+03  0.77000000000E+02 0.  0.
   -5000001    1    1    2    0    0 -0.19072315740E+02 -0.42251325991E+02 -0.19658715403E+04  0.19679250089E+04  0.77000000000E+02 0.  0.
<mgrwt>
<rscale>  0 0.19142600E+03</rscale>
<asrwt>0</asrwt>
<pdfrwt beam="1">  1        2 0.41818190E+00 0.19142600E+03</pdfrwt>
<pdfrwt beam="2">  1       -2 0.44707517E-03 0.19142600E+03</pdfrwt>
<totfact> 0.20519146E+04</totfact>
</mgrwt>
</event>
<event>
 4    1  0.6853809E-004  0.1999647E+03  0.7818608E-02  0.1149769E+00
         -2   -1    0    0    0  501 -0.00000000000E+00  0.00000000000E+00  0.18862875566E+03  0.18862875568E+03  0.25500000000E-02 0. -1.
          2   -1    0    0  501    0  0.00000000000E+00 -0.00000000000E+00 -0.52995450122E+02  0.52995450183E+02  0.25500000000E-02 0.  1.
    5000001    1    1    2    0    0 -0.95738861965E+01 -0.62543314301E+02  0.77493923734E+02  0.12624434117E+03  0.77000000000E+02 0.  0.
   -5000001    1    1    2    0    0  0.95738861965E+01  0.62543314301E+02  0.58139381806E+02  0.11537986470E+03  0.77000000000E+02 0.  0.
<mgrwt>
<rscale>  0 0.19996466E+03</rscale>
<asrwt>0</asrwt>
<pdfrwt beam="1">  1        2 0.75707787E-02 0.19996466E+03</pdfrwt>
<pdfrwt beam="2">  1       -2 0.26946965E-01 0.19996466E+03</pdfrwt>
<totfact> 0.10976205E+04</totfact>
</mgrwt>
</event>
<event>
 4    1  0.6853809E-004  0.2725690E+03  0.7818608E-02  0.1099818E+00
          2   -1    0    0  501    0  0.00000000000E+00  0.00000000000E+00  0.16010525448E+03  0.16010525450E+03  0.25500000000E-02 0.  1.
         -2   -1    0    0    0  501 -0.00000000000E+00 -0.00000000000E+00 -0.11600782597E+03  0.11600782600E+03  0.25500000000E-02 0. -1.
    5000001    1    1    2    0    0 -0.77717085348E+02  0.81188091716E+02  0.25702679844E+02  0.13864010727E+03  0.77000000000E+02 0.  0.
   -5000001    1    1    2    0    0  0.77717085348E+02 -0.81188091716E+02  0.18394748672E+02  0.13747297324E+03  0.77000000000E+02 0.  0.
<mgrwt>
<rscale>  0 0.27256898E+03</rscale>
<asrwt>0</asrwt>
<pdfrwt beam="1">  1        2 0.22872179E-01 0.27256898E+03</pdfrwt>
<pdfrwt beam="2">  1       -2 0.16572547E-01 0.27256898E+03</pdfrwt>
<totfact> 0.68327213E+03</totfact>
</mgrwt>
</event>
<event>
 4    1  0.6853809E-004  0.1820539E+03  0.7818608E-02  0.1165830E+00
          2   -1    0    0  501    0  0.00000000000E+00  0.00000000000E+00  0.16638225990E+03  0.16638225992E+03  0.25500000000E-02 0.  1.
         -2   -1    0    0    0  501 -0.00000000000E+00 -0.00000000000E+00 -0.49800402430E+02  0.49800402495E+02  0.25500000000E-02 0. -1.
    5000001    1    1    2    0    0 -0.24503231132E+02 -0.35517691598E+02  0.84710063908E+02  0.12233850449E+03  0.77000000000E+02 0.  0.
   -5000001    1    1    2    0    0  0.24503231132E+02  0.35517691598E+02  0.31871793561E+02  0.93844157928E+02  0.77000000000E+02 0.  0.
<mgrwt>
<rscale>  0 0.18205388E+03</rscale>
<asrwt>0</asrwt>
<pdfrwt beam="1">  1        2 0.23768895E-01 0.18205388E+03</pdfrwt>
<pdfrwt beam="2">  1       -2 0.71143431E-02 0.18205388E+03</pdfrwt>
<totfact> 0.24656908E+04</totfact>
</mgrwt>
</event>
<event>
 4    1  0.6853809E-004  0.2593947E+03  0.7818608E-02  0.1107507E+00
          2   -1    0    0  501    0  0.00000000000E+00  0.00000000000E+00  0.89144319940E+02  0.89144319976E+02  0.25500000000E-02 0.  1.
         -2   -1    0    0    0  501 -0.00000000000E+00 -0.00000000000E+00 -0.18869846621E+03  0.18869846622E+03  0.25500000000E-02 0. -1.
    5000001    1    1    2    0    0 -0.62973305065E+02 -0.74236216236E+02 -0.90079425387E+02  0.15336217210E+03  0.77000000000E+02 0.  0.
   -5000001    1    1    2    0    0  0.62973305065E+02  0.74236216236E+02 -0.94747208789E+01  0.12448061410E+03  0.77000000000E+02 0.  0.
<mgrwt>
<rscale>  0 0.25939465E+03</rscale>
<asrwt>0</asrwt>
<pdfrwt beam="1">  1        2 0.12734903E-01 0.25939465E+03</pdfrwt>
<pdfrwt beam="2">  1       -2 0.26956924E-01 0.25939465E+03</pdfrwt>
<totfact> 0.58382069E+03</totfact>
</mgrwt>
</event>
<event>
 4    1  0.6853809E-004  0.2085685E+03  0.7818608E-02  0.1142705E+00
         -2   -1    0    0    0  501 -0.00000000000E+00  0.00000000000E+00  0.43669454599E+01  0.43669462044E+01  0.25500000000E-02 0. -1.
          2   -1    0    0  501    0  0.00000000000E+00 -0.00000000000E+00 -0.24903465605E+04  0.24903465605E+04  0.25500000000E-02 0.  1.
    5000001    1    1    2    0    0 -0.50720628460E+02 -0.46508492287E+02 -0.14165648100E+04  0.14203240768E+04  0.77000000000E+02 0.  0.
   -5000001    1    1    2    0    0  0.50720628460E+02  0.46508492287E+02 -0.10694148050E+04  0.10743894299E+04  0.77000000000E+02 0.  0.
<mgrwt>
<rscale>  0 0.20856854E+03</rscale>
<asrwt>0</asrwt>
<pdfrwt beam="1">  1        2 0.35576289E+00 0.20856854E+03</pdfrwt>
<pdfrwt beam="2">  1       -2 0.62385100E-03 0.20856854E+03</pdfrwt>
<totfact> 0.21231949E+04</totfact>
</mgrwt>
</event>
<event>
 4    1  0.6853809E-004  0.2802075E+03  0.7818608E-02  0.1095576E+00
         -2   -1    0    0    0  501 -0.00000000000E+00  0.00000000000E+00  0.10924270110E+02  0.10924270408E+02  0.25500000000E-02 0. -1.
          2   -1    0    0  501    0  0.00000000000E+00 -0.00000000000E+00 -0.17968301025E+04  0.17968301025E+04  0.25500000000E-02 0.  1.
    5000001    1    1    2    0    0 -0.97386825414E+02 -0.64689569015E+02 -0.92894477317E+03  0.93943404543E+03  0.77000000000E+02 0.  0.
   -5000001    1    1    2    0    0  0.97386825414E+02  0.64689569015E+02 -0.85696105923E+03  0.86832032749E+03  0.77000000000E+02 0.  0.
<mgrwt>
<rscale>  0 0.28020748E+03</rscale>
<asrwt>0</asrwt>
<pdfrwt beam="1">  1        2 0.25668983E+00 0.28020748E+03</pdfrwt>
<pdfrwt beam="2">  1       -2 0.15606112E-02 0.28020748E+03</pdfrwt>
<totfact> 0.12366679E+04</totfact>
</mgrwt>
</event>
<event>
 4    1  0.6853809E-004  0.2352593E+03  0.7818608E-02  0.1122992E+00
          2   -1    0    0  501    0  0.00000000000E+00  0.00000000000E+00  0.83322536380E+03  0.83322536380E+03  0.25500000000E-02 0.  1.
         -2   -1    0    0    0  501 -0.00000000000E+00 -0.00000000000E+00 -0.16606235878E+02  0.16606236074E+02  0.25500000000E-02 0. -1.
    5000001    1    1    2    0    0  0.63163887980E+02  0.42479624283E+02  0.57437966754E+03  0.58449567809E+03  0.77000000000E+02 0.  0.
   -5000001    1    1    2    0    0 -0.63163887980E+02 -0.42479624283E+02  0.24223946038E+03  0.26533592178E+03  0.77000000000E+02 0.  0.
<mgrwt>
<rscale>  0 0.23525932E+03</rscale>
<asrwt>0</asrwt>
<pdfrwt beam="1">  1        2 0.11903221E+00 0.23525932E+03</pdfrwt>
<pdfrwt beam="2">  1       -2 0.23723191E-02 0.23525932E+03</pdfrwt>
<totfact> 0.21933452E+04</totfact>
</mgrwt>
</event>
<event>
 4    1  0.6853809E-004  0.3667319E+03  0.7818608E-02  0.1055950E+00
         -2   -1    0    0    0  501 -0.00000000000E+00  0.00000000000E+00  0.40168003364E+02  0.40168003445E+02  0.25500000000E-02 0. -1.
          2   -1    0    0  501    0  0.00000000000E+00 -0.00000000000E+00 -0.83706100879E+03  0.83706100880E+03  0.25500000000E-02 0.  1.
    5000001    1    1    2    0    0  0.14714534937E+03  0.32660926582E+02 -0.56717410943E+03  0.59189015904E+03  0.77000000000E+02 0.  0.
   -5000001    1    1    2    0    0 -0.14714534937E+03 -0.32660926582E+02 -0.22971889600E+03  0.28533885320E+03  0.77000000000E+02 0.  0.
<mgrwt>
<rscale>  0 0.36673189E+03</rscale>
<asrwt>0</asrwt>
<pdfrwt beam="1">  1        2 0.11958013E+00 0.36673189E+03</pdfrwt>
<pdfrwt beam="2">  1       -2 0.57382867E-02 0.36673189E+03</pdfrwt>
<totfact> 0.58695578E+03</totfact>
</mgrwt>
</event>
<event>
 4    1  0.6853809E-004  0.4411239E+03  0.7818608E-02  0.1030403E+00
          2   -1    0    0  501    0  0.00000000000E+00  0.00000000000E+00  0.27524036355E+03  0.27524036356E+03  0.25500000000E-02 0.  1.
         -2   -1    0    0    0  501 -0.00000000000E+00 -0.00000000000E+00 -0.17674580818E+03  0.17674580820E+03  0.25500000000E-02 0. -1.
    5000001    1    1    2    0    0  0.14771172567E+03  0.65768252472E+02  0.18115886924E+03  0.25473859707E+03  0.77000000000E+02 0.  0.
   -5000001    1    1    2    0    0 -0.14771172567E+03 -0.65768252472E+02 -0.82664313866E+02  0.19724757469E+03  0.77000000000E+02 0.  0.
<mgrwt>
<rscale>  0 0.44112393E+03</rscale>
<asrwt>0</asrwt>
<pdfrwt beam="1">  1        2 0.39320051E-01 0.44112393E+03</pdfrwt>
<pdfrwt beam="2">  1       -2 0.25249402E-01 0.44112393E+03</pdfrwt>
<totfact> 0.18333353E+03</totfact>
</mgrwt>
</event>
<event>
 4    1  0.6853809E-004  0.6562641E+03  0.7818608E-02  0.9795096E-01
         -2   -1    0    0    0  501 -0.00000000000E+00  0.00000000000E+00  0.96656718757E+02  0.96656718791E+02  0.25500000000E-02 0. -1.
          2   -1    0    0  501    0  0.00000000000E+00 -0.00000000000E+00 -0.11139488946E+04  0.11139488946E+04  0.25500000000E-02 0.  1.
    5000001    1    1    2    0    0  0.21585811970E+03 -0.19141463250E+03 -0.25769087823E+03  0.39442094024E+03  0.77000000000E+02 0.  0.
   -5000001    1    1    2    0    0 -0.21585811970E+03  0.19141463250E+03 -0.75960129765E+03  0.81618467320E+03  0.77000000000E+02 0.  0.
<mgrwt>
<rscale>  0 0.65626411E+03</rscale>
<asrwt>0</asrwt>
<pdfrwt beam="1">  1        2 0.15913555E+00 0.65626411E+03</pdfrwt>
<pdfrwt beam="2">  1       -2 0.13808103E-01 0.65626411E+03</pdfrwt>
<totfact> 0.97160228E+02</totfact>
</mgrwt>
</event>
<event>
 4    1  0.6853809E-004  0.3122025E+03  0.7818608E-02  0.1079295E+00
          2   -1    0    0  501    0  0.00000000000E+00  0.00000000000E+00  0.16733223551E+04  0.16733223551E+04  0.25500000000E-02 0.  1.
         -2   -1    0    0    0  501 -0.00000000000E+00 -0.00000000000E+00 -0.14562407606E+02  0.14562407829E+02  0.25500000000E-02 0. -1.
    5000001    1    1    2    0    0  0.10249715459E+02 -0.11049432172E+03  0.12524804461E+04  0.12597421639E+04  0.77000000000E+02 0.  0.
   -5000001    1    1    2    0    0 -0.10249715459E+02  0.11049432172E+03  0.40627950140E+03  0.42814259898E+03  0.77000000000E+02 0.  0.
<mgrwt>
<rscale>  0 0.31220251E+03</rscale>
<asrwt>0</asrwt>
<pdfrwt beam="1">  1        2 0.23904598E+00 0.31220251E+03</pdfrwt>
<pdfrwt beam="2">  1       -2 0.20803446E-02 0.31220251E+03</pdfrwt>
<totfact> 0.93417359E+03</totfact>
</mgrwt>
</event>
<event>
 4    1  0.6853809E-004  0.5627623E+03  0.7818608E-02  0.9985824E-01
          2   -1    0    0  501    0  0.00000000000E+00  0.00000000000E+00  0.20600466713E+04  0.20600466713E+04  0.25500000000E-02 0.  1.
         -2   -1    0    0    0  501 -0.00000000000E+00 -0.00000000000E+00 -0.38433761138E+02  0.38433761223E+02  0.25500000000E-02 0. -1.
    5000001    1    1    2    0    0 -0.16670998522E+03 -0.43783766070E+02  0.23275248026E+03  0.29968642680E+03  0.77000000000E+02 0.  0.
   -5000001    1    1    2    0    0  0.16670998522E+03  0.43783766070E+02  0.17888604299E+04  0.17987940058E+04  0.77000000000E+02 0.  0.
<mgrwt>
<rscale>  0 0.56276227E+03</rscale>
<asrwt>0</asrwt>
<pdfrwt beam="1">  1        2 0.29429240E+00 0.56276227E+03</pdfrwt>
<pdfrwt beam="2">  1       -2 0.54905369E-02 0.56276227E+03</pdfrwt>
<totfact> 0.13738874E+03</totfact>
</mgrwt>
</event>
<event>
 4    1  0.6853809E-004  0.4465013E+03  0.7818608E-02  0.1028771E+00
         -2   -1    0    0    0  501 -0.00000000000E+00  0.00000000000E+00  0.38792248589E+02  0.38792248672E+02  0.25500000000E-02 0. -1.
          2   -1    0    0  501    0  0.00000000000E+00 -0.00000000000E+00 -0.12848145624E+04  0.12848145624E+04  0.25500000000E-02 0.  1.
    5000001    1    1    2    0    0  0.12981911087E+03  0.16449471259E+03 -0.62129811173E+03  0.66019077216E+03  0.77000000000E+02 0.  0.
   -5000001    1    1    2    0    0 -0.12981911087E+03 -0.16449471259E+03 -0.62472420210E+03  0.66341603892E+03  0.77000000000E+02 0.  0.
<mgrwt>
<rscale>  0 0.44650127E+03</rscale>
<asrwt>0</asrwt>
<pdfrwt beam="1">  1        2 0.18354491E+00 0.44650127E+03</pdfrwt>
<pdfrwt beam="2">  1       -2 0.55417506E-02 0.44650127E+03</pdfrwt>
<totfact> 0.33836040E+03</totfact>
</mgrwt>
</event>
<event>
 4    1  0.6853809E-004  0.3273357E+03  0.7818608E-02  0.1072322E+00
          2   -1    0    0  501    0  0.00000000000E+00  0.00000000000E+00  0.83720254163E+03  0.83720254164E+03  0.25500000000E-02 0.  1.
         -2   -1    0    0    0  501 -0.00000000000E+00 -0.00000000000E+00 -0.31996045188E+02  0.31996045290E+02  0.25500000000E-02 0. -1.
    5000001    1    1    2    0    0 -0.11700205010E+03 -0.83913490600E+02  0.43255331349E+03  0.46234437668E+03  0.77000000000E+02 0.  0.
   -5000001    1    1    2    0    0  0.11700205010E+03  0.83913490600E+02  0.37265318295E+03  0.40685421025E+03  0.77000000000E+02 0.  0.
<mgrwt>
<rscale>  0 0.32733573E+03</rscale>
<asrwt>0</asrwt>
<pdfrwt beam="1">  1        2 0.11960035E+00 0.32733573E+03</pdfrwt>
<pdfrwt beam="2">  1       -2 0.45708642E-02 0.32733573E+03</pdfrwt>
<totfact> 0.82909061E+03</totfact>
</mgrwt>
</event>
<event>
 4    1  0.6853809E-004  0.3365716E+03  0.7818608E-02  0.1068266E+00
          2   -1    0    0  501    0  0.00000000000E+00  0.00000000000E+00  0.64065727609E+03  0.64065727610E+03  0.25500000000E-02 0.  1.
         -2   -1    0    0    0  501 -0.00000000000E+00 -0.00000000000E+00 -0.44204771845E+02  0.44204771919E+02  0.25500000000E-02 0. -1.
    5000001    1    1    2    0    0  0.13518365254E+03  0.62657682691E+02  0.27014106793E+03  0.31797138503E+03  0.77000000000E+02 0.  0.
   -5000001    1    1    2    0    0 -0.13518365254E+03 -0.62657682691E+02  0.32631143632E+03  0.36689066298E+03  0.77000000000E+02 0.  0.
<mgrwt>
<rscale>  0 0.33657159E+03</rscale>
<asrwt>0</asrwt>
<pdfrwt beam="1">  1        2 0.91522480E-01 0.33657159E+03</pdfrwt>
<pdfrwt beam="2">  1       -2 0.63149666E-02 0.33657159E+03</pdfrwt>
<totfact> 0.69955979E+03</totfact>
</mgrwt>
</event>
<event>
 4    1  0.6853809E-004  0.6448969E+03  0.7818608E-02  0.9816402E-01
         -2   -1    0    0    0  501 -0.00000000000E+00  0.00000000000E+00  0.78328934163E+02  0.78328934204E+02  0.25500000000E-02 0. -1.
          2   -1    0    0  501    0  0.00000000000E+00 -0.00000000000E+00 -0.13273893332E+04  0.13273893332E+04  0.25500000000E-02 0.  1.
    5000001    1    1    2    0    0 -0.24935717405E+03 -0.60697975799E+01 -0.10371216349E+04  0.10694700221E+04  0.77000000000E+02 0.  0.
   -5000001    1    1    2    0    0  0.24935717405E+03  0.60697975799E+01 -0.21193876412E+03  0.33624824525E+03  0.77000000000E+02 0.  0.
<mgrwt>
<rscale>  0 0.64489687E+03</rscale>
<asrwt>0</asrwt>
<pdfrwt beam="1">  1        2 0.18962703E+00 0.64489687E+03</pdfrwt>
<pdfrwt beam="2">  1       -2 0.11189849E-01 0.64489687E+03</pdfrwt>
<totfact> 0.10456889E+03</totfact>
</mgrwt>
</event>
<event>
 4    1  0.6853809E-004  0.2601953E+03  0.7818608E-02  0.1107026E+00
          2   -1    0    0  501    0  0.00000000000E+00  0.00000000000E+00  0.15351752559E+04  0.15351752559E+04  0.25500000000E-02 0.  1.
         -2   -1    0    0    0  501 -0.00000000000E+00 -0.00000000000E+00 -0.11025057715E+02  0.11025058010E+02  0.25500000000E-02 0. -1.
    5000001    1    1    2    0    0 -0.91317412213E+01 -0.86093718152E+02  0.11136799787E+04  0.11196908556E+04  0.77000000000E+02 0.  0.
   -5000001    1    1    2    0    0  0.91317412213E+01  0.86093718152E+02  0.41047021945E+03  0.42650945835E+03  0.77000000000E+02 0.  0.
<mgrwt>
<rscale>  0 0.26019528E+03</rscale>
<asrwt>0</asrwt>
<pdfrwt beam="1">  1        2 0.21931082E+00 0.26019528E+03</pdfrwt>
<pdfrwt beam="2">  1       -2 0.15750078E-02 0.26019528E+03</pdfrwt>
<totfact> 0.16405795E+04</totfact>
</mgrwt>
</event>
<event>
 4    1  0.6853809E-004  0.2102625E+03  0.7818608E-02  0.1141358E+00
         -2   -1    0    0    0  501 -0.00000000000E+00  0.00000000000E+00  0.14213233779E+02  0.14213234008E+02  0.25500000000E-02 0. -1.
          2   -1    0    0  501    0  0.00000000000E+00 -0.00000000000E+00 -0.77762581578E+03  0.77762581578E+03  0.25500000000E-02 0.  1.
    5000001    1    1    2    0    0  0.45818636738E+02 -0.46676819564E+02 -0.49121108505E+03  0.50149317346E+03  0.77000000000E+02 0.  0.
   -5000001    1    1    2    0    0 -0.45818636738E+02  0.46676819564E+02 -0.27220149695E+03  0.29034587633E+03  0.77000000000E+02 0.  0.
<mgrwt>
<rscale>  0 0.21026248E+03</rscale>
<asrwt>0</asrwt>
<pdfrwt beam="1">  1        2 0.11108938E+00 0.21026248E+03</pdfrwt>
<pdfrwt beam="2">  1       -2 0.20304625E-02 0.21026248E+03</pdfrwt>
<totfact> 0.29800733E+04</totfact>
</mgrwt>
</event>
<event>
 4    1  0.6853809E-004  0.3074120E+03  0.7818608E-02  0.1081593E+00
          2   -1    0    0  501    0  0.00000000000E+00  0.00000000000E+00  0.15234333709E+03  0.15234333711E+03  0.25500000000E-02 0.  1.
         -2   -1    0    0    0  501 -0.00000000000E+00 -0.00000000000E+00 -0.15508085306E+03  0.15508085308E+03  0.25500000000E-02 0. -1.
    5000001    1    1    2    0    0  0.39315646664E+01 -0.13212372881E+03 -0.16349263997E+02  0.15384549180E+03  0.77000000000E+02 0.  0.
   -5000001    1    1    2    0    0 -0.39315646664E+01  0.13212372881E+03  0.13611748024E+02  0.15357869839E+03  0.77000000000E+02 0.  0.
<mgrwt>
<rscale>  0 0.30741200E+03</rscale>
<asrwt>0</asrwt>
<pdfrwt beam="1">  1        2 0.21763334E-01 0.30741200E+03</pdfrwt>
<pdfrwt beam="2">  1       -2 0.22154408E-01 0.30741200E+03</pdfrwt>
<totfact> 0.44269519E+03</totfact>
</mgrwt>
</event>
<event>
 4    1  0.6853809E-004  0.2501587E+03  0.7818608E-02  0.1113205E+00
         -2   -1    0    0    0  501 -0.00000000000E+00  0.00000000000E+00  0.67140623938E+01  0.67140628781E+01  0.25500000000E-02 0. -1.
          2   -1    0    0  501    0  0.00000000000E+00 -0.00000000000E+00 -0.23301613752E+04  0.23301613752E+04  0.25500000000E-02 0.  1.
    5000001    1    1    2    0    0 -0.98126213454E+01 -0.38415960825E+02 -0.20047337606E+04  0.20066037288E+04  0.77000000000E+02 0.  0.
   -5000001    1    1    2    0    0  0.98126213454E+01  0.38415960825E+02 -0.31871355220E+03  0.33027170926E+03  0.77000000000E+02 0.  0.
<mgrwt>
<rscale>  0 0.25015875E+03</rscale>
<asrwt>0</asrwt>
<pdfrwt beam="1">  1        2 0.33287968E+00 0.25015875E+03</pdfrwt>
<pdfrwt beam="2">  1       -2 0.95915330E-03 0.25015875E+03</pdfrwt>
<totfact> 0.13762445E+04</totfact>
</mgrwt>
</event>
<event>
 4    1  0.6853809E-004  0.2407371E+03  0.7818608E-02  0.1119303E+00
         -2   -1    0    0    0  501 -0.00000000000E+00  0.00000000000E+00  0.10068327800E+02  0.10068328123E+02  0.25500000000E-02 0. -1.
          2   -1    0    0  501    0  0.00000000000E+00 -0.00000000000E+00 -0.14390266108E+04  0.14390266108E+04  0.25500000000E-02 0.  1.
    5000001    1    1    2    0    0  0.75664788636E+02  0.51615723964E+02 -0.63593828830E+03  0.64709802173E+03  0.77000000000E+02 0.  0.
   -5000001    1    1    2    0    0 -0.75664788636E+02 -0.51615723964E+02 -0.79301999473E+03  0.80199691722E+03  0.77000000000E+02 0.  0.
<mgrwt>
<rscale>  0 0.24073713E+03</rscale>
<asrwt>0</asrwt>
<pdfrwt beam="1">  1        2 0.20557510E+00 0.24073713E+03</pdfrwt>
<pdfrwt beam="2">  1       -2 0.14383335E-02 0.24073713E+03</pdfrwt>
<totfact> 0.20879777E+04</totfact>
</mgrwt>
</event>
<event>
 4    1  0.6853809E-004  0.3587542E+03  0.7818608E-02  0.1059078E+00
          2   -1    0    0  501    0  0.00000000000E+00  0.00000000000E+00  0.15112760385E+04  0.15112760385E+04  0.25500000000E-02 0.  1.
         -2   -1    0    0    0  501 -0.00000000000E+00 -0.00000000000E+00 -0.21290716953E+02  0.21290717105E+02  0.25500000000E-02 0. -1.
    5000001    1    1    2    0    0 -0.12199663817E+03  0.51760877009E+02  0.34688380999E+03  0.37923573902E+03  0.77000000000E+02 0.  0.
   -5000001    1    1    2    0    0  0.12199663817E+03 -0.51760877009E+02  0.11431015116E+04  0.11533310166E+04  0.77000000000E+02 0.  0.
<mgrwt>
<rscale>  0 0.35875424E+03</rscale>
<asrwt>0</asrwt>
<pdfrwt beam="1">  1        2 0.21589665E+00 0.35875424E+03</pdfrwt>
<pdfrwt beam="2">  1       -2 0.30415299E-02 0.35875424E+03</pdfrwt>
<totfact> 0.64134172E+03</totfact>
</mgrwt>
</event>
<event>
 4    1  0.6853809E-004  0.2042827E+03  0.7818608E-02  0.1146175E+00
          2   -1    0    0  501    0  0.00000000000E+00  0.00000000000E+00  0.48308185263E+02  0.48308185330E+02  0.25500000000E-02 0.  1.
         -2   -1    0    0    0  501 -0.00000000000E+00 -0.00000000000E+00 -0.21596448113E+03  0.21596448114E+03  0.25500000000E-02 0. -1.
    5000001    1    1    2    0    0  0.44398970363E+02 -0.36575668686E+02 -0.12854477834E+03  0.16050485397E+03  0.77000000000E+02 0.  0.
   -5000001    1    1    2    0    0 -0.44398970363E+02  0.36575668686E+02 -0.39111517529E+02  0.10376781251E+03  0.77000000000E+02 0.  0.
<mgrwt>
<rscale>  0 0.20428267E+03</rscale>
<asrwt>0</asrwt>
<pdfrwt beam="1">  1        2 0.69011694E-02 0.20428267E+03</pdfrwt>
<pdfrwt beam="2">  1       -2 0.30852068E-01 0.20428267E+03</pdfrwt>
<totfact> 0.97010476E+03</totfact>
</mgrwt>
</event>
<event>
 4    1  0.6853809E-004  0.3022720E+03  0.7818608E-02  0.1084110E+00
          2   -1    0    0  501    0  0.00000000000E+00  0.00000000000E+00  0.58392451588E+03  0.58392451588E+03  0.25500000000E-02 0.  1.
         -2   -1    0    0    0  501 -0.00000000000E+00 -0.00000000000E+00 -0.39118218255E+02  0.39118218338E+02  0.25500000000E-02 0. -1.
    5000001    1    1    2    0    0 -0.56397955955E+02  0.11340059197E+03  0.21151353341E+03  0.25827775458E+03  0.77000000000E+02 0.  0.
   -5000001    1    1    2    0    0  0.56397955955E+02 -0.11340059197E+03  0.33329276422E+03  0.36476497964E+03  0.77000000000E+02 0.  0.
<mgrwt>
<rscale>  0 0.30227197E+03</rscale>
<asrwt>0</asrwt>
<pdfrwt beam="1">  1        2 0.83417786E-01 0.30227197E+03</pdfrwt>
<pdfrwt beam="2">  1       -2 0.55883170E-02 0.30227197E+03</pdfrwt>
<totfact> 0.93652771E+03</totfact>
</mgrwt>
</event>
<event>
 4    1  0.6853809E-004  0.2376312E+03  0.7818608E-02  0.1121381E+00
          2   -1    0    0  501    0  0.00000000000E+00  0.00000000000E+00  0.19702153257E+04  0.19702153257E+04  0.25500000000E-02 0.  1.
         -2   -1    0    0    0  501 -0.00000000000E+00 -0.00000000000E+00 -0.71652818862E+01  0.71652823400E+01  0.25500000000E-02 0. -1.
    5000001    1    1    2    0    0 -0.67788192917E+02  0.36129159104E+02  0.58353132074E+03  0.59358096122E+03  0.77000000000E+02 0.  0.
   -5000001    1    1    2    0    0  0.67788192917E+02 -0.36129159104E+02  0.13795187230E+04  0.13837996468E+04  0.77000000000E+02 0.  0.
<mgrwt>
<rscale>  0 0.23763122E+03</rscale>
<asrwt>0</asrwt>
<pdfrwt beam="1">  1        2 0.28145950E+00 0.23763122E+03</pdfrwt>
<pdfrwt beam="2">  1       -2 0.10236111E-02 0.23763122E+03</pdfrwt>
<totfact> 0.18726630E+04</totfact>
</mgrwt>
</event>
<event>
 4    1  0.6853809E-004  0.3792694E+03  0.7818608E-02  0.1051204E+00
         -2   -1    0    0    0  501 -0.00000000000E+00  0.00000000000E+00  0.23045170115E+02  0.23045170256E+02  0.25500000000E-02 0. -1.
          2   -1    0    0  501    0  0.00000000000E+00 -0.00000000000E+00 -0.15604709049E+04  0.15604709049E+04  0.25500000000E-02 0.  1.
    5000001    1    1    2    0    0 -0.13802456105E+03  0.60031261084E+02 -0.11273355086E+04  0.11399424900E+04  0.77000000000E+02 0.  0.
   -5000001    1    1    2    0    0  0.13802456105E+03 -0.60031261084E+02 -0.41009022621E+03  0.44357358509E+03  0.77000000000E+02 0.  0.
<mgrwt>
<rscale>  0 0.37926939E+03</rscale>
<asrwt>0</asrwt>
<pdfrwt beam="1">  1        2 0.22292435E+00 0.37926939E+03</pdfrwt>
<pdfrwt beam="2">  1       -2 0.32921682E-02 0.37926939E+03</pdfrwt>
<totfact> 0.53770560E+03</totfact>
</mgrwt>
</event>
<event>
 4    1  0.6853809E-004  0.2473148E+03  0.7818608E-02  0.1115014E+00
         -2   -1    0    0    0  501 -0.00000000000E+00  0.00000000000E+00  0.14260472834E+03  0.14260472836E+03  0.25500000000E-02 0. -1.
          2   -1    0    0  501    0  0.00000000000E+00 -0.00000000000E+00 -0.10722749020E+03  0.10722749023E+03  0.25500000000E-02 0.  1.
    5000001    1    1    2    0    0  0.95885244175E+02  0.22793974220E+01  0.30584592570E+02  0.12674223055E+03  0.77000000000E+02 0.  0.
   -5000001    1    1    2    0    0 -0.95885244175E+02 -0.22793974220E+01  0.47926455658E+01  0.12308998804E+03  0.77000000000E+02 0.  0.
<mgrwt>
<rscale>  0 0.24731476E+03</rscale>
<asrwt>0</asrwt>
<pdfrwt beam="1">  1        2 0.15318213E-01 0.24731476E+03</pdfrwt>
<pdfrwt beam="2">  1       -2 0.20372104E-01 0.24731476E+03</pdfrwt>
<totfact> 0.76206578E+03</totfact>
</mgrwt>
</event>
<event>
 4    1  0.6853809E-004  0.2001206E+03  0.7818608E-02  0.1149637E+00
          2   -1    0    0  501    0  0.00000000000E+00  0.00000000000E+00  0.64142181985E+03  0.64142181985E+03  0.25500000000E-02 0.  1.
         -2   -1    0    0    0  501 -0.00000000000E+00 -0.00000000000E+00 -0.15609172550E+02  0.15609172758E+02  0.25500000000E-02 0. -1.
    5000001    1    1    2    0    0  0.47624109841E+02  0.42578557035E+02  0.31763520870E+03  0.33301969185E+03  0.77000000000E+02 0.  0.
   -5000001    1    1    2    0    0 -0.47624109841E+02 -0.42578557035E+02  0.30817743860E+03  0.32401130076E+03  0.77000000000E+02 0.  0.
<mgrwt>
<rscale>  0 0.20012060E+03</rscale>
<asrwt>0</asrwt>
<pdfrwt beam="1">  1        2 0.91631674E-01 0.20012060E+03</pdfrwt>
<pdfrwt beam="2">  1       -2 0.22298822E-02 0.20012060E+03</pdfrwt>
<totfact> 0.32492593E+04</totfact>
</mgrwt>
</event>
<event>
 4    1  0.6853809E-004  0.3709209E+03  0.7818608E-02  0.1054341E+00
         -2   -1    0    0    0  501 -0.00000000000E+00  0.00000000000E+00  0.14416373580E+02  0.14416373806E+02  0.25500000000E-02 0. -1.
          2   -1    0    0  501    0  0.00000000000E+00 -0.00000000000E+00 -0.23858695667E+04  0.23858695667E+04  0.25500000000E-02 0.  1.
    5000001    1    1    2    0    0  0.13773272219E+03  0.97319885735E+02 -0.12181627188E+04  0.12321894628E+04  0.77000000000E+02 0.  0.
   -5000001    1    1    2    0    0 -0.13773272219E+03 -0.97319885735E+02 -0.11532904744E+04  0.11680964777E+04  0.77000000000E+02 0.  0.
<mgrwt>
<rscale>  0 0.37092095E+03</rscale>
<asrwt>0</asrwt>
<pdfrwt beam="1">  1        2 0.34083826E+00 0.37092095E+03</pdfrwt>
<pdfrwt beam="2">  1       -2 0.20594835E-02 0.37092095E+03</pdfrwt>
<totfact> 0.42186467E+03</totfact>
</mgrwt>
</event>
<event>
 4    1  0.6853809E-004  0.2172902E+03  0.7818608E-02  0.1135920E+00
         -2   -1    0    0    0  501 -0.00000000000E+00  0.00000000000E+00  0.30721036711E+02  0.30721036817E+02  0.25500000000E-02 0. -1.
          2   -1    0    0  501    0  0.00000000000E+00 -0.00000000000E+00 -0.38422396104E+03  0.38422396105E+03  0.25500000000E-02 0.  1.
    5000001    1    1    2    0    0  0.56891564791E+02  0.36373579191E+02 -0.24600229273E+03  0.26646916414E+03  0.77000000000E+02 0.  0.
   -5000001    1    1    2    0    0 -0.56891564791E+02 -0.36373579191E+02 -0.10750063160E+03  0.14847583373E+03  0.77000000000E+02 0.  0.
<mgrwt>
<rscale>  0 0.21729021E+03</rscale>
<asrwt>0</asrwt>
<pdfrwt beam="1">  1        2 0.54889134E-01 0.21729021E+03</pdfrwt>
<pdfrwt beam="2">  1       -2 0.43887198E-02 0.21729021E+03</pdfrwt>
<totfact> 0.21055887E+04</totfact>
</mgrwt>
</event>
<event>
 4    1  0.6853809E-004  0.2779466E+03  0.7818608E-02  0.1096816E+00
          2   -1    0    0  501    0  0.00000000000E+00  0.00000000000E+00  0.13931481051E+04  0.13931481051E+04  0.25500000000E-02 0.  1.
         -2   -1    0    0    0  501 -0.00000000000E+00 -0.00000000000E+00 -0.13863266917E+02  0.13863267152E+02  0.25500000000E-02 0. -1.
    5000001    1    1    2    0    0  0.10972913203E+03  0.31595955974E+02  0.59550831253E+03  0.61122658413E+03  0.77000000000E+02 0.  0.
   -5000001    1    1    2    0    0 -0.10972913203E+03 -0.31595955974E+02  0.78377652564E+03  0.79578478811E+03  0.77000000000E+02 0.  0.
<mgrwt>
<rscale>  0 0.27794664E+03</rscale>
<asrwt>0</asrwt>
<pdfrwt beam="1">  1        2 0.19902116E+00 0.27794664E+03</pdfrwt>
<pdfrwt beam="2">  1       -2 0.19804667E-02 0.27794664E+03</pdfrwt>
<totfact> 0.13873072E+04</totfact>
</mgrwt>
</event>
<event>
 4    1  0.6853809E-004  0.2116369E+03  0.7818608E-02  0.1140276E+00
          2   -1    0    0  501    0  0.00000000000E+00  0.00000000000E+00  0.49995036131E+03  0.49995036132E+03  0.25500000000E-02 0.  1.
         -2   -1    0    0    0  501 -0.00000000000E+00 -0.00000000000E+00 -0.22397322639E+02  0.22397322784E+02  0.25500000000E-02 0. -1.
    5000001    1    1    2    0    0 -0.18528081957E+02  0.52292095549E+02  0.12325332192E+03  0.15555749561E+03  0.77000000000E+02 0.  0.
   -5000001    1    1    2    0    0  0.18528081957E+02 -0.52292095549E+02  0.35429971676E+03  0.36679018849E+03  0.77000000000E+02 0.  0.
<mgrwt>
<rscale>  0 0.21163695E+03</rscale>
<asrwt>0</asrwt>
<pdfrwt beam="1">  1        2 0.71421477E-01 0.21163695E+03</pdfrwt>
<pdfrwt beam="2">  1       -2 0.31996177E-02 0.21163695E+03</pdfrwt>
<totfact> 0.25331008E+04</totfact>
</mgrwt>
</event>
<event>
 4    1  0.6853809E-004  0.2167378E+03  0.7818608E-02  0.1136339E+00
          2   -1    0    0  501    0  0.00000000000E+00  0.00000000000E+00  0.15813664119E+03  0.15813664121E+03  0.25500000000E-02 0.  1.
         -2   -1    0    0    0  501 -0.00000000000E+00 -0.00000000000E+00 -0.74263723158E+02  0.74263723202E+02  0.25500000000E-02 0. -1.
    5000001    1    1    2    0    0 -0.71339082701E+02 -0.17616649596E+02  0.63785547230E+02  0.12408548303E+03  0.77000000000E+02 0.  0.
   -5000001    1    1    2    0    0  0.71339082701E+02  0.17616649596E+02  0.20087370805E+02  0.10831488139E+03  0.77000000000E+02 0.  0.
<mgrwt>
<rscale>  0 0.21673777E+03</rscale>
<asrwt>0</asrwt>
<pdfrwt beam="1">  1        2 0.22590949E-01 0.21673777E+03</pdfrwt>
<pdfrwt beam="2">  1       -2 0.10609103E-01 0.21673777E+03</pdfrwt>
<totfact> 0.14155278E+04</totfact>
</mgrwt>
</event>
<event>
 4    1  0.6853809E-004  0.4160444E+03  0.7818608E-02  0.1038361E+00
         -2   -1    0    0    0  501 -0.00000000000E+00  0.00000000000E+00  0.33685941080E+02  0.33685941177E+02  0.25500000000E-02 0.  1.
          2   -1    0    0  501    0  0.00000000000E+00 -0.00000000000E+00 -0.12846081210E+04  0.12846081210E+04  0.25500000000E-02 0. -1.
    5000001    1    1    2    0    0  0.47862881042E+02  0.17092872672E+03 -0.38338153195E+03  0.42943903414E+03  0.77000000000E+02 0.  0.
   -5000001    1    1    2    0    0 -0.47862881042E+02 -0.17092872672E+03 -0.86754064801E+03  0.88885502809E+03  0.77000000000E+02 0.  0.
<mgrwt>
<rscale>  0 0.41604439E+03</rscale>
<asrwt>0</asrwt>
<pdfrwt beam="1">  1        2 0.18351542E+00 0.41604439E+03</pdfrwt>
<pdfrwt beam="2">  1       -2 0.48122781E-02 0.41604439E+03</pdfrwt>
<totfact> 0.42060102E+03</totfact>
</mgrwt>
</event>
<event>
 4    1  0.6853809E-004  0.3145511E+03  0.7818608E-02  0.1078185E+00
          2   -1    0    0  501    0  0.00000000000E+00  0.00000000000E+00  0.85336893068E+03  0.85336893068E+03  0.25500000000E-02 0.  1.
         -2   -1    0    0    0  501 -0.00000000000E+00 -0.00000000000E+00 -0.28985825511E+02  0.28985825623E+02  0.25500000000E-02 0. -1.
    5000001    1    1    2    0    0  0.74695789874E+02  0.64645218918E+02  0.14536344053E+03  0.19188015842E+03  0.77000000000E+02 0.  0.
   -5000001    1    1    2    0    0 -0.74695789874E+02 -0.64645218918E+02  0.67901966464E+03  0.69047459789E+03  0.77000000000E+02 0.  0.
<mgrwt>
<rscale>  0 0.31455113E+03</rscale>
<asrwt>0</asrwt>
<pdfrwt beam="1">  1        2 0.12190985E+00 0.31455113E+03</pdfrwt>
<pdfrwt beam="2">  1       -2 0.41408321E-02 0.31455113E+03</pdfrwt>
<totfact> 0.93884897E+03</totfact>
</mgrwt>
</event>
<event>
 4    1  0.6853809E-004  0.1624132E+03  0.7818608E-02  0.1185999E+00
         -2   -1    0    0    0  501 -0.00000000000E+00  0.00000000000E+00  0.25977299319E+02  0.25977299444E+02  0.25500000000E-02 0. -1.
          2   -1    0    0  501    0  0.00000000000E+00 -0.00000000000E+00 -0.25385673774E+03  0.25385673775E+03  0.25500000000E-02 0.  1.
    5000001    1    1    2    0    0  0.20207630412E+02 -0.62423634477E+01 -0.88488790525E+02  0.11919136494E+03  0.77000000000E+02 0.  0.
   -5000001    1    1    2    0    0 -0.20207630412E+02  0.62423634477E+01 -0.13939064790E+03  0.16064267225E+03  0.77000000000E+02 0.  0.
<mgrwt>
<rscale>  0 0.16241321E+03</rscale>
<asrwt>0</asrwt>
<pdfrwt beam="1">  1        2 0.36265247E-01 0.16241321E+03</pdfrwt>
<pdfrwt beam="2">  1       -2 0.37110429E-02 0.16241321E+03</pdfrwt>
<totfact> 0.41115816E+04</totfact>
</mgrwt>
</event>
<event>
 4    1  0.6853809E-004  0.1957591E+03  0.7818608E-02  0.1153367E+00
         -2   -1    0    0    0  501 -0.00000000000E+00  0.00000000000E+00  0.40802631307E+02  0.40802631387E+02  0.25500000000E-02 0. -1.
          2   -1    0    0  501    0  0.00000000000E+00 -0.00000000000E+00 -0.23479883865E+03  0.23479883867E+03  0.25500000000E-02 0.  1.
    5000001    1    1    2    0    0 -0.49029363640E+02  0.26714100956E+02 -0.64468043360E+02  0.11490278632E+03  0.77000000000E+02 0.  0.
   -5000001    1    1    2    0    0  0.49029363640E+02 -0.26714100956E+02 -0.12952816399E+03  0.16069868374E+03  0.77000000000E+02 0.  0.
<mgrwt>
<rscale>  0 0.19575914E+03</rscale>
<asrwt>0</asrwt>
<pdfrwt beam="1">  1        2 0.33542690E-01 0.19575914E+03</pdfrwt>
<pdfrwt beam="2">  1       -2 0.58289475E-02 0.19575914E+03</pdfrwt>
<totfact> 0.23067639E+04</totfact>
</mgrwt>
</event>
<event>
 4    1  0.6853809E-004  0.1752884E+03  0.7818608E-02  0.1172442E+00
         -2   -1    0    0    0  501 -0.00000000000E+00  0.00000000000E+00  0.97393182620E+01  0.97393185959E+01  0.25500000000E-02 0. -1.
          2   -1    0    0  501    0  0.00000000000E+00 -0.00000000000E+00 -0.78871095330E+03  0.78871095330E+03  0.25500000000E-02 0.  1.
    5000001    1    1    2    0    0 -0.38557577304E+02  0.11317155243E+02 -0.44294575066E+03  0.45138088440E+03  0.77000000000E+02 0.  0.
   -5000001    1    1    2    0    0  0.38557577304E+02 -0.11317155243E+02 -0.33602588437E+03  0.34706938750E+03  0.77000000000E+02 0.  0.
<mgrwt>
<rscale>  0 0.17528842E+03</rscale>
<asrwt>0</asrwt>
<pdfrwt beam="1">  1        2 0.11267295E+00 0.17528842E+03</pdfrwt>
<pdfrwt beam="2">  1       -2 0.13913317E-02 0.17528842E+03</pdfrwt>
<totfact> 0.50033145E+04</totfact>
</mgrwt>
</event>
<event>
 4    1  0.6853809E-004  0.1572644E+04  0.7818608E-02  0.8837532E-01
          2   -1    0    0  501    0  0.00000000000E+00  0.00000000000E+00  0.26461726888E+04  0.26461726888E+04  0.25500000000E-02 0.  1.
         -2   -1    0    0    0  501 -0.00000000000E+00 -0.00000000000E+00 -0.23365916455E+03  0.23365916456E+03  0.25500000000E-02 0. -1.
    5000001    1    1    2    0    0 -0.75455144095E+03  0.15515845419E+03  0.95416528491E+03  0.12287320350E+04  0.77000000000E+02 0.  0.
   -5000001    1    1    2    0    0  0.75455144095E+03 -0.15515845419E+03  0.14583482394E+04  0.16510998184E+04  0.77000000000E+02 0.  0.
<mgrwt>
<rscale>  0 0.15726443E+04</rscale>
<asrwt>0</asrwt>
<pdfrwt beam="1">  1        2 0.37802462E+00 0.15726443E+04</pdfrwt>
<pdfrwt beam="2">  1       -2 0.33379885E-01 0.15726443E+04</pdfrwt>
<totfact> 0.29805757E+01</totfact>
</mgrwt>
</event>
<event>
 4    1  0.6853809E-004  0.3674891E+03  0.7818608E-02  0.1055657E+00
         -2   -1    0    0    0  501 -0.00000000000E+00  0.00000000000E+00  0.10037485510E+02  0.10037485834E+02  0.25500000000E-02 0. -1.
          2   -1    0    0  501    0  0.00000000000E+00 -0.00000000000E+00 -0.33635972642E+04  0.33635972642E+04  0.25500000000E-02 0.  1.
    5000001    1    1    2    0    0 -0.14949991595E+03  0.38762542210E+02 -0.22559571383E+04  0.22625482027E+04  0.77000000000E+02 0.  0.
   -5000001    1    1    2    0    0  0.14949991595E+03 -0.38762542210E+02 -0.10976026404E+04  0.11110865474E+04  0.77000000000E+02 0.  0.
<mgrwt>
<rscale>  0 0.36748910E+03</rscale>
<asrwt>0</asrwt>
<pdfrwt beam="1">  1        2 0.48051318E+00 0.36748910E+03</pdfrwt>
<pdfrwt beam="2">  1       -2 0.14339287E-02 0.36748910E+03</pdfrwt>
<totfact> 0.21910328E+03</totfact>
</mgrwt>
</event>
<event>
 4    1  0.6853809E-004  0.2980110E+03  0.7818608E-02  0.1086239E+00
         -2   -1    0    0    0  501 -0.00000000000E+00  0.00000000000E+00  0.23014808323E+02  0.23014808465E+02  0.25500000000E-02 0. -1.
          2   -1    0    0  501    0  0.00000000000E+00 -0.00000000000E+00 -0.96471086756E+03  0.96471086756E+03  0.25500000000E-02 0.  1.
    5000001    1    1    2    0    0  0.12252511794E+03  0.13600470703E+02 -0.36211478021E+03  0.39019673420E+03  0.77000000000E+02 0.  0.
   -5000001    1    1    2    0    0 -0.12252511794E+03 -0.13600470703E+02 -0.57958127902E+03  0.59752894183E+03  0.77000000000E+02 0.  0.
<mgrwt>
<rscale>  0 0.29801098E+03</rscale>
<asrwt>0</asrwt>
<pdfrwt beam="1">  1        2 0.13781581E+00 0.29801098E+03</pdfrwt>
<pdfrwt beam="2">  1       -2 0.32878304E-02 0.29801098E+03</pdfrwt>
<totfact> 0.11295909E+04</totfact>
</mgrwt>
</event>
<event>
 4    1  0.6853809E-004  0.3879694E+03  0.7818608E-02  0.1048027E+00
         -2   -1    0    0    0  501 -0.00000000000E+00  0.00000000000E+00  0.26400737765E+02  0.26400737888E+02  0.25500000000E-02 0. -1.
          2   -1    0    0  501    0  0.00000000000E+00 -0.00000000000E+00 -0.14253415620E+04  0.14253415620E+04  0.25500000000E-02 0.  1.
    5000001    1    1    2    0    0  0.14264936775E+03 -0.10486697807E+03 -0.76998745273E+03  0.79382340768E+03  0.77000000000E+02 0.  0.
   -5000001    1    1    2    0    0 -0.14264936775E+03  0.10486697807E+03 -0.62895337153E+03  0.65791889224E+03  0.77000000000E+02 0.  0.
<mgrwt>
<rscale>  0 0.38796943E+03</rscale>
<asrwt>0</asrwt>
<pdfrwt beam="1">  1        2 0.20362017E+00 0.38796943E+03</pdfrwt>
<pdfrwt beam="2">  1       -2 0.37715349E-02 0.38796943E+03</pdfrwt>
<totfact> 0.51369468E+03</totfact>
</mgrwt>
</event>
<event>
 4    1  0.6853809E-004  0.2263326E+03  0.7818608E-02  0.1129248E+00
          2   -1    0    0  501    0  0.00000000000E+00  0.00000000000E+00  0.33800377517E+03  0.33800377518E+03  0.25500000000E-02 0.  1.
         -2   -1    0    0    0  501 -0.00000000000E+00 -0.00000000000E+00 -0.37888971132E+02  0.37888971218E+02  0.25500000000E-02 0. -1.
    5000001    1    1    2    0    0  0.43670109220E+02  0.39217316875E+02  0.24736001487E+03  0.26563330616E+03  0.77000000000E+02 0.  0.
   -5000001    1    1    2    0    0 -0.43670109220E+02 -0.39217316875E+02  0.52754789164E+02  0.11025944024E+03  0.77000000000E+02 0.  0.
<mgrwt>
<rscale>  0 0.22633263E+03</rscale>
<asrwt>0</asrwt>
<pdfrwt beam="1">  1        2 0.48286253E-01 0.22633263E+03</pdfrwt>
<pdfrwt beam="2">  1       -2 0.54127103E-02 0.22633263E+03</pdfrwt>
<totfact> 0.17641756E+04</totfact>
</mgrwt>
</event>
<event>
 4    1  0.6853809E-004  0.2296520E+03  0.7818608E-02  0.1126885E+00
          2   -1    0    0  501    0  0.00000000000E+00  0.00000000000E+00  0.88694078110E+03  0.88694078111E+03  0.25500000000E-02 0.  1.
         -2   -1    0    0    0  501 -0.00000000000E+00 -0.00000000000E+00 -0.14865711760E+02  0.14865711979E+02  0.25500000000E-02 0. -1.
    5000001    1    1    2    0    0 -0.56924550997E+02 -0.61840879469E+02  0.49035117045E+03  0.50342623019E+03  0.77000000000E+02 0.  0.
   -5000001    1    1    2    0    0  0.56924550997E+02  0.61840879469E+02  0.38172389890E+03  0.39838026290E+03  0.77000000000E+02 0.  0.
<mgrwt>
<rscale>  0 0.22965196E+03</rscale>
<asrwt>0</asrwt>
<pdfrwt beam="1">  1        2 0.12670583E+00 0.22965196E+03</pdfrwt>
<pdfrwt beam="2">  1       -2 0.21236730E-02 0.22965196E+03</pdfrwt>
<totfact> 0.23816555E+04</totfact>
</mgrwt>
</event>
<event>
 4    1  0.6853809E-004  0.2619430E+03  0.7818608E-02  0.1105981E+00
         -2   -1    0    0    0  501 -0.00000000000E+00  0.00000000000E+00  0.14554958467E+02  0.14554958691E+02  0.25500000000E-02 0. -1.
          2   -1    0    0  501    0  0.00000000000E+00 -0.00000000000E+00 -0.11785353713E+04  0.11785353713E+04  0.25500000000E-02 0.  1.
    5000001    1    1    2    0    0 -0.81974508128E+02  0.45279333424E+02 -0.35633380800E+03  0.37639450148E+03  0.77000000000E+02 0.  0.
   -5000001    1    1    2    0    0  0.81974508128E+02 -0.45279333424E+02 -0.80764660483E+03  0.81669582851E+03  0.77000000000E+02 0.  0.
<mgrwt>
<rscale>  0 0.26194300E+03</rscale>
<asrwt>0</asrwt>
<pdfrwt beam="1">  1        2 0.16836213E+00 0.26194300E+03</pdfrwt>
<pdfrwt beam="2">  1       -2 0.20792806E-02 0.26194300E+03</pdfrwt>
<totfact> 0.16738384E+04</totfact>
</mgrwt>
</event>
<event>
 4    1  0.6853809E-004  0.2114237E+03  0.7818608E-02  0.1140443E+00
         -2   -1    0    0    0  501 -0.00000000000E+00  0.00000000000E+00  0.10208215532E+02  0.10208215850E+02  0.25500000000E-02 0. -1.
          2   -1    0    0  501    0  0.00000000000E+00 -0.00000000000E+00 -0.10947062209E+04  0.10947062209E+04  0.25500000000E-02 0.  1.
    5000001    1    1    2    0    0  0.10919276287E+01  0.72398668362E+02 -0.55165263863E+03  0.56168709545E+03  0.77000000000E+02 0.  0.
   -5000001    1    1    2    0    0 -0.10919276287E+01 -0.72398668362E+02 -0.53284536674E+03  0.54322734131E+03  0.77000000000E+02 0.  0.
<mgrwt>
<rscale>  0 0.21142372E+03</rscale>
<asrwt>0</asrwt>
<pdfrwt beam="1">  1        2 0.15638653E+00 0.21142372E+03</pdfrwt>
<pdfrwt beam="2">  1       -2 0.14583172E-02 0.21142372E+03</pdfrwt>
<totfact> 0.30931373E+04</totfact>
</mgrwt>
</event>
<event>
 4    1  0.6853809E-004  0.1859368E+03  0.7818608E-02  0.1162178E+00
          2   -1    0    0  501    0  0.00000000000E+00  0.00000000000E+00  0.11923689293E+04  0.11923689293E+04  0.25500000000E-02 0.  1.
         -2   -1    0    0    0  501 -0.00000000000E+00 -0.00000000000E+00 -0.72487004376E+01  0.72487008862E+01  0.25500000000E-02 0. -1.
    5000001    1    1    2    0    0  0.60993165287E+01  0.48173765949E+02  0.47079251428E+03  0.47951277865E+03  0.77000000000E+02 0.  0.
   -5000001    1    1    2    0    0 -0.60993165287E+01 -0.48173765949E+02  0.71432771461E+03  0.72010485157E+03  0.77000000000E+02 0.  0.
<mgrwt>
<rscale>  0 0.18593682E+03</rscale>
<asrwt>0</asrwt>
<pdfrwt beam="1">  1        2 0.17033845E+00 0.18593682E+03</pdfrwt>
<pdfrwt beam="2">  1       -2 0.10355284E-02 0.18593682E+03</pdfrwt>
<totfact> 0.44471140E+04</totfact>
</mgrwt>
</event>
<event>
 4    1  0.6853809E-004  0.3947428E+03  0.7818608E-02  0.1045615E+00
         -2   -1    0    0    0  501 -0.00000000000E+00  0.00000000000E+00  0.12065007515E+03  0.12065007518E+03  0.25500000000E-02 0. -1.
          2   -1    0    0  501    0  0.00000000000E+00 -0.00000000000E+00 -0.32287972849E+03  0.32287972850E+03  0.25500000000E-02 0.  1.
    5000001    1    1    2    0    0 -0.29685040608E+01  0.12545626213E+03 -0.24880789303E+03  0.28910630114E+03  0.77000000000E+02 0.  0.
   -5000001    1    1    2    0    0  0.29685040608E+01 -0.12545626213E+03  0.46578239686E+02  0.15442350254E+03  0.77000000000E+02 0.  0.
<mgrwt>
<rscale>  0 0.39474277E+03</rscale>
<asrwt>0</asrwt>
<pdfrwt beam="1">  1        2 0.46125675E-01 0.39474277E+03</pdfrwt>
<pdfrwt beam="2">  1       -2 0.17235725E-01 0.39474277E+03</pdfrwt>
<totfact> 0.29859459E+03</totfact>
</mgrwt>
</event>
<event>
 4    1  0.6853809E-004  0.2563312E+03  0.7818608E-02  0.1109368E+00
          2   -1    0    0  501    0  0.00000000000E+00  0.00000000000E+00  0.86282919294E+03  0.86282919294E+03  0.25500000000E-02 0.  1.
         -2   -1    0    0    0  501 -0.00000000000E+00 -0.00000000000E+00 -0.19037856666E+02  0.19037856837E+02  0.25500000000E-02 0. -1.
    5000001    1    1    2    0    0 -0.54181579649E+02 -0.73462986390E+02  0.58197198417E+03  0.59409834565E+03  0.77000000000E+02 0.  0.
   -5000001    1    1    2    0    0  0.54181579649E+02  0.73462986390E+02  0.26181935210E+03  0.28776870413E+03  0.77000000000E+02 0.  0.
<mgrwt>
<rscale>  0 0.25633118E+03</rscale>
<asrwt>0</asrwt>
<pdfrwt beam="1">  1        2 0.12326134E+00 0.25633118E+03</pdfrwt>
<pdfrwt beam="2">  1       -2 0.27196932E-02 0.25633118E+03</pdfrwt>
<totfact> 0.17227946E+04</totfact>
</mgrwt>
</event>
<event>
 4    1  0.6853809E-004  0.5466743E+03  0.7818608E-02  0.1002267E+00
          2   -1    0    0  501    0  0.00000000000E+00  0.00000000000E+00  0.28205425209E+04  0.28205425209E+04  0.25500000000E-02 0.  1.
         -2   -1    0    0    0  501 -0.00000000000E+00 -0.00000000000E+00 -0.26488949330E+02  0.26488949453E+02  0.25500000000E-02 0. -1.
    5000001    1    1    2    0    0 -0.14658464720E+03 -0.60674299938E+02  0.30938622634E+03  0.35611412007E+03  0.77000000000E+02 0.  0.
   -5000001    1    1    2    0    0  0.14658464720E+03  0.60674299938E+02  0.24846673452E+04  0.24909173503E+04  0.77000000000E+02 0.  0.
<mgrwt>
<rscale>  0 0.54667434E+03</rscale>
<asrwt>0</asrwt>
<pdfrwt beam="1">  1        2 0.40293455E+00 0.54667434E+03</pdfrwt>
<pdfrwt beam="2">  1       -2 0.37841366E-02 0.54667434E+03</pdfrwt>
<totfact> 0.99752117E+02</totfact>
</mgrwt>
</event>
<event>
 4    1  0.6853809E-004  0.3012545E+03  0.7818608E-02  0.1084615E+00
         -2   -1    0    0    0  501 -0.00000000000E+00  0.00000000000E+00  0.39754707898E+02  0.39754707980E+02  0.25500000000E-02 0. -1.
          2   -1    0    0  501    0  0.00000000000E+00 -0.00000000000E+00 -0.57071382434E+03  0.57071382435E+03  0.25500000000E-02 0.  1.
    5000001    1    1    2    0    0 -0.58183700297E+02 -0.40936829849E+02 -0.46303588798E+02  0.11460449098E+03  0.77000000000E+02 0.  0.
   -5000001    1    1    2    0    0  0.58183700297E+02  0.40936829849E+02 -0.48465552765E+03  0.49586404134E+03  0.77000000000E+02 0.  0.
<mgrwt>
<rscale>  0 0.30125445E+03</rscale>
<asrwt>0</asrwt>
<pdfrwt beam="1">  1        2 0.81530542E-01 0.30125445E+03</pdfrwt>
<pdfrwt beam="2">  1       -2 0.56792443E-02 0.30125445E+03</pdfrwt>
<totfact> 0.93762393E+03</totfact>
</mgrwt>
</event>
<event>
 4    1  0.6853809E-004  0.2836060E+03  0.7818608E-02  0.1093736E+00
         -2   -1    0    0    0  501 -0.00000000000E+00  0.00000000000E+00  0.26674879271E+02  0.26674879393E+02  0.25500000000E-02 0. -1.
          2   -1    0    0  501    0  0.00000000000E+00 -0.00000000000E+00 -0.75382119200E+03  0.75382119201E+03  0.25500000000E-02 0.  1.
    5000001    1    1    2    0    0 -0.11853345720E+03  0.68463418491E+01 -0.33864680028E+03  0.36702548714E+03  0.77000000000E+02 0.  0.
   -5000001    1    1    2    0    0  0.11853345720E+03 -0.68463418491E+01 -0.38849951245E+03  0.41347058426E+03  0.77000000000E+02 0.  0.
<mgrwt>
<rscale>  0 0.28360599E+03</rscale>
<asrwt>0</asrwt>
<pdfrwt beam="1">  1        2 0.10768873E+00 0.28360599E+03</pdfrwt>
<pdfrwt beam="2">  1       -2 0.38106975E-02 0.28360599E+03</pdfrwt>
<totfact> 0.12372956E+04</totfact>
</mgrwt>
</event>
<event>
 4    1  0.6853809E-004  0.2518547E+03  0.7818608E-02  0.1112138E+00
         -2   -1    0    0    0  501 -0.00000000000E+00  0.00000000000E+00  0.36657962725E+02  0.36657962814E+02  0.25500000000E-02 0. -1.
          2   -1    0    0  501    0  0.00000000000E+00 -0.00000000000E+00 -0.43258544541E+03  0.43258544542E+03  0.25500000000E-02 0.  1.
    5000001    1    1    2    0    0 -0.55226454529E+02  0.81412197960E+02 -0.16845799840E+03  0.20972602242E+03  0.77000000000E+02 0.  0.
   -5000001    1    1    2    0    0  0.55226454529E+02 -0.81412197960E+02 -0.22746948429E+03  0.25951738581E+03  0.77000000000E+02 0.  0.
<mgrwt>
<rscale>  0 0.25185473E+03</rscale>
<asrwt>0</asrwt>
<pdfrwt beam="1">  1        2 0.61797918E-01 0.25185473E+03</pdfrwt>
<pdfrwt beam="2">  1       -2 0.52368521E-02 0.25185473E+03</pdfrwt>
<totfact> 0.14309421E+04</totfact>
</mgrwt>
</event>
<event>
 4    1  0.6853809E-004  0.2517100E+03  0.7818608E-02  0.1112229E+00
          2   -1    0    0  501    0  0.00000000000E+00  0.00000000000E+00  0.21520288490E+04  0.21520288490E+04  0.25500000000E-02 0.  1.
         -2   -1    0    0    0  501 -0.00000000000E+00 -0.00000000000E+00 -0.73602530156E+01  0.73602534573E+01  0.25500000000E-02 0. -1.
    5000001    1    1    2    0    0 -0.78793280613E+02 -0.39266985081E+02  0.14710629820E+04  0.14757051109E+04  0.77000000000E+02 0.  0.
   -5000001    1    1    2    0    0  0.78793280613E+02  0.39266985081E+02  0.67360561400E+03  0.68368399162E+03  0.77000000000E+02 0.  0.
<mgrwt>
<rscale>  0 0.25170997E+03</rscale>
<asrwt>0</asrwt>
<pdfrwt beam="1">  1        2 0.30743323E+00 0.25170997E+03</pdfrwt>
<pdfrwt beam="2">  1       -2 0.10514629E-02 0.25170997E+03</pdfrwt>
<totfact> 0.14722354E+04</totfact>
</mgrwt>
</event>
<event>
 4    1  0.6853809E-004  0.2050951E+03  0.7818608E-02  0.1145510E+00
          2   -1    0    0  501    0  0.00000000000E+00  0.00000000000E+00  0.55869012408E+03  0.55869012409E+03  0.25500000000E-02 0.  1.
         -2   -1    0    0    0  501 -0.00000000000E+00 -0.00000000000E+00 -0.18822591547E+02  0.18822591720E+02  0.25500000000E-02 0. -1.
    5000001    1    1    2    0    0 -0.11636436457E+02 -0.55482679683E+02  0.16558603869E+03  0.19121054000E+03  0.77000000000E+02 0.  0.
   -5000001    1    1    2    0    0  0.11636436457E+02  0.55482679683E+02  0.37428149385E+03  0.38630217581E+03  0.77000000000E+02 0.  0.
<mgrwt>
<rscale>  0 0.20509506E+03</rscale>
<asrwt>0</asrwt>
<pdfrwt beam="1">  1        2 0.79812859E-01 0.20509506E+03</pdfrwt>
<pdfrwt beam="2">  1       -2 0.26889422E-02 0.20509506E+03</pdfrwt>
<totfact> 0.28903462E+04</totfact>
</mgrwt>
</event>
<event>
 4    1  0.6853809E-004  0.7650395E+03  0.7818608E-02  0.9612047E-01
         -2   -1    0    0    0  501 -0.00000000000E+00  0.00000000000E+00  0.68537303119E+02  0.68537303167E+02  0.25500000000E-02 0. -1.
          2   -1    0    0  501    0  0.00000000000E+00 -0.00000000000E+00 -0.21349154241E+04  0.21349154241E+04  0.25500000000E-02 0.  1.
    5000001    1    1    2    0    0 -0.20178658338E+02 -0.31542678135E+03 -0.45362725609E+03  0.55821852363E+03  0.77000000000E+02 0.  0.
   -5000001    1    1    2    0    0  0.20178658338E+02  0.31542678135E+03 -0.16127508649E+04  0.16452342037E+04  0.77000000000E+02 0.  0.
<mgrwt>
<rscale>  0 0.76503946E+03</rscale>
<asrwt>0</asrwt>
<pdfrwt beam="1">  1        2 0.30498788E+00 0.76503946E+03</pdfrwt>
<pdfrwt beam="2">  1       -2 0.97910446E-02 0.76503946E+03</pdfrwt>
<totfact> 0.49619460E+02</totfact>
</mgrwt>
</event>
<event>
 4    1  0.6853809E-004  0.2478883E+03  0.7818608E-02  0.1114647E+00
          2   -1    0    0  501    0  0.00000000000E+00  0.00000000000E+00  0.33533363676E+03  0.33533363677E+03  0.25500000000E-02 0.  1.
         -2   -1    0    0    0  501 -0.00000000000E+00 -0.00000000000E+00 -0.45811561358E+02  0.45811561429E+02  0.25500000000E-02 0. -1.
    5000001    1    1    2    0    0 -0.23170778344E+02  0.71801319625E+02  0.50719636240E+02  0.11913771850E+03  0.77000000000E+02 0.  0.
   -5000001    1    1    2    0    0  0.23170778344E+02 -0.71801319625E+02  0.23880243916E+03  0.26200747970E+03  0.77000000000E+02 0.  0.
<mgrwt>
<rscale>  0 0.24788834E+03</rscale>
<asrwt>0</asrwt>
<pdfrwt beam="1">  1        2 0.47904805E-01 0.24788834E+03</pdfrwt>
<pdfrwt beam="2">  1       -2 0.65445088E-02 0.24788834E+03</pdfrwt>
<totfact> 0.13377840E+04</totfact>
</mgrwt>
</event>
<event>
 4    1  0.6853809E-004  0.2038504E+03  0.7818608E-02  0.1146530E+00
          2   -1    0    0  501    0  0.00000000000E+00  0.00000000000E+00  0.35889015500E+03  0.35889015501E+03  0.25500000000E-02 0.  1.
         -2   -1    0    0    0  501 -0.00000000000E+00 -0.00000000000E+00 -0.28946881381E+02  0.28946881494E+02  0.25500000000E-02 0. -1.
    5000001    1    1    2    0    0 -0.38276948046E+01 -0.66250727453E+02  0.17920151922E+03  0.20602425737E+03  0.77000000000E+02 0.  0.
   -5000001    1    1    2    0    0  0.38276948046E+01  0.66250727453E+02  0.15074175440E+03  0.18181277913E+03  0.77000000000E+02 0.  0.
<mgrwt>
<rscale>  0 0.20385044E+03</rscale>
<asrwt>0</asrwt>
<pdfrwt beam="1">  1        2 0.51270026E-01 0.20385044E+03</pdfrwt>
<pdfrwt beam="2">  1       -2 0.41352685E-02 0.20385044E+03</pdfrwt>
<totfact> 0.24656738E+04</totfact>
</mgrwt>
</event>
<event>
 4    1  0.6853809E-004  0.2693873E+03  0.7818608E-02  0.1101631E+00
         -2   -1    0    0    0  501 -0.00000000000E+00  0.00000000000E+00  0.15606681851E+03  0.15606681853E+03  0.25500000000E-02 0. -1.
          2   -1    0    0  501    0  0.00000000000E+00 -0.00000000000E+00 -0.11624751917E+03  0.11624751920E+03  0.25500000000E-02 0.  1.
    5000001    1    1    2    0    0  0.58731912781E+02  0.82920325215E+02  0.63834781066E+02  0.14258014303E+03  0.77000000000E+02 0.  0.
   -5000001    1    1    2    0    0 -0.58731912781E+02 -0.82920325215E+02 -0.24015481729E+02  0.12973419470E+03  0.77000000000E+02 0.  0.
<mgrwt>
<rscale>  0 0.26938731E+03</rscale>
<asrwt>0</asrwt>
<pdfrwt beam="1">  1        2 0.16606788E-01 0.26938731E+03</pdfrwt>
<pdfrwt beam="2">  1       -2 0.22295260E-01 0.26938731E+03</pdfrwt>
<totfact> 0.59547867E+03</totfact>
</mgrwt>
</event>
<event>
 4    1  0.6853809E-004  0.2857771E+03  0.7818608E-02  0.1092575E+00
         -2   -1    0    0    0  501 -0.00000000000E+00  0.00000000000E+00  0.28884597690E+02  0.28884597803E+02  0.25500000000E-02 0. -1.
          2   -1    0    0  501    0  0.00000000000E+00 -0.00000000000E+00 -0.70685227340E+03  0.70685227341E+03  0.25500000000E-02 0.  1.
    5000001    1    1    2    0    0  0.23623834499E+02  0.11489684466E+03 -0.40848486231E+03  0.43191232120E+03  0.77000000000E+02 0.  0.
   -5000001    1    1    2    0    0 -0.23623834499E+02 -0.11489684466E+03 -0.26948281340E+03  0.30382455001E+03  0.77000000000E+02 0.  0.
<mgrwt>
<rscale>  0 0.28577714E+03</rscale>
<asrwt>0</asrwt>
<pdfrwt beam="1">  1        2 0.10097889E+00 0.28577714E+03</pdfrwt>
<pdfrwt beam="2">  1       -2 0.41263715E-02 0.28577714E+03</pdfrwt>
<totfact> 0.11863165E+04</totfact>
</mgrwt>
</event>
<event>
 4    1  0.6853809E-004  0.2093761E+03  0.7818608E-02  0.1142061E+00
          2   -1    0    0  501    0  0.00000000000E+00  0.00000000000E+00  0.21195704784E+04  0.21195704784E+04  0.25500000000E-02 0.  1.
         -2   -1    0    0    0  501 -0.00000000000E+00 -0.00000000000E+00 -0.51706658714E+01  0.51706665002E+01  0.25500000000E-02 0. -1.
    5000001    1    1    2    0    0  0.21315579762E+02 -0.45140211365E+02  0.15685000142E+04  0.15711821305E+04  0.77000000000E+02 0.  0.
   -5000001    1    1    2    0    0 -0.21315579762E+02  0.45140211365E+02  0.54589979835E+03  0.55355901444E+03  0.77000000000E+02 0.  0.
<mgrwt>
<rscale>  0 0.20937613E+03</rscale>
<asrwt>0</asrwt>
<pdfrwt beam="1">  1        2 0.30279598E+00 0.20937613E+03</pdfrwt>
<pdfrwt beam="2">  1       -2 0.73866611E-03 0.20937613E+03</pdfrwt>
<totfact> 0.25263918E+04</totfact>
</mgrwt>
</event>
<event>
 4    1  0.6853809E-004  0.2224019E+03  0.7818608E-02  0.1132105E+00
         -2   -1    0    0    0  501 -0.00000000000E+00  0.00000000000E+00  0.35710397024E+02  0.35710397115E+02  0.25500000000E-02 0. -1.
          2   -1    0    0  501    0  0.00000000000E+00 -0.00000000000E+00 -0.34627585553E+03  0.34627585554E+03  0.25500000000E-02 0.  1.
    5000001    1    1    2    0    0  0.48269859854E+01  0.80076780176E+02 -0.15704920443E+03  0.19242931983E+03  0.77000000000E+02 0.  0.
   -5000001    1    1    2    0    0 -0.48269859854E+01 -0.80076780176E+02 -0.15351625408E+03  0.18955693283E+03  0.77000000000E+02 0.  0.
<mgrwt>
<rscale>  0 0.22240187E+03</rscale>
<asrwt>0</asrwt>
<pdfrwt beam="1">  1        2 0.49467977E-01 0.22240187E+03</pdfrwt>
<pdfrwt beam="2">  1       -2 0.51014855E-02 0.22240187E+03</pdfrwt>
<totfact> 0.18785956E+04</totfact>
</mgrwt>
</event>
<event>
 4    1  0.6853809E-004  0.3261871E+03  0.7818608E-02  0.1072837E+00
          2   -1    0    0  501    0  0.00000000000E+00  0.00000000000E+00  0.12049746067E+04  0.12049746067E+04  0.25500000000E-02 0.  1.
         -2   -1    0    0    0  501 -0.00000000000E+00 -0.00000000000E+00 -0.22074750566E+02  0.22074750713E+02  0.25500000000E-02 0. -1.
    5000001    1    1    2    0    0  0.11438640780E+03 -0.82536832515E+02  0.48679795541E+03  0.51263810666E+03  0.77000000000E+02 0.  0.
   -5000001    1    1    2    0    0 -0.11438640780E+03  0.82536832515E+02  0.69610190074E+03  0.71441125077E+03  0.77000000000E+02 0.  0.
<mgrwt>
<rscale>  0 0.32618715E+03</rscale>
<asrwt>0</asrwt>
<pdfrwt beam="1">  1        2 0.17213926E+00 0.32618715E+03</pdfrwt>
<pdfrwt beam="2">  1       -2 0.31535352E-02 0.32618715E+03</pdfrwt>
<totfact> 0.87856385E+03</totfact>
</mgrwt>
</event>
<event>
 4    1  0.6853809E-004  0.2094383E+03  0.7818608E-02  0.1142012E+00
          2   -1    0    0  501    0  0.00000000000E+00  0.00000000000E+00  0.23437181486E+04  0.23437181486E+04  0.25500000000E-02 0.  1.
         -2   -1    0    0    0  501 -0.00000000000E+00 -0.00000000000E+00 -0.46789344864E+01  0.46789351812E+01  0.25500000000E-02 0. -1.
    5000001    1    1    2    0    0 -0.38642027027E+02  0.59503830416E+02  0.11895539069E+04  0.11941530092E+04  0.77000000000E+02 0.  0.
   -5000001    1    1    2    0    0  0.38642027027E+02 -0.59503830416E+02  0.11494853073E+04  0.11542440746E+04  0.77000000000E+02 0.  0.
<mgrwt>
<rscale>  0 0.20943834E+03</rscale>
<asrwt>0</asrwt>
<pdfrwt beam="1">  1        2 0.33481690E+00 0.20943834E+03</pdfrwt>
<pdfrwt beam="2">  1       -2 0.66841922E-03 0.20943834E+03</pdfrwt>
<totfact> 0.22700583E+04</totfact>
</mgrwt>
</event>
<event>
 4    1  0.6853809E-004  0.3375212E+03  0.7818608E-02  0.1067857E+00
          2   -1    0    0  501    0  0.00000000000E+00  0.00000000000E+00  0.60220735302E+02  0.60220735356E+02  0.25500000000E-02 0.  1.
         -2   -1    0    0    0  501 -0.00000000000E+00 -0.00000000000E+00 -0.47292923168E+03  0.47292923169E+03  0.25500000000E-02 0. -1.
    5000001    1    1    2    0    0  0.14704007137E+03 -0.27647185424E+02 -0.18600267721E+03  0.25082094287E+03  0.77000000000E+02 0.  0.
   -5000001    1    1    2    0    0 -0.14704007137E+03  0.27647185424E+02 -0.22670581917E+03  0.28232902418E+03  0.77000000000E+02 0.  0.
<mgrwt>
<rscale>  0 0.33752124E+03</rscale>
<asrwt>0</asrwt>
<pdfrwt beam="1">  1        2 0.86029625E-02 0.33752124E+03</pdfrwt>
<pdfrwt beam="2">  1       -2 0.67561317E-01 0.33752124E+03</pdfrwt>
<totfact> 0.16032913E+03</totfact>
</mgrwt>
</event>
<event>
 4    1  0.6853809E-004  0.2125496E+03  0.7818608E-02  0.1139563E+00
         -2   -1    0    0    0  501 -0.00000000000E+00  0.00000000000E+00  0.48123748458E+02  0.48123748525E+02  0.25500000000E-02 0. -1.
          2   -1    0    0  501    0  0.00000000000E+00 -0.00000000000E+00 -0.23469353052E+03  0.23469353053E+03  0.25500000000E-02 0.  1.
    5000001    1    1    2    0    0 -0.58681794208E+02  0.52523661750E+00 -0.34958344733E+02  0.10293160210E+03  0.77000000000E+02 0.  0.
   -5000001    1    1    2    0    0  0.58681794208E+02 -0.52523661750E+00 -0.15161143733E+03  0.17988567696E+03  0.77000000000E+02 0.  0.
<mgrwt>
<rscale>  0 0.21254959E+03</rscale>
<asrwt>0</asrwt>
<pdfrwt beam="1">  1        2 0.33527646E-01 0.21254959E+03</pdfrwt>
<pdfrwt beam="2">  1       -2 0.68748214E-02 0.21254959E+03</pdfrwt>
<totfact> 0.18033047E+04</totfact>
</mgrwt>
</event>
<event>
 4    1  0.6853809E-004  0.2892511E+03  0.7818608E-02  0.1090741E+00
          2   -1    0    0  501    0  0.00000000000E+00  0.00000000000E+00  0.16311981648E+04  0.16311981648E+04  0.25500000000E-02 0.  1.
         -2   -1    0    0    0  501 -0.00000000000E+00 -0.00000000000E+00 -0.12822817433E+02  0.12822817687E+02  0.25500000000E-02 0. -1.
    5000001    1    1    2    0    0  0.76778985059E+02 -0.26396059349E+02  0.28839711608E+03  0.30934392035E+03  0.77000000000E+02 0.  0.
   -5000001    1    1    2    0    0 -0.76778985059E+02  0.26396059349E+02  0.13299782313E+04  0.13346770621E+04  0.77000000000E+02 0.  0.
<mgrwt>
<rscale>  0 0.28925115E+03</rscale>
<asrwt>0</asrwt>
<pdfrwt beam="1">  1        2 0.23302834E+00 0.28925115E+03</pdfrwt>
<pdfrwt beam="2">  1       -2 0.18318308E-02 0.28925115E+03</pdfrwt>
<totfact> 0.11808090E+04</totfact>
</mgrwt>
</event>
<event>
 4    1  0.6853809E-004  0.2895900E+03  0.7818608E-02  0.1090563E+00
          2   -1    0    0  501    0  0.00000000000E+00  0.00000000000E+00  0.39105686041E+03  0.39105686042E+03  0.25500000000E-02 0.  1.
         -2   -1    0    0    0  501 -0.00000000000E+00 -0.00000000000E+00 -0.53612646913E+02  0.53612646974E+02  0.25500000000E-02 0. -1.
    5000001    1    1    2    0    0 -0.44526569025E+02 -0.10322240242E+03  0.24393273011E+03  0.27940947824E+03  0.77000000000E+02 0.  0.
   -5000001    1    1    2    0    0  0.44526569025E+02  0.10322240242E+03  0.93511483385E+02  0.16526002915E+03  0.77000000000E+02 0.  0.
<mgrwt>
<rscale>  0 0.28959001E+03</rscale>
<asrwt>0</asrwt>
<pdfrwt beam="1">  1        2 0.55865265E-01 0.28959001E+03</pdfrwt>
<pdfrwt beam="2">  1       -2 0.76589497E-02 0.28959001E+03</pdfrwt>
<totfact> 0.89481602E+03</totfact>
</mgrwt>
</event>
<event>
 4    1  0.6853809E-004  0.3515816E+03  0.7818608E-02  0.1061968E+00
         -2   -1    0    0    0  501 -0.00000000000E+00  0.00000000000E+00  0.28944112510E+02  0.28944112622E+02  0.25500000000E-02 0. -1.
          2   -1    0    0  501    0  0.00000000000E+00 -0.00000000000E+00 -0.10676575860E+04  0.10676575860E+04  0.25500000000E-02 0.  1.
    5000001    1    1    2    0    0  0.85176133281E+02 -0.12841732667E+03 -0.62863128702E+03  0.65180693345E+03  0.77000000000E+02 0.  0.
   -5000001    1    1    2    0    0 -0.85176133281E+02  0.12841732667E+03 -0.41008218649E+03  0.44479476520E+03  0.77000000000E+02 0.  0.
<mgrwt>
<rscale>  0 0.35158158E+03</rscale>
<asrwt>0</asrwt>
<pdfrwt beam="1">  1        2 0.15252249E+00 0.35158158E+03</pdfrwt>
<pdfrwt beam="2">  1       -2 0.41348739E-02 0.35158158E+03</pdfrwt>
<totfact> 0.69839566E+03</totfact>
</mgrwt>
</event>
<event>
 4    1  0.6853809E-004  0.3531435E+03  0.7818608E-02  0.1061332E+00
          2   -1    0    0  501    0  0.00000000000E+00  0.00000000000E+00  0.27178553134E+03  0.27178553135E+03  0.25500000000E-02 0.  1.
         -2   -1    0    0    0  501 -0.00000000000E+00 -0.00000000000E+00 -0.11471390505E+03  0.11471390507E+03  0.25500000000E-02 0. -1.
    5000001    1    1    2    0    0 -0.20911834942E+01 -0.14366180138E+03  0.15280963192E+03  0.22343426289E+03  0.77000000000E+02 0.  0.
   -5000001    1    1    2    0    0  0.20911834942E+01  0.14366180138E+03  0.42619943794E+01  0.16306517354E+03  0.77000000000E+02 0.  0.
<mgrwt>
<rscale>  0 0.35314348E+03</rscale>
<asrwt>0</asrwt>
<pdfrwt beam="1">  1        2 0.38826504E-01 0.35314348E+03</pdfrwt>
<pdfrwt beam="2">  1       -2 0.16387701E-01 0.35314348E+03</pdfrwt>
<totfact> 0.39121165E+03</totfact>
</mgrwt>
</event>
<event>
 4    1  0.6853809E-004  0.2685733E+03  0.7818608E-02  0.1102099E+00
         -2   -1    0    0    0  501 -0.00000000000E+00  0.00000000000E+00  0.90890942258E+03  0.90890942258E+03  0.25500000000E-02 0. -1.
          2   -1    0    0  501    0  0.00000000000E+00 -0.00000000000E+00 -0.19840153113E+02  0.19840153277E+02  0.25500000000E-02 0.  1.
    5000001    1    1    2    0    0 -0.10754548241E+03  0.21673531270E+02  0.41599139674E+03  0.43705104382E+03  0.77000000000E+02 0.  0.
   -5000001    1    1    2    0    0  0.10754548241E+03 -0.21673531270E+02  0.47307787272E+03  0.49169853203E+03  0.77000000000E+02 0.  0.
<mgrwt>
<rscale>  0 0.26857328E+03</rscale>
<asrwt>0</asrwt>
<pdfrwt beam="1">  1        2 0.28343065E-02 0.26857328E+03</pdfrwt>
<pdfrwt beam="2">  1       -2 0.12984425E+00 0.26857328E+03</pdfrwt>
<totfact> 0.15474863E+03</totfact>
</mgrwt>
</event>
<event>
 4    1  0.6853809E-004  0.6796021E+03  0.7818608E-02  0.9752766E-01
          2   -1    0    0  501    0  0.00000000000E+00  0.00000000000E+00  0.16813703713E+04  0.16813703713E+04  0.25500000000E-02 0.  1.
         -2   -1    0    0    0  501 -0.00000000000E+00 -0.00000000000E+00 -0.68673001868E+02  0.68673001916E+02  0.25500000000E-02 0. -1.
    5000001    1    1    2    0    0  0.81212416164E+02  0.31637562952E+03  0.66895424194E+03  0.74841016382E+03  0.77000000000E+02 0.  0.
   -5000001    1    1    2    0    0 -0.81212416164E+02 -0.31637562952E+03  0.94374312750E+03  0.10016332094E+04  0.77000000000E+02 0.  0.
<mgrwt>
<rscale>  0 0.67960209E+03</rscale>
<asrwt>0</asrwt>
<pdfrwt beam="1">  1        2 0.24019572E+00 0.67960209E+03</pdfrwt>
<pdfrwt beam="2">  1       -2 0.98104307E-02 0.67960209E+03</pdfrwt>
<totfact> 0.84416942E+02</totfact>
</mgrwt>
</event>
<event>
 4    1  0.6853809E-004  0.3612330E+03  0.7818608E-02  0.1058097E+00
         -2   -1    0    0    0  501 -0.00000000000E+00  0.00000000000E+00  0.36527588578E+02  0.36527588667E+02  0.25500000000E-02 0. -1.
          2   -1    0    0  501    0  0.00000000000E+00 -0.00000000000E+00 -0.89308718627E+03  0.89308718628E+03  0.25500000000E-02 0.  1.
    5000001    1    1    2    0    0 -0.24512797793E+02 -0.15755482131E+03 -0.51995104151E+03  0.54927450745E+03  0.77000000000E+02 0.  0.
   -5000001    1    1    2    0    0  0.24512797793E+02  0.15755482131E+03 -0.33660855619E+03  0.38034026749E+03  0.77000000000E+02 0.  0.
<mgrwt>
<rscale>  0 0.36123301E+03</rscale>
<asrwt>0</asrwt>
<pdfrwt beam="1">  1        2 0.12758387E+00 0.36123301E+03</pdfrwt>
<pdfrwt beam="2">  1       -2 0.52182275E-02 0.36123301E+03</pdfrwt>
<totfact> 0.62465144E+03</totfact>
</mgrwt>
</event>
<event>
 4    1  0.6853809E-004  0.2078567E+03  0.7818608E-02  0.1143275E+00
          2   -1    0    0  501    0  0.00000000000E+00  0.00000000000E+00  0.45753131014E+03  0.45753131014E+03  0.25500000000E-02 0.  1.
         -2   -1    0    0    0  501 -0.00000000000E+00 -0.00000000000E+00 -0.23607354010E+02  0.23607354148E+02  0.25500000000E-02 0. -1.
    5000001    1    1    2    0    0 -0.28687435598E+02  0.60652058596E+02  0.26151511681E+03  0.28075041851E+03  0.77000000000E+02 0.  0.
   -5000001    1    1    2    0    0  0.28687435598E+02 -0.60652058596E+02  0.17240883932E+03  0.20038824578E+03  0.77000000000E+02 0.  0.
<mgrwt>
<rscale>  0 0.20785672E+03</rscale>
<asrwt>0</asrwt>
<pdfrwt beam="1">  1        2 0.65361613E-01 0.20785672E+03</pdfrwt>
<pdfrwt beam="2">  1       -2 0.33724793E-02 0.20785672E+03</pdfrwt>
<totfact> 0.25774740E+04</totfact>
</mgrwt>
</event>
<event>
 4    1  0.6853809E-004  0.2131302E+03  0.7818608E-02  0.1139111E+00
          2   -1    0    0  501    0  0.00000000000E+00  0.00000000000E+00  0.33342159532E+03  0.33342159533E+03  0.25500000000E-02 0.  1.
         -2   -1    0    0    0  501 -0.00000000000E+00 -0.00000000000E+00 -0.34059342158E+02  0.34059342253E+02  0.25500000000E-02 0. -1.
    5000001    1    1    2    0    0 -0.35803014579E+02 -0.54744998431E+02  0.91254883132E+02  0.13614449824E+03  0.77000000000E+02 0.  0.
   -5000001    1    1    2    0    0  0.35803014579E+02  0.54744998431E+02  0.20810737003E+03  0.23133643934E+03  0.77000000000E+02 0.  0.
<mgrwt>
<rscale>  0 0.21313020E+03</rscale>
<asrwt>0</asrwt>
<pdfrwt beam="1">  1        2 0.47631652E-01 0.21313020E+03</pdfrwt>
<pdfrwt beam="2">  1       -2 0.48656208E-02 0.21313020E+03</pdfrwt>
<totfact> 0.20953983E+04</totfact>
</mgrwt>
</event>
<event>
 4    1  0.6853809E-004  0.1970168E+03  0.7818608E-02  0.1152281E+00
         -2   -1    0    0    0  501 -0.00000000000E+00  0.00000000000E+00  0.61866229653E+02  0.61866229705E+02  0.25500000000E-02 0. -1.
          2   -1    0    0  501    0  0.00000000000E+00 -0.00000000000E+00 -0.15685305321E+03  0.15685305323E+03  0.25500000000E-02 0.  1.
    5000001    1    1    2    0    0  0.35002660443E+02 -0.68380671923E+00  0.85584768170E+01  0.85017065082E+02  0.77000000000E+02 0.  0.
   -5000001    1    1    2    0    0 -0.35002660443E+02  0.68380671923E+00 -0.10354530038E+03  0.13370221786E+03  0.77000000000E+02 0.  0.
<mgrwt>
<rscale>  0 0.19701682E+03</rscale>
<asrwt>0</asrwt>
<pdfrwt beam="1">  1        2 0.22407579E-01 0.19701682E+03</pdfrwt>
<pdfrwt beam="2">  1       -2 0.88380329E-02 0.19701682E+03</pdfrwt>
<totfact> 0.18931007E+04</totfact>
</mgrwt>
</event>
<event>
 4    1  0.6853809E-004  0.2254150E+03  0.7818608E-02  0.1129909E+00
         -2   -1    0    0    0  501 -0.00000000000E+00  0.00000000000E+00  0.11171914966E+03  0.11171914969E+03  0.25500000000E-02 0. -1.
          2   -1    0    0  501    0  0.00000000000E+00 -0.00000000000E+00 -0.11370457705E+03  0.11370457708E+03  0.25500000000E-02 0.  1.
    5000001    1    1    2    0    0 -0.65802809673E+02 -0.34186467121E+02  0.34719375361E+02  0.11239732791E+03  0.77000000000E+02 0.  0.
   -5000001    1    1    2    0    0  0.65802809673E+02  0.34186467121E+02 -0.36704802751E+02  0.11302639886E+03  0.77000000000E+02 0.  0.
<mgrwt>
<rscale>  0 0.22541498E+03</rscale>
<asrwt>0</asrwt>
<pdfrwt beam="1">  1        2 0.16243511E-01 0.22541498E+03</pdfrwt>
<pdfrwt beam="2">  1       -2 0.15959878E-01 0.22541498E+03</pdfrwt>
<totfact> 0.10676897E+04</totfact>
</mgrwt>
</event>
<event>
 4    1  0.6853809E-004  0.1843455E+03  0.7818608E-02  0.1163663E+00
         -2   -1    0    0    0  501 -0.00000000000E+00  0.00000000000E+00  0.15248042901E+02  0.15248043114E+02  0.25500000000E-02 0. -1.
          2   -1    0    0  501    0  0.00000000000E+00 -0.00000000000E+00 -0.55717412618E+03  0.55717412619E+03  0.25500000000E-02 0.  1.
    5000001    1    1    2    0    0 -0.31942108035E+02 -0.39323110050E+02 -0.27238530041E+03  0.28755757185E+03  0.77000000000E+02 0.  0.
   -5000001    1    1    2    0    0  0.31942108035E+02  0.39323110050E+02 -0.26954078287E+03  0.28486459745E+03  0.77000000000E+02 0.  0.
<mgrwt>
<rscale>  0 0.18434549E+03</rscale>
<asrwt>0</asrwt>
<pdfrwt beam="1">  1        2 0.79596291E-01 0.18434549E+03</pdfrwt>
<pdfrwt beam="2">  1       -2 0.21782922E-02 0.18434549E+03</pdfrwt>
<totfact> 0.39162318E+04</totfact>
</mgrwt>
</event>
<event>
 4    1  0.6853809E-004  0.1804324E+03  0.7818608E-02  0.1167385E+00
          2   -1    0    0  501    0  0.00000000000E+00  0.00000000000E+00  0.24753564359E+04  0.24753564359E+04  0.25500000000E-02 0.  1.
         -2   -1    0    0    0  501 -0.00000000000E+00 -0.00000000000E+00 -0.32879946958E+01  0.32879956847E+01  0.25500000000E-02 0. -1.
    5000001    1    1    2    0    0 -0.15940323646E+02 -0.43111712474E+02  0.11005662838E+04  0.11042136834E+04  0.77000000000E+02 0.  0.
   -5000001    1    1    2    0    0  0.15940323646E+02  0.43111712474E+02  0.13715021574E+04  0.13744307482E+04  0.77000000000E+02 0.  0.
<mgrwt>
<rscale>  0 0.18043237E+03</rscale>
<asrwt>0</asrwt>
<pdfrwt beam="1">  1        2 0.35362259E+00 0.18043237E+03</pdfrwt>
<pdfrwt beam="2">  1       -2 0.46971327E-03 0.18043237E+03</pdfrwt>
<totfact> 0.32211033E+04</totfact>
</mgrwt>
</event>
<event>
 4    1  0.6853809E-004  0.2076666E+03  0.7818608E-02  0.1143427E+00
         -2   -1    0    0    0  501 -0.00000000000E+00  0.00000000000E+00  0.11773147958E+03  0.11773147961E+03  0.25500000000E-02 0. -1.
          2   -1    0    0  501    0  0.00000000000E+00 -0.00000000000E+00 -0.91575796028E+02  0.91575796063E+02  0.25500000000E-02 0.  1.
    5000001    1    1    2    0    0 -0.10703487580E+02 -0.49846668838E+02  0.60919674391E+02  0.11063210099E+03  0.77000000000E+02 0.  0.
   -5000001    1    1    2    0    0  0.10703487580E+02  0.49846668838E+02 -0.34763990837E+02  0.98675174687E+02  0.77000000000E+02 0.  0.
<mgrwt>
<rscale>  0 0.20766660E+03</rscale>
<asrwt>0</asrwt>
<pdfrwt beam="1">  1        2 0.13082257E-01 0.20766660E+03</pdfrwt>
<pdfrwt beam="2">  1       -2 0.16818783E-01 0.20766660E+03</pdfrwt>
<totfact> 0.12580382E+04</totfact>
</mgrwt>
</event>
<event>
 4    1  0.6853809E-004  0.2412169E+03  0.7818608E-02  0.1118985E+00
         -2   -1    0    0    0  501 -0.00000000000E+00  0.00000000000E+00  0.86071333781E+02  0.86071333819E+02  0.25500000000E-02 0. -1.
          2   -1    0    0  501    0  0.00000000000E+00 -0.00000000000E+00 -0.16900394082E+03  0.16900394084E+03  0.25500000000E-02 0.  1.
    5000001    1    1    2    0    0  0.71650976795E+02  0.39115231872E+02 -0.88204377618E+02  0.14273358424E+03  0.77000000000E+02 0.  0.
   -5000001    1    1    2    0    0 -0.71650976795E+02 -0.39115231872E+02  0.52717705794E+01  0.11234169041E+03  0.77000000000E+02 0.  0.
<mgrwt>
<rscale>  0 0.24121687E+03</rscale>
<asrwt>0</asrwt>
<pdfrwt beam="1">  1        2 0.24143420E-01 0.24121687E+03</pdfrwt>
<pdfrwt beam="2">  1       -2 0.12295905E-01 0.24121687E+03</pdfrwt>
<totfact> 0.10437258E+04</totfact>
</mgrwt>
</event>
<event>
 4    1  0.6853809E-004  0.2317112E+03  0.7818608E-02  0.1125441E+00
          2   -1    0    0  501    0  0.00000000000E+00  0.00000000000E+00  0.58874282143E+02  0.58874282198E+02  0.25500000000E-02 0.  1.
         -2   -1    0    0    0  501 -0.00000000000E+00 -0.00000000000E+00 -0.22798613666E+03  0.22798613667E+03  0.25500000000E-02 0. -1.
    5000001    1    1    2    0    0  0.32116249562E+02  0.79873602029E+02 -0.95785309088E+02  0.15005022900E+03  0.77000000000E+02 0.  0.
   -5000001    1    1    2    0    0 -0.32116249562E+02 -0.79873602029E+02 -0.73326545429E+02  0.13681018987E+03  0.77000000000E+02 0.  0.
<mgrwt>
<rscale>  0 0.23171120E+03</rscale>
<asrwt>0</asrwt>
<pdfrwt beam="1">  1        2 0.84106119E-02 0.23171120E+03</pdfrwt>
<pdfrwt beam="2">  1       -2 0.32569448E-01 0.23171120E+03</pdfrwt>
<totfact> 0.68844446E+03</totfact>
</mgrwt>
</event>
<event>
 4    1  0.6853809E-004  0.4382917E+03  0.7818608E-02  0.1031272E+00
          2   -1    0    0  501    0  0.00000000000E+00  0.00000000000E+00  0.75876164537E+03  0.75876164537E+03  0.25500000000E-02 0.  1.
         -2   -1    0    0    0  501 -0.00000000000E+00 -0.00000000000E+00 -0.63293807000E+02  0.63293807052E+02  0.25500000000E-02 0. -1.
    5000001    1    1    2    0    0 -0.16675324065E+03  0.11947439463E+03  0.34043623029E+03  0.40485380217E+03  0.77000000000E+02 0.  0.
   -5000001    1    1    2    0    0  0.16675324065E+03 -0.11947439463E+03  0.35503160808E+03  0.41720165025E+03  0.77000000000E+02 0.  0.
<mgrwt>
<rscale>  0 0.43829174E+03</rscale>
<asrwt>0</asrwt>
<pdfrwt beam="1">  1        2 0.10839452E+00 0.43829174E+03</pdfrwt>
<pdfrwt beam="2">  1       -2 0.90419728E-02 0.43829174E+03</pdfrwt>
<totfact> 0.32639572E+03</totfact>
</mgrwt>
</event>
<event>
 4    1  0.6853809E-004  0.1795240E+03  0.7818608E-02  0.1168265E+00
          2   -1    0    0  501    0  0.00000000000E+00  0.00000000000E+00  0.17493991577E+04  0.17493991577E+04  0.25500000000E-02 0.  1.
         -2   -1    0    0    0  501 -0.00000000000E+00 -0.00000000000E+00 -0.46057031158E+01  0.46057038218E+01  0.25500000000E-02 0. -1.
    5000001    1    1    2    0    0  0.45610695575E+02 -0.58562552929E+01  0.90840465545E+03  0.91282125815E+03  0.77000000000E+02 0.  0.
   -5000001    1    1    2    0    0 -0.45610695575E+02  0.58562552929E+01  0.83638879910E+03  0.84118360335E+03  0.77000000000E+02 0.  0.
<mgrwt>
<rscale>  0 0.17952397E+03</rscale>
<asrwt>0</asrwt>
<pdfrwt beam="1">  1        2 0.24991462E+00 0.17952397E+03</pdfrwt>
<pdfrwt beam="2">  1       -2 0.65795645E-03 0.17952397E+03</pdfrwt>
<totfact> 0.44597703E+04</totfact>
</mgrwt>
</event>
<event>
 4    1  0.6853809E-004  0.2558347E+03  0.7818608E-02  0.1109672E+00
         -2   -1    0    0    0  501 -0.00000000000E+00  0.00000000000E+00  0.46593519130E+02  0.46593519200E+02  0.25500000000E-02 0. -1.
          2   -1    0    0  501    0  0.00000000000E+00 -0.00000000000E+00 -0.35118298608E+03  0.35118298609E+03  0.25500000000E-02 0.  1.
    5000001    1    1    2    0    0  0.51887005015E+02  0.86924362172E+02 -0.13110437014E+03  0.18266215234E+03  0.77000000000E+02 0.  0.
   -5000001    1    1    2    0    0 -0.51887005015E+02 -0.86924362172E+02 -0.17348509681E+03  0.21511435295E+03  0.77000000000E+02 0.  0.
<mgrwt>
<rscale>  0 0.25583472E+03</rscale>
<asrwt>0</asrwt>
<pdfrwt beam="1">  1        2 0.50168996E-01 0.25583472E+03</pdfrwt>
<pdfrwt beam="2">  1       -2 0.66562172E-02 0.25583472E+03</pdfrwt>
<totfact> 0.12422917E+04</totfact>
</mgrwt>
</event>
<event>
 4    1  0.6853809E-004  0.4202757E+03  0.7818608E-02  0.1036977E+00
         -2   -1    0    0    0  501 -0.00000000000E+00  0.00000000000E+00  0.42218789375E+02  0.42218789452E+02  0.25500000000E-02 0. -1.
          2   -1    0    0  501    0  0.00000000000E+00 -0.00000000000E+00 -0.10459306221E+04  0.10459306221E+04  0.25500000000E-02 0.  1.
    5000001    1    1    2    0    0  0.16909985458E+03 -0.96038677329E+02 -0.44938293234E+03  0.49567348954E+03  0.77000000000E+02 0.  0.
   -5000001    1    1    2    0    0 -0.16909985458E+03  0.96038677329E+02 -0.55432890041E+03  0.59247592203E+03  0.77000000000E+02 0.  0.
<mgrwt>
<rscale>  0 0.42027574E+03</rscale>
<asrwt>0</asrwt>
<pdfrwt beam="1">  1        2 0.14941864E+00 0.42027574E+03</pdfrwt>
<pdfrwt beam="2">  1       -2 0.60312563E-02 0.42027574E+03</pdfrwt>
<totfact> 0.40396819E+03</totfact>
</mgrwt>
</event>
<event>
 4    1  0.6853809E-004  0.2658466E+03  0.7818608E-02  0.1103681E+00
         -2   -1    0    0    0  501 -0.00000000000E+00  0.00000000000E+00  0.16874311923E+02  0.16874312116E+02  0.25500000000E-02 0. -1.
          2   -1    0    0  501    0  0.00000000000E+00 -0.00000000000E+00 -0.10470707423E+04  0.10470707423E+04  0.25500000000E-02 0.  1.
    5000001    1    1    2    0    0 -0.55184923301E+02 -0.51491469604E+02 -0.82620472965E+03  0.83321065913E+03  0.77000000000E+02 0.  0.
   -5000001    1    1    2    0    0  0.55184923301E+02  0.51491469604E+02 -0.20399170073E+03  0.23073439529E+03  0.77000000000E+02 0.  0.
<mgrwt>
<rscale>  0 0.26584656E+03</rscale>
<asrwt>0</asrwt>
<pdfrwt beam="1">  1        2 0.14958149E+00 0.26584656E+03</pdfrwt>
<pdfrwt beam="2">  1       -2 0.24106167E-02 0.26584656E+03</pdfrwt>
<totfact> 0.15956381E+04</totfact>
</mgrwt>
</event>
<event>
 4    1  0.6853809E-004  0.1596619E+03  0.7818608E-02  0.1189079E+00
          2   -1    0    0  501    0  0.00000000000E+00  0.00000000000E+00  0.98138783854E+03  0.98138783854E+03  0.25500000000E-02 0.  1.
         -2   -1    0    0    0  501 -0.00000000000E+00 -0.00000000000E+00 -0.64938484134E+01  0.64938489140E+01  0.25500000000E-02 0. -1.
    5000001    1    1    2    0    0  0.20317429171E+02 -0.46226051513E+01  0.46806009312E+03  0.47480882171E+03  0.77000000000E+02 0.  0.
   -5000001    1    1    2    0    0 -0.20317429171E+02  0.46226051513E+01  0.50683389701E+03  0.51307286574E+03  0.77000000000E+02 0.  0.
<mgrwt>
<rscale>  0 0.15966194E+03</rscale>
<asrwt>0</asrwt>
<pdfrwt beam="1">  1        2 0.14019823E+00 0.15966194E+03</pdfrwt>
<pdfrwt beam="2">  1       -2 0.92769290E-03 0.15966194E+03</pdfrwt>
<totfact> 0.67416838E+04</totfact>
</mgrwt>
</event>
<event>
 4    1  0.6853809E-004  0.2408550E+03  0.7818608E-02  0.1119225E+00
         -2   -1    0    0    0  501 -0.00000000000E+00  0.00000000000E+00  0.11890786665E+02  0.11890786938E+02  0.25500000000E-02 0. -1.
          2   -1    0    0  501    0  0.00000000000E+00 -0.00000000000E+00 -0.12196659174E+04  0.12196659174E+04  0.25500000000E-02 0.  1.
    5000001    1    1    2    0    0 -0.13531642534E+02 -0.77000055949E+02 -0.35019140404E+03  0.36698110773E+03  0.77000000000E+02 0.  0.
   -5000001    1    1    2    0    0  0.13531642534E+02  0.77000055949E+02 -0.85758372670E+03  0.86457559662E+03  0.77000000000E+02 0.  0.
<mgrwt>
<rscale>  0 0.24085504E+03</rscale>
<asrwt>0</asrwt>
<pdfrwt beam="1">  1        2 0.17423791E+00 0.24085504E+03</pdfrwt>
<pdfrwt beam="2">  1       -2 0.16986846E-02 0.24085504E+03</pdfrwt>
<totfact> 0.21310517E+04</totfact>
</mgrwt>
</event>
<event>
 4    1  0.6853809E-004  0.1918977E+03  0.7818608E-02  0.1156761E+00
         -2   -1    0    0    0  501 -0.00000000000E+00  0.00000000000E+00  0.48590776967E+02  0.48590777034E+02  0.25500000000E-02 0. -1.
          2   -1    0    0  501    0  0.00000000000E+00 -0.00000000000E+00 -0.18946362117E+03  0.18946362119E+03  0.25500000000E-02 0.  1.
    5000001    1    1    2    0    0  0.41340858053E+02 -0.39542007949E+02 -0.67790975124E+02  0.11746170970E+03  0.77000000000E+02 0.  0.
   -5000001    1    1    2    0    0 -0.41340858053E+02  0.39542007949E+02 -0.73081869081E+02  0.12059268852E+03  0.77000000000E+02 0.  0.
<mgrwt>
<rscale>  0 0.19189773E+03</rscale>
<asrwt>0</asrwt>
<pdfrwt beam="1">  1        2 0.27066231E-01 0.19189773E+03</pdfrwt>
<pdfrwt beam="2">  1       -2 0.69415397E-02 0.19189773E+03</pdfrwt>
<totfact> 0.22273291E+04</totfact>
</mgrwt>
</event>
<event>
 4    1  0.6853809E-004  0.1988316E+03  0.7818608E-02  0.1150729E+00
          2   -1    0    0  501    0  0.00000000000E+00  0.00000000000E+00  0.14807096744E+04  0.14807096744E+04  0.25500000000E-02 0.  1.
         -2   -1    0    0    0  501 -0.00000000000E+00 -0.00000000000E+00 -0.66748390132E+01  0.66748395003E+01  0.25500000000E-02 0. -1.
    5000001    1    1    2    0    0 -0.22482517599E+02  0.54800059704E+02  0.89499662640E+03  0.90025355951E+03  0.77000000000E+02 0.  0.
   -5000001    1    1    2    0    0  0.22482517599E+02 -0.54800059704E+02  0.57903820903E+03  0.58713095444E+03  0.77000000000E+02 0.  0.
<mgrwt>
<rscale>  0 0.19883158E+03</rscale>
<asrwt>0</asrwt>
<pdfrwt beam="1">  1        2 0.21153011E+00 0.19883158E+03</pdfrwt>
<pdfrwt beam="2">  1       -2 0.95354777E-03 0.19883158E+03</pdfrwt>
<totfact> 0.35714062E+04</totfact>
</mgrwt>
</event>
<event>
 4    1  0.6853809E-004  0.1935484E+03  0.7818608E-02  0.1155299E+00
         -2   -1    0    0    0  501 -0.00000000000E+00  0.00000000000E+00  0.23507421701E+02  0.23507421839E+02  0.25500000000E-02 0. -1.
          2   -1    0    0  501    0  0.00000000000E+00 -0.00000000000E+00 -0.39839538626E+03  0.39839538627E+03  0.25500000000E-02 0.  1.
    5000001    1    1    2    0    0  0.74578801826E+01  0.35909110802E+02 -0.28712600323E+03  0.29952533440E+03  0.77000000000E+02 0.  0.
   -5000001    1    1    2    0    0 -0.74578801826E+01 -0.35909110802E+02 -0.87761961331E+02  0.12237747371E+03  0.77000000000E+02 0.  0.
<mgrwt>
<rscale>  0 0.19354843E+03</rscale>
<asrwt>0</asrwt>
<pdfrwt beam="1">  1        2 0.56913623E-01 0.19354843E+03</pdfrwt>
<pdfrwt beam="2">  1       -2 0.33582033E-02 0.19354843E+03</pdfrwt>
<totfact> 0.29949146E+04</totfact>
</mgrwt>
</event>
<event>
 4    1  0.6853809E-004  0.1957596E+03  0.7818608E-02  0.1153367E+00
         -2   -1    0    0    0  501 -0.00000000000E+00  0.00000000000E+00  0.10936455247E+02  0.10936455544E+02  0.25500000000E-02 0. -1.
          2   -1    0    0  501    0  0.00000000000E+00 -0.00000000000E+00 -0.87601102423E+03  0.87601102423E+03  0.25500000000E-02 0.  1.
    5000001    1    1    2    0    0  0.41210656644E+02 -0.37806148540E+02 -0.32883913394E+03  0.34233287762E+03  0.77000000000E+02 0.  0.
   -5000001    1    1    2    0    0 -0.41210656644E+02  0.37806148540E+02 -0.53623543504E+03  0.54461460215E+03  0.77000000000E+02 0.  0.
<mgrwt>
<rscale>  0 0.19575960E+03</rscale>
<asrwt>0</asrwt>
<pdfrwt beam="1">  1        2 0.12514439E+00 0.19575960E+03</pdfrwt>
<pdfrwt beam="2">  1       -2 0.15623513E-02 0.19575960E+03</pdfrwt>
<totfact> 0.37474102E+04</totfact>
</mgrwt>
</event>
<event>
 4    1  0.6853809E-004  0.2610226E+03  0.7818608E-02  0.1106530E+00
          2   -1    0    0  501    0  0.00000000000E+00  0.00000000000E+00  0.17659427547E+04  0.17659427547E+04  0.25500000000E-02 0.  1.
         -2   -1    0    0    0  501 -0.00000000000E+00 -0.00000000000E+00 -0.96453826089E+01  0.96453829460E+01  0.25500000000E-02 0. -1.
    5000001    1    1    2    0    0 -0.17383759295E+02  0.10289531744E+03  0.77850933713E+03  0.78923724534E+03  0.77000000000E+02 0.  0.
   -5000001    1    1    2    0    0  0.17383759295E+02 -0.10289531744E+03  0.97778803495E+03  0.98635089229E+03  0.77000000000E+02 0.  0.
<mgrwt>
<rscale>  0 0.26102256E+03</rscale>
<asrwt>0</asrwt>
<pdfrwt beam="1">  1        2 0.25227793E+00 0.26102256E+03</pdfrwt>
<pdfrwt beam="2">  1       -2 0.13779097E-02 0.26102256E+03</pdfrwt>
<totfact> 0.15333212E+04</totfact>
</mgrwt>
</event>
<event>
 4    1  0.6853809E-004  0.2268186E+03  0.7818608E-02  0.1128899E+00
         -2   -1    0    0    0  501 -0.00000000000E+00  0.00000000000E+00  0.73090258978E+01  0.73090263427E+01  0.25500000000E-02 0. -1.
          2   -1    0    0  501    0  0.00000000000E+00 -0.00000000000E+00 -0.17596973915E+04  0.17596973915E+04  0.25500000000E-02 0.  1.
    5000001    1    1    2    0    0 -0.50417953797E+02  0.44089540568E+02 -0.12615483712E+04  0.12656694476E+04  0.77000000000E+02 0.  0.
   -5000001    1    1    2    0    0  0.50417953797E+02 -0.44089540568E+02 -0.49083999441E+03  0.50133697028E+03  0.77000000000E+02 0.  0.
<mgrwt>
<rscale>  0 0.22681864E+03</rscale>
<asrwt>0</asrwt>
<pdfrwt beam="1">  1        2 0.25138507E+00 0.22681864E+03</pdfrwt>
<pdfrwt beam="2">  1       -2 0.10441477E-02 0.22681864E+03</pdfrwt>
<totfact> 0.22985600E+04</totfact>
</mgrwt>
</event>
<event>
 4    1  0.6853809E-004  0.3387624E+03  0.7818608E-02  0.1067324E+00
         -2   -1    0    0    0  501 -0.00000000000E+00  0.00000000000E+00  0.10260454670E+03  0.10260454673E+03  0.25500000000E-02 0. -1.
          2   -1    0    0  501    0  0.00000000000E+00 -0.00000000000E+00 -0.27961707483E+03  0.27961707484E+03  0.25500000000E-02 0.  1.
    5000001    1    1    2    0    0 -0.70699362178E+02 -0.12494139399E+03 -0.36162542515E+02  0.16686965340E+03  0.77000000000E+02 0.  0.
   -5000001    1    1    2    0    0  0.70699362178E+02  0.12494139399E+03 -0.14084998561E+03  0.21535196817E+03  0.77000000000E+02 0.  0.
<mgrwt>
<rscale>  0 0.33876235E+03</rscale>
<asrwt>0</asrwt>
<pdfrwt beam="1">  1        2 0.39945296E-01 0.33876235E+03</pdfrwt>
<pdfrwt beam="2">  1       -2 0.14657792E-01 0.33876235E+03</pdfrwt>
<totfact> 0.45639382E+03</totfact>
</mgrwt>
</event>
<event>
 4    1  0.6853809E-004  0.3160527E+03  0.7818608E-02  0.1077480E+00
          2   -1    0    0  501    0  0.00000000000E+00  0.00000000000E+00  0.61644421892E+03  0.61644421892E+03  0.25500000000E-02 0.  1.
         -2   -1    0    0    0  501 -0.00000000000E+00 -0.00000000000E+00 -0.40510284758E+02  0.40510284838E+02  0.25500000000E-02 0. -1.
    5000001    1    1    2    0    0 -0.60704500808E+02 -0.12245720107E+03  0.24838961339E+03  0.29378087506E+03  0.77000000000E+02 0.  0.
   -5000001    1    1    2    0    0  0.60704500808E+02  0.12245720107E+03  0.32754432077E+03  0.36317362870E+03  0.77000000000E+02 0.  0.
<mgrwt>
<rscale>  0 0.31605272E+03</rscale>
<asrwt>0</asrwt>
<pdfrwt beam="1">  1        2 0.88063462E-01 0.31605272E+03</pdfrwt>
<pdfrwt beam="2">  1       -2 0.57871834E-02 0.31605272E+03</pdfrwt>
<totfact> 0.83536112E+03</totfact>
</mgrwt>
</event>
<event>
 4    1  0.6853809E-004  0.2235596E+03  0.7818608E-02  0.1131257E+00
          2   -1    0    0  501    0  0.00000000000E+00  0.00000000000E+00  0.31726223541E+02  0.31726223644E+02  0.25500000000E-02 0.  1.
         -2   -1    0    0    0  501 -0.00000000000E+00 -0.00000000000E+00 -0.39382970064E+03  0.39382970065E+03  0.25500000000E-02 0. -1.
    5000001    1    1    2    0    0  0.73429507159E+02  0.12338688396E+02 -0.12020990980E+03  0.16100794442E+03  0.77000000000E+02 0.  0.
   -5000001    1    1    2    0    0 -0.73429507159E+02 -0.12338688396E+02 -0.24189356730E+03  0.26454797987E+03  0.77000000000E+02 0.  0.
<mgrwt>
<rscale>  0 0.22355965E+03</rscale>
<asrwt>0</asrwt>
<pdfrwt beam="1">  1        2 0.45323179E-02 0.22355965E+03</pdfrwt>
<pdfrwt beam="2">  1       -2 0.56261383E-01 0.22355965E+03</pdfrwt>
<totfact> 0.53229760E+03</totfact>
</mgrwt>
</event>
<event>
 4    1  0.6853809E-004  0.1841305E+03  0.7818608E-02  0.1163864E+00
         -2   -1    0    0    0  501 -0.00000000000E+00  0.00000000000E+00  0.83606970272E+02  0.83606970311E+02  0.25500000000E-02 0. -1.
          2   -1    0    0  501    0  0.00000000000E+00 -0.00000000000E+00 -0.10137922935E+03  0.10137922939E+03  0.25500000000E-02 0.  1.
    5000001    1    1    2    0    0 -0.17126175619E+02  0.44463439683E+02 -0.25597942381E+02  0.94098661063E+02  0.77000000000E+02 0.  0.
   -5000001    1    1    2    0    0  0.17126175619E+02 -0.44463439683E+02  0.78256832989E+01  0.90887538634E+02  0.77000000000E+02 0.  0.
<mgrwt>
<rscale>  0 0.18413050E+03</rscale>
<asrwt>0</asrwt>
<pdfrwt beam="1">  1        2 0.14482747E-01 0.18413050E+03</pdfrwt>
<pdfrwt beam="2">  1       -2 0.11943853E-01 0.18413050E+03</pdfrwt>
<totfact> 0.19324162E+04</totfact>
</mgrwt>
</event>
<event>
 4    1  0.6853809E-004  0.2006470E+03  0.7818608E-02  0.1149194E+00
         -2   -1    0    0    0  501 -0.00000000000E+00  0.00000000000E+00  0.13431789939E+02  0.13431790181E+02  0.25500000000E-02 0. -1.
          2   -1    0    0  501    0  0.00000000000E+00 -0.00000000000E+00 -0.74932683060E+03  0.74932683060E+03  0.25500000000E-02 0.  1.
    5000001    1    1    2    0    0 -0.48370226203E+02 -0.29538434376E+02 -0.25241688601E+03  0.26991754710E+03  0.77000000000E+02 0.  0.
   -5000001    1    1    2    0    0  0.48370226203E+02  0.29538434376E+02 -0.48347815465E+03  0.49284107369E+03  0.77000000000E+02 0.  0.
<mgrwt>
<rscale>  0 0.20064696E+03</rscale>
<asrwt>0</asrwt>
<pdfrwt beam="1">  1        2 0.10704666E+00 0.20064696E+03</pdfrwt>
<pdfrwt beam="2">  1       -2 0.19188276E-02 0.20064696E+03</pdfrwt>
<totfact> 0.33737569E+04</totfact>
</mgrwt>
</event>
<event>
 4    1  0.6853809E-004  0.1927958E+03  0.7818608E-02  0.1155964E+00
          2   -1    0    0  501    0  0.00000000000E+00  0.00000000000E+00  0.13887686952E+04  0.13887686952E+04  0.25500000000E-02 0.  1.
         -2   -1    0    0    0  501 -0.00000000000E+00 -0.00000000000E+00 -0.66912174082E+01  0.66912178941E+01  0.25500000000E-02 0. -1.
    5000001    1    1    2    0    0 -0.21233348148E+02  0.49770693858E+02  0.84209964542E+03  0.84734219172E+03  0.77000000000E+02 0.  0.
   -5000001    1    1    2    0    0  0.21233348148E+02 -0.49770693858E+02  0.53997783232E+03  0.54811772133E+03  0.77000000000E+02 0.  0.
<mgrwt>
<rscale>  0 0.19279578E+03</rscale>
<asrwt>0</asrwt>
<pdfrwt beam="1">  1        2 0.19839536E+00 0.19279578E+03</pdfrwt>
<pdfrwt beam="2">  1       -2 0.95588903E-03 0.19279578E+03</pdfrwt>
<totfact> 0.39520913E+04</totfact>
</mgrwt>
</event>
<event>
 4    1  0.6853809E-004  0.2082100E+03  0.7818608E-02  0.1142991E+00
          2   -1    0    0  501    0  0.00000000000E+00  0.00000000000E+00  0.77902965579E+02  0.77902965621E+02  0.25500000000E-02 0. -1.
         -2   -1    0    0    0  501 -0.00000000000E+00 -0.00000000000E+00 -0.13911990790E+03  0.13911990792E+03  0.25500000000E-02 0.  1.
    5000001    1    1    2    0    0  0.33700759131E+02  0.42474176623E+02 -0.76860732738E+02  0.12155808934E+03  0.77000000000E+02 0.  0.
   -5000001    1    1    2    0    0 -0.33700759131E+02 -0.42474176623E+02  0.15643790416E+02  0.95464784211E+02  0.77000000000E+02 0.  0.
<mgrwt>
<rscale>  0 0.20821002E+03</rscale>
<asrwt>0</asrwt>
<pdfrwt beam="1">  1        2 0.11128995E-01 0.20821002E+03</pdfrwt>
<pdfrwt beam="2">  1       -2 0.19874272E-01 0.20821002E+03</pdfrwt>
<totfact> 0.11554254E+04</totfact>
</mgrwt>
</event>
<event>
 4    1  0.6853809E-004  0.5948211E+03  0.7818608E-02  0.9916209E-01
          2   -1    0    0  501    0  0.00000000000E+00  0.00000000000E+00  0.12241973871E+04  0.12241973871E+04  0.25500000000E-02 0.  1.
         -2   -1    0    0    0  501 -0.00000000000E+00 -0.00000000000E+00 -0.72253905464E+02  0.72253905509E+02  0.25500000000E-02 0. -1.
    5000001    1    1    2    0    0  0.86503874696E+02  0.27115056036E+03  0.66090476512E+03  0.72369168524E+03  0.77000000000E+02 0.  0.
   -5000001    1    1    2    0    0 -0.86503874696E+02 -0.27115056036E+03  0.49103871653E+03  0.57275960739E+03  0.77000000000E+02 0.  0.
<mgrwt>
<rscale>  0 0.59482112E+03</rscale>
<asrwt>0</asrwt>
<pdfrwt beam="1">  1        2 0.17488534E+00 0.59482112E+03</pdfrwt>
<pdfrwt beam="2">  1       -2 0.10321986E-01 0.59482112E+03</pdfrwt>
<totfact> 0.13610336E+03</totfact>
</mgrwt>
</event>
<event>
 4    1  0.6853809E-004  0.2492329E+03  0.7818608E-02  0.1113791E+00
          2   -1    0    0  501    0  0.00000000000E+00  0.00000000000E+00  0.79292303114E+03  0.79292303114E+03  0.25500000000E-02 0.  1.
         -2   -1    0    0    0  501 -0.00000000000E+00 -0.00000000000E+00 -0.19584821761E+02  0.19584821927E+02  0.25500000000E-02 0. -1.
    5000001    1    1    2    0    0  0.18681478081E+02 -0.95977140318E+02  0.40719625186E+03  0.42579149430E+03  0.77000000000E+02 0.  0.
   -5000001    1    1    2    0    0 -0.18681478081E+02  0.95977140318E+02  0.36614195751E+03  0.38671635877E+03  0.77000000000E+02 0.  0.
<mgrwt>
<rscale>  0 0.24923287E+03</rscale>
<asrwt>0</asrwt>
<pdfrwt beam="1">  1        2 0.11327466E+00 0.24923287E+03</pdfrwt>
<pdfrwt beam="2">  1       -2 0.27978332E-02 0.24923287E+03</pdfrwt>
<totfact> 0.18335403E+04</totfact>
</mgrwt>
</event>
<event>
 4    1  0.6853809E-004  0.2664110E+03  0.7818608E-02  0.1103351E+00
         -2   -1    0    0    0  501 -0.00000000000E+00  0.00000000000E+00  0.16857963279E+03  0.16857963281E+03  0.25500000000E-02 0. -1.
          2   -1    0    0  501    0  0.00000000000E+00 -0.00000000000E+00 -0.10525413934E+03  0.10525413937E+03  0.25500000000E-02 0.  1.
    5000001    1    1    2    0    0 -0.10830719618E+03  0.83722969156E+01  0.27794915600E+02  0.13602242989E+03  0.77000000000E+02 0.  0.
   -5000001    1    1    2    0    0  0.10830719618E+03 -0.83722969156E+01  0.35530577853E+02  0.13781134228E+03  0.77000000000E+02 0.  0.
<mgrwt>
<rscale>  0 0.26641099E+03</rscale>
<asrwt>0</asrwt>
<pdfrwt beam="1">  1        2 0.15036306E-01 0.26641099E+03</pdfrwt>
<pdfrwt beam="2">  1       -2 0.24082804E-01 0.26641099E+03</pdfrwt>
<totfact> 0.58485816E+03</totfact>
</mgrwt>
</event>
<event>
 4    1  0.6853809E-004  0.2836343E+03  0.7818608E-02  0.1093720E+00
         -2   -1    0    0    0  501 -0.00000000000E+00  0.00000000000E+00  0.19944042734E+02  0.19944042897E+02  0.25500000000E-02 0. -1.
          2   -1    0    0  501    0  0.00000000000E+00 -0.00000000000E+00 -0.10084266173E+04  0.10084266173E+04  0.25500000000E-02 0.  1.
    5000001    1    1    2    0    0 -0.32016000843E+02  0.11165520170E+03 -0.58956288400E+03  0.60580962568E+03  0.77000000000E+02 0.  0.
   -5000001    1    1    2    0    0  0.32016000843E+02 -0.11165520170E+03 -0.39891969060E+03  0.42256103455E+03  0.77000000000E+02 0.  0.
<mgrwt>
<rscale>  0 0.28363430E+03</rscale>
<asrwt>0</asrwt>
<pdfrwt beam="1">  1        2 0.14406091E+00 0.28363430E+03</pdfrwt>
<pdfrwt beam="2">  1       -2 0.28491496E-02 0.28363430E+03</pdfrwt>
<totfact> 0.13150175E+04</totfact>
</mgrwt>
</event>
<event>
 4    1  0.6853809E-004  0.2879262E+03  0.7818608E-02  0.1091437E+00
         -2   -1    0    0    0  501 -0.00000000000E+00  0.00000000000E+00  0.57036700772E+02  0.57036700829E+02  0.25500000000E-02 0. -1.
          2   -1    0    0  501    0  0.00000000000E+00 -0.00000000000E+00 -0.36336908025E+03  0.36336908026E+03  0.25500000000E-02 0.  1.
    5000001    1    1    2    0    0  0.63398741662E+02  0.10021037916E+03 -0.11358510154E+03  0.18136178160E+03  0.77000000000E+02 0.  0.
   -5000001    1    1    2    0    0 -0.63398741662E+02 -0.10021037916E+03 -0.19274727795E+03  0.23904399949E+03  0.77000000000E+02 0.  0.
<mgrwt>
<rscale>  0 0.28792620E+03</rscale>
<asrwt>0</asrwt>
<pdfrwt beam="1">  1        2 0.51909867E-01 0.28792620E+03</pdfrwt>
<pdfrwt beam="2">  1       -2 0.81481003E-02 0.28792620E+03</pdfrwt>
<totfact> 0.87923453E+03</totfact>
</mgrwt>
</event>
<event>
 4    1  0.6853809E-004  0.1884860E+03  0.7818608E-02  0.1159834E+00
          2   -1    0    0  501    0  0.00000000000E+00  0.00000000000E+00  0.63781351601E+03  0.63781351602E+03  0.25500000000E-02 0.  1.
         -2   -1    0    0    0  501 -0.00000000000E+00 -0.00000000000E+00 -0.13925294947E+02  0.13925295180E+02  0.25500000000E-02 0. -1.
    5000001    1    1    2    0    0  0.35932470983E+02  0.40734341753E+02  0.31720210829E+03  0.33090271467E+03  0.77000000000E+02 0.  0.
   -5000001    1    1    2    0    0 -0.35932470983E+02 -0.40734341753E+02  0.30668611277E+03  0.32083609653E+03  0.77000000000E+02 0.  0.
<mgrwt>
<rscale>  0 0.18848598E+03</rscale>
<asrwt>0</asrwt>
<pdfrwt beam="1">  1        2 0.91116224E-01 0.18848598E+03</pdfrwt>
<pdfrwt beam="2">  1       -2 0.19893277E-02 0.18848598E+03</pdfrwt>
<totfact> 0.38463177E+04</totfact>
</mgrwt>
</event>
<event>
 4    1  0.6853809E-004  0.1941345E+03  0.7818608E-02  0.1154784E+00
          2   -1    0    0  501    0  0.00000000000E+00  0.00000000000E+00  0.53039621083E+03  0.53039621084E+03  0.25500000000E-02 0.  1.
         -2   -1    0    0    0  501 -0.00000000000E+00 -0.00000000000E+00 -0.17764178696E+02  0.17764178879E+02  0.25500000000E-02 0. -1.
    5000001    1    1    2    0    0  0.40879935560E+02  0.39896046552E+02  0.29915583202E+03  0.31414339957E+03  0.77000000000E+02 0.  0.
   -5000001    1    1    2    0    0 -0.40879935560E+02 -0.39896046552E+02  0.21347620012E+03  0.23401699015E+03  0.77000000000E+02 0.  0.
<mgrwt>
<rscale>  0 0.19413452E+03</rscale>
<asrwt>0</asrwt>
<pdfrwt beam="1">  1        2 0.75770895E-01 0.19413452E+03</pdfrwt>
<pdfrwt beam="2">  1       -2 0.25377396E-02 0.19413452E+03</pdfrwt>
<totfact> 0.33206348E+04</totfact>
</mgrwt>
</event>
<event>
 4    1  0.6853809E-004  0.1906591E+03  0.7818608E-02  0.1157868E+00
          2   -1    0    0  501    0  0.00000000000E+00  0.00000000000E+00  0.13370133886E+04  0.13370133886E+04  0.25500000000E-02 0.  1.
         -2   -1    0    0    0  501 -0.00000000000E+00 -0.00000000000E+00 -0.67970306099E+01  0.67970310883E+01  0.25500000000E-02 0. -1.
    5000001    1    1    2    0    0 -0.24457290737E+02  0.45251022886E+02  0.50548356171E+03  0.51389536415E+03  0.77000000000E+02 0.  0.
   -5000001    1    1    2    0    0  0.24457290737E+02 -0.45251022886E+02  0.82473279629E+03  0.82991505554E+03  0.77000000000E+02 0.  0.
<mgrwt>
<rscale>  0 0.19065908E+03</rscale>
<asrwt>0</asrwt>
<pdfrwt beam="1">  1        2 0.19100184E+00 0.19065908E+03</pdfrwt>
<pdfrwt beam="2">  1       -2 0.97100477E-03 0.19065908E+03</pdfrwt>
<totfact> 0.41036571E+04</totfact>
</mgrwt>
</event>
<event>
 4    1  0.6853809E-004  0.1975541E+03  0.7818608E-02  0.1151819E+00
          2   -1    0    0  501    0  0.00000000000E+00  0.00000000000E+00  0.21651051004E+02  0.21651051154E+02  0.25500000000E-02 0.  1.
         -2   -1    0    0    0  501 -0.00000000000E+00 -0.00000000000E+00 -0.45064345854E+03  0.45064345855E+03  0.25500000000E-02 0. -1.
    5000001    1    1    2    0    0 -0.20943294421E+02  0.57874835739E+02 -0.22957594610E+03  0.24984441803E+03  0.77000000000E+02 0.  0.
   -5000001    1    1    2    0    0  0.20943294421E+02 -0.57874835739E+02 -0.19941646144E+03  0.22245009167E+03  0.77000000000E+02 0.  0.
<mgrwt>
<rscale>  0 0.19755409E+03</rscale>
<asrwt>0</asrwt>
<pdfrwt beam="1">  1        2 0.30930076E-02 0.19755409E+03</pdfrwt>
<pdfrwt beam="2">  1       -2 0.64377631E-01 0.19755409E+03</pdfrwt>
<totfact> 0.66709445E+03</totfact>
</mgrwt>
</event>
<event>
 4    1  0.6853809E-004  0.2879104E+03  0.7818608E-02  0.1091445E+00
          2   -1    0    0  501    0  0.00000000000E+00  0.00000000000E+00  0.15345834349E+04  0.15345834349E+04  0.25500000000E-02 0.  1.
         -2   -1    0    0    0  501 -0.00000000000E+00 -0.00000000000E+00 -0.13504053884E+02  0.13504054124E+02  0.25500000000E-02 0. -1.
    5000001    1    1    2    0    0 -0.11055310259E+03  0.41730947379E+02  0.60557104502E+03  0.62177869940E+03  0.77000000000E+02 0.  0.
   -5000001    1    1    2    0    0  0.11055310259E+03 -0.41730947379E+02  0.91550833598E+03  0.92630878961E+03  0.77000000000E+02 0.  0.
<mgrwt>
<rscale>  0 0.28791039E+03</rscale>
<asrwt>0</asrwt>
<pdfrwt beam="1">  1        2 0.21922630E+00 0.28791039E+03</pdfrwt>
<pdfrwt beam="2">  1       -2 0.19291498E-02 0.28791039E+03</pdfrwt>
<totfact> 0.12228894E+04</totfact>
</mgrwt>
</event>
<event>
 4    1  0.6853809E-004  0.2062441E+03  0.7818608E-02  0.1144575E+00
         -2   -1    0    0    0  501 -0.00000000000E+00  0.00000000000E+00  0.20395184145E+02  0.20395184305E+02  0.25500000000E-02 0. -1.
          2   -1    0    0  501    0  0.00000000000E+00 -0.00000000000E+00 -0.52140547535E+03  0.52140547536E+03  0.25500000000E-02 0.  1.
    5000001    1    1    2    0    0 -0.65827142186E+02 -0.13439480841E+02 -0.28684202972E+03  0.30450153088E+03  0.77000000000E+02 0.  0.
   -5000001    1    1    2    0    0  0.65827142186E+02  0.13439480841E+02 -0.21416826149E+03  0.23729912879E+03  0.77000000000E+02 0.  0.
<mgrwt>
<rscale>  0 0.20624413E+03</rscale>
<asrwt>0</asrwt>
<pdfrwt beam="1">  1        2 0.74486488E-01 0.20624413E+03</pdfrwt>
<pdfrwt beam="2">  1       -2 0.29135981E-02 0.20624413E+03</pdfrwt>
<totfact> 0.27732714E+04</totfact>
</mgrwt>
</event>
<event>
 4    1  0.6853809E-004  0.4631458E+03  0.7818608E-02  0.1023873E+00
          2   -1    0    0  501    0  0.00000000000E+00  0.00000000000E+00  0.13380594638E+04  0.13380594638E+04  0.25500000000E-02 0.  1.
         -2   -1    0    0    0  501 -0.00000000000E+00 -0.00000000000E+00 -0.40077444739E+02  0.40077444820E+02  0.25500000000E-02 0. -1.
    5000001    1    1    2    0    0  0.14074923986E+03  0.10836015424E+03  0.10270765591E+04  0.10451638770E+04  0.77000000000E+02 0.  0.
   -5000001    1    1    2    0    0 -0.14074923986E+03 -0.10836015424E+03  0.27090545996E+03  0.33297303161E+03  0.77000000000E+02 0.  0.
<mgrwt>
<rscale>  0 0.46314578E+03</rscale>
<asrwt>0</asrwt>
<pdfrwt beam="1">  1        2 0.19115135E+00 0.46314578E+03</pdfrwt>
<pdfrwt beam="2">  1       -2 0.57253493E-02 0.46314578E+03</pdfrwt>
<totfact> 0.30120458E+03</totfact>
</mgrwt>
</event>
<event>
 4    1  0.6853809E-004  0.2153355E+03  0.7818608E-02  0.1137409E+00
         -2   -1    0    0    0  501 -0.00000000000E+00  0.00000000000E+00  0.11863014254E+03  0.11863014257E+03  0.25500000000E-02 0. -1.
          2   -1    0    0  501    0  0.00000000000E+00 -0.00000000000E+00 -0.97718396045E+02  0.97718396079E+02  0.25500000000E-02 0.  1.
    5000001    1    1    2    0    0 -0.34601844664E+02 -0.66677178198E+02  0.59387788287E+01  0.10773765749E+03  0.77000000000E+02 0.  0.
   -5000001    1    1    2    0    0  0.34601844664E+02  0.66677178198E+02  0.14972967671E+02  0.10861088116E+03  0.77000000000E+02 0.  0.
<mgrwt>
<rscale>  0 0.21533553E+03</rscale>
<asrwt>0</asrwt>
<pdfrwt beam="1">  1        2 0.13959771E-01 0.21533553E+03</pdfrwt>
<pdfrwt beam="2">  1       -2 0.16947163E-01 0.21533553E+03</pdfrwt>
<totfact> 0.11521963E+04</totfact>
</mgrwt>
</event>
<event>
 4    1  0.6853809E-004  0.2437041E+03  0.7818608E-02  0.1117350E+00
         -2   -1    0    0    0  501 -0.00000000000E+00  0.00000000000E+00  0.41944505608E+02  0.41944505685E+02  0.25500000000E-02 0. -1.
          2   -1    0    0  501    0  0.00000000000E+00 -0.00000000000E+00 -0.35398966403E+03  0.35398966404E+03  0.25500000000E-02 0.  1.
    5000001    1    1    2    0    0  0.64735429556E+02 -0.48599190596E+02 -0.76990945543E+02  0.13568037022E+03  0.77000000000E+02 0.  0.
   -5000001    1    1    2    0    0 -0.64735429556E+02  0.48599190596E+02 -0.23505421288E+03  0.26025379951E+03  0.77000000000E+02 0.  0.
<mgrwt>
<rscale>  0 0.24370409E+03</rscale>
<asrwt>0</asrwt>
<pdfrwt beam="1">  1        2 0.50569950E-01 0.24370409E+03</pdfrwt>
<pdfrwt beam="2">  1       -2 0.59920724E-02 0.24370409E+03</pdfrwt>
<totfact> 0.14439155E+04</totfact>
</mgrwt>
</event>
<event>
 4    1  0.6853809E-004  0.2080345E+03  0.7818608E-02  0.1143132E+00
          2   -1    0    0  501    0  0.00000000000E+00  0.00000000000E+00  0.17186797183E+04  0.17186797183E+04  0.25500000000E-02 0.  1.
         -2   -1    0    0    0  501 -0.00000000000E+00 -0.00000000000E+00 -0.62952916548E+01  0.62952921713E+01  0.25500000000E-02 0. -1.
    5000001    1    1    2    0    0 -0.67102310336E+02 -0.19614935572E+01  0.10186819863E+04  0.10237912662E+04  0.77000000000E+02 0.  0.
   -5000001    1    1    2    0    0  0.67102310336E+02  0.19614935572E+01  0.69370244032E+03  0.70118374426E+03  0.77000000000E+02 0.  0.
<mgrwt>
<rscale>  0 0.20803452E+03</rscale>
<asrwt>0</asrwt>
<pdfrwt beam="1">  1        2 0.24552578E+00 0.20803452E+03</pdfrwt>
<pdfrwt beam="2">  1       -2 0.89932703E-03 0.20803452E+03</pdfrwt>
<totfact> 0.29735322E+04</totfact>
</mgrwt>
</event>
<event>
 4    1  0.6853809E-004  0.1906713E+03  0.7818608E-02  0.1157857E+00
          2   -1    0    0  501    0  0.00000000000E+00  0.00000000000E+00  0.16479842484E+03  0.16479842486E+03  0.25500000000E-02 0.  1.
         -2   -1    0    0    0  501 -0.00000000000E+00 -0.00000000000E+00 -0.55151524371E+02  0.55151524430E+02  0.25500000000E-02 0. -1.
    5000001    1    1    2    0    0 -0.92066733882E+01 -0.54713771646E+02  0.65239024339E+02  0.11516722598E+03  0.77000000000E+02 0.  0.
   -5000001    1    1    2    0    0  0.92066733882E+01  0.54713771646E+02  0.44407876132E+02  0.10478272331E+03  0.77000000000E+02 0.  0.
<mgrwt>
<rscale>  0 0.19067128E+03</rscale>
<asrwt>0</asrwt>
<pdfrwt beam="1">  1        2 0.23542633E-01 0.19067128E+03</pdfrwt>
<pdfrwt beam="2">  1       -2 0.78787890E-02 0.19067128E+03</pdfrwt>
<totfact> 0.21368145E+04</totfact>
</mgrwt>
</event>
<event>
 4    1  0.6853809E-004  0.2246886E+03  0.7818608E-02  0.1130435E+00
          2   -1    0    0  501    0  0.00000000000E+00  0.00000000000E+00  0.45465753757E+03  0.45465753758E+03  0.25500000000E-02 0.  1.
         -2   -1    0    0    0  501 -0.00000000000E+00 -0.00000000000E+00 -0.27759888545E+02  0.27759888663E+02  0.25500000000E-02 0. -1.
    5000001    1    1    2    0    0  0.32542978873E+02 -0.70988637499E+02  0.26576859863E+03  0.28750718277E+03  0.77000000000E+02 0.  0.
   -5000001    1    1    2    0    0 -0.32542978873E+02  0.70988637499E+02  0.16112905040E+03  0.19491024347E+03  0.77000000000E+02 0.  0.
<mgrwt>
<rscale>  0 0.22468861E+03</rscale>
<asrwt>0</asrwt>
<pdfrwt beam="1">  1        2 0.64951081E-01 0.22468861E+03</pdfrwt>
<pdfrwt beam="2">  1       -2 0.39656981E-02 0.22468861E+03</pdfrwt>
<totfact> 0.20487829E+04</totfact>
</mgrwt>
</event>
<event>
 4    1  0.6853809E-004  0.1793874E+03  0.7818608E-02  0.1168397E+00
          2   -1    0    0  501    0  0.00000000000E+00  0.00000000000E+00  0.29254315176E+03  0.29254315177E+03  0.25500000000E-02 0.  1.
         -2   -1    0    0    0  501 -0.00000000000E+00 -0.00000000000E+00 -0.27500078708E+02  0.27500078826E+02  0.25500000000E-02 0. -1.
    5000001    1    1    2    0    0  0.13662943707E+02  0.42966823555E+02  0.14878865593E+03  0.17349319321E+03  0.77000000000E+02 0.  0.
   -5000001    1    1    2    0    0 -0.13662943707E+02 -0.42966823555E+02  0.11625441712E+03  0.14655003738E+03  0.77000000000E+02 0.  0.
<mgrwt>
<rscale>  0 0.17938740E+03</rscale>
<asrwt>0</asrwt>
<pdfrwt beam="1">  1        2 0.41791878E-01 0.17938740E+03</pdfrwt>
<pdfrwt beam="2">  1       -2 0.39285828E-02 0.17938740E+03</pdfrwt>
<totfact> 0.32764372E+04</totfact>
</mgrwt>
</event>
<event>
 4    1  0.6853809E-004  0.1959343E+03  0.7818608E-02  0.1153215E+00
          2   -1    0    0  501    0  0.00000000000E+00  0.00000000000E+00  0.46138315774E+03  0.46138315775E+03  0.25500000000E-02 0.  1.
         -2   -1    0    0    0  501 -0.00000000000E+00 -0.00000000000E+00 -0.20801714764E+02  0.20801714921E+02  0.25500000000E-02 0. -1.
    5000001    1    1    2    0    0 -0.51362967755E+02 -0.31125331593E+02  0.23960882817E+03  0.25874375599E+03  0.77000000000E+02 0.  0.
   -5000001    1    1    2    0    0  0.51362967755E+02  0.31125331593E+02  0.20097261480E+03  0.22344111668E+03  0.77000000000E+02 0.  0.
<mgrwt>
<rscale>  0 0.19593428E+03</rscale>
<asrwt>0</asrwt>
<pdfrwt beam="1">  1        2 0.65911884E-01 0.19593428E+03</pdfrwt>
<pdfrwt beam="2">  1       -2 0.29716734E-02 0.19593428E+03</pdfrwt>
<totfact> 0.30673021E+04</totfact>
</mgrwt>
</event>
<event>
 4    1  0.6853809E-004  0.3474463E+03  0.7818608E-02  0.1063668E+00
         -2   -1    0    0    0  501 -0.00000000000E+00  0.00000000000E+00  0.45784824103E+02  0.45784824174E+02  0.25500000000E-02 0. -1.
          2   -1    0    0  501    0  0.00000000000E+00 -0.00000000000E+00 -0.65916462765E+03  0.65916462766E+03  0.25500000000E-02 0.  1.
    5000001    1    1    2    0    0 -0.51477071874E+02  0.14177678493E+03 -0.38527560080E+03  0.42085250890E+03  0.77000000000E+02 0.  0.
   -5000001    1    1    2    0    0  0.51477071874E+02 -0.14177678493E+03 -0.22810420274E+03  0.28409694293E+03  0.77000000000E+02 0.  0.
<mgrwt>
<rscale>  0 0.34744632E+03</rscale>
<asrwt>0</asrwt>
<pdfrwt beam="1">  1        2 0.94166370E-01 0.34744632E+03</pdfrwt>
<pdfrwt beam="2">  1       -2 0.65406896E-02 0.34744632E+03</pdfrwt>
<totfact> 0.64126084E+03</totfact>
</mgrwt>
</event>
<event>
 4    1  0.6853809E-004  0.2738263E+03  0.7818608E-02  0.1099109E+00
         -2   -1    0    0    0  501 -0.00000000000E+00  0.00000000000E+00  0.49343162179E+02  0.49343162245E+02  0.25500000000E-02 0. -1.
          2   -1    0    0  501    0  0.00000000000E+00 -0.00000000000E+00 -0.37989479571E+03  0.37989479572E+03  0.25500000000E-02 0.  1.
    5000001    1    1    2    0    0  0.10973144985E+03  0.24660171350E+02 -0.14501274871E+03  0.19901460355E+03  0.77000000000E+02 0.  0.
   -5000001    1    1    2    0    0 -0.10973144985E+03 -0.24660171350E+02 -0.18553888483E+03  0.23022335442E+03  0.77000000000E+02 0.  0.
<mgrwt>
<rscale>  0 0.27382630E+03</rscale>
<asrwt>0</asrwt>
<pdfrwt beam="1">  1        2 0.54270683E-01 0.27382630E+03</pdfrwt>
<pdfrwt beam="2">  1       -2 0.70490234E-02 0.27382630E+03</pdfrwt>
<totfact> 0.10480047E+04</totfact>
</mgrwt>
</event>
<event>
 4    1  0.6853809E-004  0.3767535E+03  0.7818608E-02  0.1052140E+00
          2   -1    0    0  501    0  0.00000000000E+00  0.00000000000E+00  0.10570682411E+04  0.10570682411E+04  0.25500000000E-02 0.  1.
         -2   -1    0    0    0  501 -0.00000000000E+00 -0.00000000000E+00 -0.33570022763E+02  0.33570022860E+02  0.25500000000E-02 0. -1.
    5000001    1    1    2    0    0  0.10457700759E+03  0.13640757467E+03  0.52235701171E+03  0.55527400860E+03  0.77000000000E+02 0.  0.
   -5000001    1    1    2    0    0 -0.10457700759E+03 -0.13640757467E+03  0.50114120662E+03  0.53536425536E+03  0.77000000000E+02 0.  0.
<mgrwt>
<rscale>  0 0.37675353E+03</rscale>
<asrwt>0</asrwt>
<pdfrwt beam="1">  1        2 0.15100974E+00 0.37675353E+03</pdfrwt>
<pdfrwt beam="2">  1       -2 0.47957177E-02 0.37675353E+03</pdfrwt>
<totfact> 0.56580313E+03</totfact>
</mgrwt>
</event>
<event>
 4    1  0.6853809E-004  0.2075046E+03  0.7818608E-02  0.1143557E+00
          2   -1    0    0  501    0  0.00000000000E+00  0.00000000000E+00  0.48622125288E+03  0.48622125289E+03  0.25500000000E-02 0.  1.
         -2   -1    0    0    0  501 -0.00000000000E+00 -0.00000000000E+00 -0.22139186999E+02  0.22139187146E+02  0.25500000000E-02 0. -1.
    5000001    1    1    2    0    0 -0.52779380169E+02  0.91908534602E+00  0.12114431372E+03  0.15294264427E+03  0.77000000000E+02 0.  0.
   -5000001    1    1    2    0    0  0.52779380169E+02 -0.91908534602E+00  0.34293775216E+03  0.35541779577E+03  0.77000000000E+02 0.  0.
<mgrwt>
<rscale>  0 0.20750463E+03</rscale>
<asrwt>0</asrwt>
<pdfrwt beam="1">  1        2 0.69460171E-01 0.20750463E+03</pdfrwt>
<pdfrwt beam="2">  1       -2 0.31627414E-02 0.20750463E+03</pdfrwt>
<totfact> 0.26531465E+04</totfact>
</mgrwt>
</event>
<event>
 4    1  0.6853809E-004  0.2493377E+03  0.7818608E-02  0.1113724E+00
         -2   -1    0    0    0  501 -0.00000000000E+00  0.00000000000E+00  0.55794080833E+01  0.55794086661E+01  0.25500000000E-02 0. -1.
          2   -1    0    0  501    0  0.00000000000E+00 -0.00000000000E+00 -0.27856587436E+04  0.27856587436E+04  0.25500000000E-02 0.  1.
    5000001    1    1    2    0    0  0.41937003168E+02 -0.86958833168E+02 -0.15815874881E+04  0.15864011263E+04  0.77000000000E+02 0.  0.
   -5000001    1    1    2    0    0 -0.41937003168E+02  0.86958833168E+02 -0.11984918473E+04  0.12048370259E+04  0.77000000000E+02 0.  0.
<mgrwt>
<rscale>  0 0.24933774E+03</rscale>
<asrwt>0</asrwt>
<pdfrwt beam="1">  1        2 0.39795036E+00 0.24933774E+03</pdfrwt>
<pdfrwt beam="2">  1       -2 0.79706012E-03 0.24933774E+03</pdfrwt>
<totfact> 0.10638368E+04</totfact>
</mgrwt>
</event>
<event>
 4    1  0.6853809E-004  0.3387120E+03  0.7818608E-02  0.1067346E+00
         -2   -1    0    0    0  501 -0.00000000000E+00  0.00000000000E+00  0.38763508490E+02  0.38763508574E+02  0.25500000000E-02 0. -1.
          2   -1    0    0  501    0  0.00000000000E+00 -0.00000000000E+00 -0.73990851345E+03  0.73990851346E+03  0.25500000000E-02 0.  1.
    5000001    1    1    2    0    0  0.32321951451E+02  0.14272138644E+03 -0.43467491126E+03  0.46506492146E+03  0.77000000000E+02 0.  0.
   -5000001    1    1    2    0    0 -0.32321951451E+02 -0.14272138644E+03 -0.26647009370E+03  0.31360710057E+03  0.77000000000E+02 0.  0.
<mgrwt>
<rscale>  0 0.33871197E+03</rscale>
<asrwt>0</asrwt>
<pdfrwt beam="1">  1        2 0.10570121E+00 0.33871197E+03</pdfrwt>
<pdfrwt beam="2">  1       -2 0.55376446E-02 0.33871197E+03</pdfrwt>
<totfact> 0.72159344E+03</totfact>
</mgrwt>
</event>
<event>
 4    1  0.6853809E-004  0.2502245E+03  0.7818608E-02  0.1113163E+00
         -2   -1    0    0    0  501 -0.00000000000E+00  0.00000000000E+00  0.14934592668E+03  0.14934592670E+03  0.25500000000E-02 0. -1.
          2   -1    0    0  501    0  0.00000000000E+00 -0.00000000000E+00 -0.10481089158E+03  0.10481089161E+03  0.25500000000E-02 0.  1.
    5000001    1    1    2    0    0 -0.39011301184E+02  0.52568650195E+02 -0.52639210131E+02  0.11395275796E+03  0.77000000000E+02 0.  0.
   -5000001    1    1    2    0    0  0.39011301184E+02 -0.52568650195E+02  0.97174245234E+02  0.14020406036E+03  0.77000000000E+02 0.  0.
<mgrwt>
<rscale>  0 0.25022454E+03</rscale>
<asrwt>0</asrwt>
<pdfrwt beam="1">  1        2 0.14972985E-01 0.25022454E+03</pdfrwt>
<pdfrwt beam="2">  1       -2 0.21335132E-01 0.25022454E+03</pdfrwt>
<totfact> 0.72357632E+03</totfact>
</mgrwt>
</event>
<event>
 4    1  0.6853809E-004  0.3628400E+03  0.7818608E-02  0.1057465E+00
         -2   -1    0    0    0  501 -0.00000000000E+00  0.00000000000E+00  0.87610484764E+02  0.87610484801E+02  0.25500000000E-02 0. -1.
          2   -1    0    0  501    0  0.00000000000E+00 -0.00000000000E+00 -0.37567675582E+03  0.37567675583E+03  0.25500000000E-02 0.  1.
    5000001    1    1    2    0    0  0.12802858320E+03 -0.28679627035E+02 -0.27024231601E+03  0.31011892636E+03  0.77000000000E+02 0.  0.
   -5000001    1    1    2    0    0 -0.12802858320E+03  0.28679627035E+02 -0.17823955048E+02  0.15316831427E+03  0.77000000000E+02 0.  0.
<mgrwt>
<rscale>  0 0.36284003E+03</rscale>
<asrwt>0</asrwt>
<pdfrwt beam="1">  1        2 0.53668107E-01 0.36284003E+03</pdfrwt>
<pdfrwt beam="2">  1       -2 0.12515784E-01 0.36284003E+03</pdfrwt>
<totfact> 0.43019491E+03</totfact>
</mgrwt>
</event>
<event>
 4    1  0.6853809E-004  0.3028819E+03  0.7818608E-02  0.1083809E+00
         -2   -1    0    0    0  501 -0.00000000000E+00  0.00000000000E+00  0.77972015733E+01  0.77972019902E+01  0.25500000000E-02 0. -1.
          2   -1    0    0  501    0  0.00000000000E+00 -0.00000000000E+00 -0.29413576858E+04  0.29413576858E+04  0.25500000000E-02 0.  1.
    5000001    1    1    2    0    0  0.30212186531E+02  0.12661688975E+03 -0.13908902383E+04  0.13990887277E+04  0.77000000000E+02 0.  0.
   -5000001    1    1    2    0    0 -0.30212186531E+02 -0.12661688975E+03 -0.15426702459E+04  0.15500661601E+04  0.77000000000E+02 0.  0.
<mgrwt>
<rscale>  0 0.30288189E+03</rscale>
<asrwt>0</asrwt>
<pdfrwt beam="1">  1        2 0.42019325E+00 0.30288189E+03</pdfrwt>
<pdfrwt beam="2">  1       -2 0.11138879E-02 0.30288189E+03</pdfrwt>
<totfact> 0.54285275E+03</totfact>
</mgrwt>
</event>
<event>
 4    1  0.6853809E-004  0.3168250E+03  0.7818608E-02  0.1077120E+00
          2   -1    0    0  501    0  0.00000000000E+00  0.00000000000E+00  0.32370484728E+03  0.32370484729E+03  0.25500000000E-02 0.  1.
         -2   -1    0    0    0  501 -0.00000000000E+00 -0.00000000000E+00 -0.77522834718E+02  0.77522834760E+02  0.25500000000E-02 0. -1.
    5000001    1    1    2    0    0 -0.18815594826E+01 -0.13041639883E+03  0.18185995799E+03  0.23667281565E+03  0.77000000000E+02 0.  0.
   -5000001    1    1    2    0    0  0.18815594826E+01  0.13041639883E+03  0.64322054579E+02  0.16455486640E+03  0.77000000000E+02 0.  0.
<mgrwt>
<rscale>  0 0.31682498E+03</rscale>
<asrwt>0</asrwt>
<pdfrwt beam="1">  1        2 0.46243550E-01 0.31682498E+03</pdfrwt>
<pdfrwt beam="2">  1       -2 0.11074690E-01 0.31682498E+03</pdfrwt>
<totfact> 0.61416246E+03</totfact>
</mgrwt>
</event>
<event>
 4    1  0.6853809E-004  0.2236843E+03  0.7818608E-02  0.1131166E+00
          2   -1    0    0  501    0  0.00000000000E+00  0.00000000000E+00  0.45736969231E+04  0.45736969231E+04  0.25500000000E-02 0.  1.
         -2   -1    0    0    0  501 -0.00000000000E+00 -0.00000000000E+00 -0.27349141457E+01  0.27349153345E+01  0.25500000000E-02 0. -1.
    5000001    1    1    2    0    0  0.73123504210E+02  0.11411533165E+02  0.16061815752E+04  0.16097284002E+04  0.77000000000E+02 0.  0.
   -5000001    1    1    2    0    0 -0.73123504210E+02 -0.11411533165E+02  0.29647804338E+04  0.29667034382E+04  0.77000000000E+02 0.  0.
<mgrwt>
<rscale>  0 0.22368434E+03</rscale>
<asrwt>0</asrwt>
<pdfrwt beam="1">  1        2 0.65338544E+00 0.22368434E+03</pdfrwt>
<pdfrwt beam="2">  1       -2 0.39070201E-03 0.22368434E+03</pdfrwt>
<totfact> 0.23724576E+03</totfact>
</mgrwt>
</event>
<event>
 4    1  0.6853809E-004  0.3918288E+03  0.7818608E-02  0.1046646E+00
          2   -1    0    0  501    0  0.00000000000E+00  0.00000000000E+00  0.22948064062E+04  0.22948064062E+04  0.25500000000E-02 0.  1.
         -2   -1    0    0    0  501 -0.00000000000E+00 -0.00000000000E+00 -0.16725788999E+02  0.16725789193E+02  0.25500000000E-02 0. -1.
    5000001    1    1    2    0    0  0.62731193220E+02 -0.15621272199E+03  0.15175111063E+04  0.15287598159E+04  0.77000000000E+02 0.  0.
   -5000001    1    1    2    0    0 -0.62731193220E+02  0.15621272199E+03  0.76056951094E+03  0.78277237948E+03  0.77000000000E+02 0.  0.
<mgrwt>
<rscale>  0 0.39182878E+03</rscale>
<asrwt>0</asrwt>
<pdfrwt beam="1">  1        2 0.32782935E+00 0.39182878E+03</pdfrwt>
<pdfrwt beam="2">  1       -2 0.23893994E-02 0.39182878E+03</pdfrwt>
<totfact> 0.37515536E+03</totfact>
</mgrwt>
</event>
<event>
 4    1  0.6853809E-004  0.4193037E+03  0.7818608E-02  0.1037293E+00
          2   -1    0    0  501    0  0.00000000000E+00  0.00000000000E+00  0.13427804144E+04  0.13427804144E+04  0.25500000000E-02 0.  1.
         -2   -1    0    0    0  501 -0.00000000000E+00 -0.00000000000E+00 -0.32733500292E+02  0.32733500392E+02  0.25500000000E-02 0. -1.
    5000001    1    1    2    0    0  0.11347398055E+03 -0.15388025337E+03  0.78077409758E+03  0.80752254958E+03  0.77000000000E+02 0.  0.
   -5000001    1    1    2    0    0 -0.11347398055E+03  0.15388025337E+03  0.52927281657E+03  0.56799136525E+03  0.77000000000E+02 0.  0.
<mgrwt>
<rscale>  0 0.41930372E+03</rscale>
<asrwt>0</asrwt>
<pdfrwt beam="1">  1        2 0.19182578E+00 0.41930372E+03</pdfrwt>
<pdfrwt beam="2">  1       -2 0.46762143E-02 0.41930372E+03</pdfrwt>
<totfact> 0.40917089E+03</totfact>
</mgrwt>
</event>
<event>
 4    1  0.6853809E-004  0.2305320E+03  0.7818608E-02  0.1126266E+00
          2   -1    0    0  501    0  0.00000000000E+00  0.00000000000E+00  0.36057702239E+02  0.36057702329E+02  0.25500000000E-02 0.  1.
         -2   -1    0    0    0  501 -0.00000000000E+00 -0.00000000000E+00 -0.36847199936E+03  0.36847199937E+03  0.25500000000E-02 0. -1.
    5000001    1    1    2    0    0  0.72184601933E+02 -0.25822310629E+02 -0.23371080365E+03  0.25773464693E+03  0.77000000000E+02 0.  0.
   -5000001    1    1    2    0    0 -0.72184601933E+02  0.25822310629E+02 -0.98703493467E+02  0.14679505477E+03  0.77000000000E+02 0.  0.
<mgrwt>
<rscale>  0 0.23053203E+03</rscale>
<asrwt>0</asrwt>
<pdfrwt beam="1">  1        2 0.51511006E-02 0.23053203E+03</pdfrwt>
<pdfrwt beam="2">  1       -2 0.52638855E-01 0.23053203E+03</pdfrwt>
<totfact> 0.51524089E+03</totfact>
</mgrwt>
</event>
<event>
 4    1  0.6853809E-004  0.2770051E+03  0.7818608E-02  0.1097336E+00
          2   -1    0    0  501    0  0.00000000000E+00  0.00000000000E+00  0.79380130170E+03  0.79380130170E+03  0.25500000000E-02 0.  1.
         -2   -1    0    0    0  501 -0.00000000000E+00 -0.00000000000E+00 -0.24165946118E+02  0.24165946252E+02  0.25500000000E-02 0. -1.
    5000001    1    1    2    0    0  0.96420661437E+02  0.53834565484E+02  0.48090506623E+03  0.49939341918E+03  0.77000000000E+02 0.  0.
   -5000001    1    1    2    0    0 -0.96420661437E+02 -0.53834565484E+02  0.28873028935E+03  0.31857382878E+03  0.77000000000E+02 0.  0.
<mgrwt>
<rscale>  0 0.27700512E+03</rscale>
<asrwt>0</asrwt>
<pdfrwt beam="1">  1        2 0.11340017E+00 0.27700512E+03</pdfrwt>
<pdfrwt beam="2">  1       -2 0.34522786E-02 0.27700512E+03</pdfrwt>
<totfact> 0.13455064E+04</totfact>
</mgrwt>
</event>
<event>
 4    1  0.6853809E-004  0.2690679E+03  0.7818608E-02  0.1101814E+00
         -2   -1    0    0    0  501 -0.00000000000E+00  0.00000000000E+00  0.10112903510E+02  0.10112903832E+02  0.25500000000E-02 0. -1.
          2   -1    0    0  501    0  0.00000000000E+00 -0.00000000000E+00 -0.17897317392E+04  0.17897317392E+04  0.25500000000E-02 0.  1.
    5000001    1    1    2    0    0 -0.99729298319E+02  0.21966955020E+02 -0.11689900618E+04  0.11759656647E+04  0.77000000000E+02 0.  0.
   -5000001    1    1    2    0    0  0.99729298319E+02 -0.21966955020E+02 -0.61062877386E+03  0.62387897826E+03  0.77000000000E+02 0.  0.
<mgrwt>
<rscale>  0 0.26906791E+03</rscale>
<asrwt>0</asrwt>
<pdfrwt beam="1">  1        2 0.25567576E+00 0.26906791E+03</pdfrwt>
<pdfrwt beam="2">  1       -2 0.14447017E-02 0.26906791E+03</pdfrwt>
<totfact> 0.13942384E+04</totfact>
</mgrwt>
</event>
<event>
 4    1  0.6853809E-004  0.2973849E+03  0.7818608E-02  0.1086555E+00
          2   -1    0    0  501    0  0.00000000000E+00  0.00000000000E+00  0.34460464932E+04  0.34460464932E+04  0.25500000000E-02 0.  1.
         -2   -1    0    0    0  501 -0.00000000000E+00 -0.00000000000E+00 -0.64158876241E+01  0.64158881309E+01  0.25500000000E-02 0. -1.
    5000001    1    1    2    0    0  0.48759154232E+02  0.70125645633E+02  0.62548563012E+03  0.63596881589E+03  0.77000000000E+02 0.  0.
   -5000001    1    1    2    0    0 -0.48759154232E+02 -0.70125645633E+02  0.28141449755E+04  0.28164935655E+04  0.77000000000E+02 0.  0.
<mgrwt>
<rscale>  0 0.29738492E+03</rscale>
<asrwt>0</asrwt>
<pdfrwt beam="1">  1        2 0.49229508E+00 0.29738492E+03</pdfrwt>
<pdfrwt beam="2">  1       -2 0.91655033E-03 0.29738492E+03</pdfrwt>
<totfact> 0.38094165E+03</totfact>
</mgrwt>
</event>
<event>
 4    1  0.6853809E-004  0.2052964E+03  0.7818608E-02  0.1145346E+00
         -2   -1    0    0    0  501 -0.00000000000E+00  0.00000000000E+00  0.12916996945E+02  0.12916997197E+02  0.25500000000E-02 0. -1.
          2   -1    0    0  501    0  0.00000000000E+00 -0.00000000000E+00 -0.81571996462E+03  0.81571996463E+03  0.25500000000E-02 0.  1.
    5000001    1    1    2    0    0  0.27059390719E+02 -0.10035075010E+02 -0.15341589375E+03  0.17406421175E+03  0.77000000000E+02 0.  0.
   -5000001    1    1    2    0    0 -0.27059390719E+02  0.10035075010E+02 -0.64938707392E+03  0.65457275007E+03  0.77000000000E+02 0.  0.
<mgrwt>
<rscale>  0 0.20529639E+03</rscale>
<asrwt>0</asrwt>
<pdfrwt beam="1">  1        2 0.11653139E+00 0.20529639E+03</pdfrwt>
<pdfrwt beam="2">  1       -2 0.18452858E-02 0.20529639E+03</pdfrwt>
<totfact> 0.32265698E+04</totfact>
</mgrwt>
</event>
<event>
 4    1  0.6853809E-004  0.1721220E+03  0.7818608E-02  0.1175653E+00
          2   -1    0    0  501    0  0.00000000000E+00  0.00000000000E+00  0.11552820846E+04  0.11552820847E+04  0.25500000000E-02 0.  1.
         -2   -1    0    0    0  501 -0.00000000000E+00 -0.00000000000E+00 -0.64109871754E+01  0.64109876825E+01  0.25500000000E-02 0. -1.
    5000001    1    1    2    0    0 -0.81237464156E+01 -0.36564830953E+02  0.63269709928E+03  0.63846503550E+03  0.77000000000E+02 0.  0.
   -5000001    1    1    2    0    0  0.81237464156E+01  0.36564830953E+02  0.51617399819E+03  0.52322803683E+03  0.77000000000E+02 0.  0.
<mgrwt>
<rscale>  0 0.17212204E+03</rscale>
<asrwt>0</asrwt>
<pdfrwt beam="1">  1        2 0.16504037E+00 0.17212204E+03</pdfrwt>
<pdfrwt beam="2">  1       -2 0.91585494E-03 0.17212204E+03</pdfrwt>
<totfact> 0.55212408E+04</totfact>
</mgrwt>
</event>
<event>
 4    1  0.6853809E-004  0.4388047E+03  0.7818608E-02  0.1031114E+00
         -2   -1    0    0    0  501 -0.00000000000E+00  0.00000000000E+00  0.30387215418E+02  0.30387215525E+02  0.25500000000E-02 0. -1.
          2   -1    0    0  501    0  0.00000000000E+00 -0.00000000000E+00 -0.15841331749E+04  0.15841331749E+04  0.25500000000E-02 0.  1.
    5000001    1    1    2    0    0 -0.18187177093E+03  0.42811824014E+02 -0.10911989065E+04  0.11097541380E+04  0.77000000000E+02 0.  0.
   -5000001    1    1    2    0    0  0.18187177093E+03 -0.42811824014E+02 -0.46254705302E+03  0.50476625243E+03  0.77000000000E+02 0.  0.
<mgrwt>
<rscale>  0 0.43880472E+03</rscale>
<asrwt>0</asrwt>
<pdfrwt beam="1">  1        2 0.22630469E+00 0.43880472E+03</pdfrwt>
<pdfrwt beam="2">  1       -2 0.43410318E-02 0.43880472E+03</pdfrwt>
<totfact> 0.34375472E+03</totfact>
</mgrwt>
</event>
<event>
 4    1  0.6853809E-004  0.2454171E+03  0.7818608E-02  0.1116236E+00
         -2   -1    0    0    0  501 -0.00000000000E+00  0.00000000000E+00  0.25261143655E+02  0.25261143784E+02  0.25500000000E-02 0. -1.
          2   -1    0    0  501    0  0.00000000000E+00 -0.00000000000E+00 -0.59606894665E+03  0.59606894666E+03  0.25500000000E-02 0.  1.
    5000001    1    1    2    0    0 -0.36375139720E+02 -0.88233666738E+02 -0.27406677641E+03  0.30024977713E+03  0.77000000000E+02 0.  0.
   -5000001    1    1    2    0    0  0.36375139720E+02  0.88233666738E+02 -0.29674102659E+03  0.32108031331E+03  0.77000000000E+02 0.  0.
<mgrwt>
<rscale>  0 0.24541706E+03</rscale>
<asrwt>0</asrwt>
<pdfrwt beam="1">  1        2 0.85152698E-01 0.24541706E+03</pdfrwt>
<pdfrwt beam="2">  1       -2 0.36087352E-02 0.24541706E+03</pdfrwt>
<totfact> 0.17562497E+04</totfact>
</mgrwt>
</event>
<event>
 4    1  0.6853809E-004  0.3684900E+03  0.7818608E-02  0.1055272E+00
         -2   -1    0    0    0  501 -0.00000000000E+00  0.00000000000E+00  0.37122954059E+02  0.37122954147E+02  0.25500000000E-02 0. -1.
          2   -1    0    0  501    0  0.00000000000E+00 -0.00000000000E+00 -0.91442678166E+03  0.91442678166E+03  0.25500000000E-02 0.  1.
    5000001    1    1    2    0    0  0.15984529788E+03 -0.49564919996E+02 -0.44682719038E+03  0.48331225787E+03  0.77000000000E+02 0.  0.
   -5000001    1    1    2    0    0 -0.15984529788E+03  0.49564919996E+02 -0.43047663722E+03  0.46823747794E+03  0.77000000000E+02 0.  0.
<mgrwt>
<rscale>  0 0.36849002E+03</rscale>
<asrwt>0</asrwt>
<pdfrwt beam="1">  1        2 0.13063238E+00 0.36849002E+03</pdfrwt>
<pdfrwt beam="2">  1       -2 0.53032797E-02 0.36849002E+03</pdfrwt>
<totfact> 0.59095011E+03</totfact>
</mgrwt>
</event>
<event>
 4    1  0.6853809E-004  0.2092444E+03  0.7818608E-02  0.1142166E+00
          2   -1    0    0  501    0  0.00000000000E+00  0.00000000000E+00  0.60078635506E+03  0.60078635506E+03  0.25500000000E-02 0.  1.
         -2   -1    0    0    0  501 -0.00000000000E+00 -0.00000000000E+00 -0.18219127192E+02  0.18219127370E+02  0.25500000000E-02 0. -1.
    5000001    1    1    2    0    0 -0.42544023627E+02  0.54136488177E+02  0.24213238463E+03  0.26324483848E+03  0.77000000000E+02 0.  0.
   -5000001    1    1    2    0    0  0.42544023627E+02 -0.54136488177E+02  0.34043484324E+03  0.35576064396E+03  0.77000000000E+02 0.  0.
<mgrwt>
<rscale>  0 0.20924438E+03</rscale>
<asrwt>0</asrwt>
<pdfrwt beam="1">  1        2 0.85826609E-01 0.20924438E+03</pdfrwt>
<pdfrwt beam="2">  1       -2 0.26027329E-02 0.20924438E+03</pdfrwt>
<totfact> 0.27986458E+04</totfact>
</mgrwt>
</event>
<event>
 4    1  0.6853809E-004  0.1935999E+03  0.7818608E-02  0.1155254E+00
         -2   -1    0    0    0  501 -0.00000000000E+00  0.00000000000E+00  0.10292209626E+02  0.10292209942E+02  0.25500000000E-02 0. -1.
          2   -1    0    0  501    0  0.00000000000E+00 -0.00000000000E+00 -0.91041931568E+03  0.91041931568E+03  0.25500000000E-02 0.  1.
    5000001    1    1    2    0    0  0.55128927754E+02 -0.92543264311E+00 -0.35480947698E+03  0.36723128959E+03  0.77000000000E+02 0.  0.
   -5000001    1    1    2    0    0 -0.55128927754E+02  0.92543264311E+00 -0.54531762907E+03  0.55348023603E+03  0.77000000000E+02 0.  0.
<mgrwt>
<rscale>  0 0.19359986E+03</rscale>
<asrwt>0</asrwt>
<pdfrwt beam="1">  1        2 0.13005985E+00 0.19359986E+03</pdfrwt>
<pdfrwt beam="2">  1       -2 0.14703163E-02 0.19359986E+03</pdfrwt>
<totfact> 0.38928906E+04</totfact>
</mgrwt>
</event>
<event>
 4    1  0.6853809E-004  0.4308376E+03  0.7818608E-02  0.1033596E+00
          2   -1    0    0  501    0  0.00000000000E+00  0.00000000000E+00  0.13095192962E+04  0.13095192962E+04  0.25500000000E-02 0. -1.
         -2   -1    0    0    0  501 -0.00000000000E+00 -0.00000000000E+00 -0.35436873701E+02  0.35436873793E+02  0.25500000000E-02 0.  1.
    5000001    1    1    2    0    0 -0.79955121397E+02  0.13959339356E+03  0.10142035037E+04  0.10297654509E+04  0.77000000000E+02 0.  0.
   -5000001    1    1    2    0    0  0.79955121397E+02 -0.13959339356E+03  0.25987891880E+03  0.31519071909E+03  0.77000000000E+02 0.  0.
<mgrwt>
<rscale>  0 0.43083765E+03</rscale>
<asrwt>0</asrwt>
<pdfrwt beam="1">  1        2 0.18707419E+00 0.43083765E+03</pdfrwt>
<pdfrwt beam="2">  1       -2 0.50624104E-02 0.43083765E+03</pdfrwt>
<totfact> 0.37733319E+03</totfact>
</mgrwt>
</event>
<event>
 4    1  0.6853809E-004  0.2230869E+03  0.7818608E-02  0.1131602E+00
         -2   -1    0    0    0  501 -0.00000000000E+00  0.00000000000E+00  0.25876024584E+03  0.25876024585E+03  0.25500000000E-02 0. -1.
          2   -1    0    0  501    0  0.00000000000E+00 -0.00000000000E+00 -0.48082901401E+02  0.48082901469E+02  0.25500000000E-02 0.  1.
    5000001    1    1    2    0    0  0.68531244342E+02  0.40701071151E+02  0.87949539063E+02  0.14148226060E+03  0.77000000000E+02 0.  0.
   -5000001    1    1    2    0    0 -0.68531244342E+02 -0.40701071151E+02  0.12272780537E+03  0.16536088672E+03  0.77000000000E+02 0.  0.
<mgrwt>
<rscale>  0 0.22308692E+03</rscale>
<asrwt>0</asrwt>
<pdfrwt beam="1">  1        2 0.68689860E-02 0.22308692E+03</pdfrwt>
<pdfrwt beam="2">  1       -2 0.36965749E-01 0.22308692E+03</pdfrwt>
<totfact> 0.70276956E+03</totfact>
</mgrwt>
</event>
<event>
 4    1  0.6853809E-004  0.1686368E+03  0.7818608E-02  0.1179277E+00
         -2   -1    0    0    0  501 -0.00000000000E+00  0.00000000000E+00  0.42216184655E+02  0.42216184732E+02  0.25500000000E-02 0. -1.
          2   -1    0    0  501    0  0.00000000000E+00 -0.00000000000E+00 -0.16840922767E+03  0.16840922769E+03  0.25500000000E-02 0.  1.
    5000001    1    1    2    0    0  0.12687440546E+02  0.30737705319E+02 -0.52293142596E+02  0.98840024476E+02  0.77000000000E+02 0.  0.
   -5000001    1    1    2    0    0 -0.12687440546E+02 -0.30737705319E+02 -0.73899900417E+02  0.11178538794E+03  0.77000000000E+02 0.  0.
<mgrwt>
<rscale>  0 0.16863683E+03</rscale>
<asrwt>0</asrwt>
<pdfrwt beam="1">  1        2 0.24058461E-01 0.16863683E+03</pdfrwt>
<pdfrwt beam="2">  1       -2 0.60308836E-02 0.16863683E+03</pdfrwt>
<totfact> 0.31111265E+04</totfact>
</mgrwt>
</event>
<event>
 4    1  0.6853809E-004  0.2031586E+03  0.7818608E-02  0.1147101E+00
         -2   -1    0    0    0  501 -0.00000000000E+00  0.00000000000E+00  0.86443804081E+01  0.86443807842E+01  0.25500000000E-02 0. -1.
          2   -1    0    0  501    0  0.00000000000E+00 -0.00000000000E+00 -0.11936483485E+04  0.11936483485E+04  0.25500000000E-02 0.  1.
    5000001    1    1    2    0    0  0.63172620929E+02 -0.17796024998E+02 -0.64604995393E+03  0.65392432399E+03  0.77000000000E+02 0.  0.
   -5000001    1    1    2    0    0 -0.63172620929E+02  0.17796024998E+02 -0.53895401421E+03  0.54836840534E+03  0.77000000000E+02 0.  0.
<mgrwt>
<rscale>  0 0.20315856E+03</rscale>
<asrwt>0</asrwt>
<pdfrwt beam="1">  1        2 0.17052109E+00 0.20315856E+03</pdfrwt>
<pdfrwt beam="2">  1       -2 0.12349123E-02 0.20315856E+03</pdfrwt>
<totfact> 0.34652286E+04</totfact>
</mgrwt>
</event>
<event>
 4    1  0.6853809E-004  0.1715481E+03  0.7818608E-02  0.1176243E+00
          2   -1    0    0  501    0  0.00000000000E+00  0.00000000000E+00  0.75479616872E+02  0.75479616915E+02  0.25500000000E-02 0.  1.
         -2   -1    0    0    0  501 -0.00000000000E+00 -0.00000000000E+00 -0.97472474714E+02  0.97472474747E+02  0.25500000000E-02 0. -1.
    5000001    1    1    2    0    0  0.20197625229E+02 -0.29702474072E+02  0.84722901999E+00  0.84969987807E+02  0.77000000000E+02 0.  0.
   -5000001    1    1    2    0    0 -0.20197625229E+02  0.29702474072E+02 -0.22840086862E+02  0.87982103855E+02  0.77000000000E+02 0.  0.
<mgrwt>
<rscale>  0 0.17154807E+03</rscale>
<asrwt>0</asrwt>
<pdfrwt beam="1">  1        2 0.10782802E-01 0.17154807E+03</pdfrwt>
<pdfrwt beam="2">  1       -2 0.13924639E-01 0.17154807E+03</pdfrwt>
<totfact> 0.21372309E+04</totfact>
</mgrwt>
</event>
<event>
 4    1  0.6853809E-004  0.1618543E+03  0.7818608E-02  0.1186619E+00
         -2   -1    0    0    0  501 -0.00000000000E+00  0.00000000000E+00  0.25389005941E+01  0.25389018747E+01  0.25500000000E-02 0. -1.
          2   -1    0    0  501    0  0.00000000000E+00 -0.00000000000E+00 -0.25795435543E+04  0.25795435543E+04  0.25500000000E-02 0.  1.
    5000001    1    1    2    0    0 -0.21834185139E+02 -0.11106050212E+02 -0.12169257091E+04  0.12196053696E+04  0.77000000000E+02 0.  0.
   -5000001    1    1    2    0    0  0.21834185139E+02  0.11106050212E+02 -0.13600789446E+04  0.13624770866E+04  0.77000000000E+02 0.  0.
<mgrwt>
<rscale>  0 0.16185433E+03</rscale>
<asrwt>0</asrwt>
<pdfrwt beam="1">  1        2 0.36850454E+00 0.16185433E+03</pdfrwt>
<pdfrwt beam="2">  1       -2 0.36270183E-03 0.16185433E+03</pdfrwt>
<totfact> 0.41099826E+04</totfact>
</mgrwt>
</event>
<event>
 4    1  0.6853809E-004  0.3777646E+03  0.7818608E-02  0.1051763E+00
         -2   -1    0    0    0  501 -0.00000000000E+00  0.00000000000E+00  0.18274848320E+02  0.18274848498E+02  0.25500000000E-02 0. -1.
          2   -1    0    0  501    0  0.00000000000E+00 -0.00000000000E+00 -0.19522197303E+04  0.19522197303E+04  0.25500000000E-02 0.  1.
    5000001    1    1    2    0    0 -0.16271103551E+03  0.15358844603E+02 -0.12544196735E+04  0.12673628101E+04  0.77000000000E+02 0.  0.
   -5000001    1    1    2    0    0  0.16271103551E+03 -0.15358844603E+02 -0.67952520853E+03  0.70313176874E+03  0.77000000000E+02 0.  0.
<mgrwt>
<rscale>  0 0.37776458E+03</rscale>
<asrwt>0</asrwt>
<pdfrwt beam="1">  1        2 0.27888840E+00 0.37776458E+03</pdfrwt>
<pdfrwt beam="2">  1       -2 0.26106939E-02 0.37776458E+03</pdfrwt>
<totfact> 0.48579059E+03</totfact>
</mgrwt>
</event>
<event>
 4    1  0.6853809E-004  0.2588777E+03  0.7818608E-02  0.1107819E+00
          2   -1    0    0  501    0  0.00000000000E+00  0.00000000000E+00  0.10664447702E+04  0.10664447702E+04  0.25500000000E-02 0.  1.
         -2   -1    0    0    0  501 -0.00000000000E+00 -0.00000000000E+00 -0.15710530489E+02  0.15710530696E+02  0.25500000000E-02 0. -1.
    5000001    1    1    2    0    0  0.42309060546E+02  0.94067964200E+02  0.58246518057E+03  0.59651783298E+03  0.77000000000E+02 0.  0.
   -5000001    1    1    2    0    0 -0.42309060546E+02 -0.94067964200E+02  0.46826905915E+03  0.48563746792E+03  0.77000000000E+02 0.  0.
<mgrwt>
<rscale>  0 0.25887768E+03</rscale>
<asrwt>0</asrwt>
<pdfrwt beam="1">  1        2 0.15234922E+00 0.25887768E+03</pdfrwt>
<pdfrwt beam="2">  1       -2 0.22443620E-02 0.25887768E+03</pdfrwt>
<totfact> 0.17263839E+04</totfact>
</mgrwt>
</event>
<event>
 4    1  0.6853809E-004  0.2805261E+03  0.7818608E-02  0.1095402E+00
         -2   -1    0    0    0  501 -0.00000000000E+00  0.00000000000E+00  0.29111352328E+02  0.29111352440E+02  0.25500000000E-02 0. -1.
          2   -1    0    0  501    0  0.00000000000E+00 -0.00000000000E+00 -0.67580925624E+03  0.67580925625E+03  0.25500000000E-02 0.  1.
    5000001    1    1    2    0    0 -0.66326131733E+02 -0.62204864398E+02 -0.50930206417E+03  0.52305467542E+03  0.77000000000E+02 0.  0.
   -5000001    1    1    2    0    0  0.66326131733E+02  0.62204864398E+02 -0.13739583974E+03  0.18186593327E+03  0.77000000000E+02 0.  0.
<mgrwt>
<rscale>  0 0.28052609E+03</rscale>
<asrwt>0</asrwt>
<pdfrwt beam="1">  1        2 0.96544170E-01 0.28052609E+03</pdfrwt>
<pdfrwt beam="2">  1       -2 0.41587650E-02 0.28052609E+03</pdfrwt>
<totfact> 0.12355561E+04</totfact>
</mgrwt>
</event>
<event>
 4    1  0.6853809E-004  0.2821080E+03  0.7818608E-02  0.1094543E+00
          2   -1    0    0  501    0  0.00000000000E+00  0.00000000000E+00  0.40382121022E+03  0.40382121022E+03  0.25500000000E-02 0.  1.
         -2   -1    0    0    0  501 -0.00000000000E+00 -0.00000000000E+00 -0.49269899407E+02  0.49269899473E+02  0.25500000000E-02 0. -1.
    5000001    1    1    2    0    0  0.10269029023E+03  0.57307129592E+02  0.19613116439E+03  0.24130030347E+03  0.77000000000E+02 0.  0.
   -5000001    1    1    2    0    0 -0.10269029023E+03 -0.57307129592E+02  0.15842014642E+03  0.21179080623E+03  0.77000000000E+02 0.  0.
<mgrwt>
<rscale>  0 0.28210800E+03</rscale>
<asrwt>0</asrwt>
<pdfrwt beam="1">  1        2 0.57688743E-01 0.28210800E+03</pdfrwt>
<pdfrwt beam="2">  1       -2 0.70385573E-02 0.28210800E+03</pdfrwt>
<totfact> 0.98451504E+03</totfact>
</mgrwt>
</event>
<event>
 4    1  0.6853809E-004  0.3050493E+03  0.7818608E-02  0.1082743E+00
          2   -1    0    0  501    0  0.00000000000E+00  0.00000000000E+00  0.78895569027E+03  0.78895569027E+03  0.25500000000E-02 0.  1.
         -2   -1    0    0    0  501 -0.00000000000E+00 -0.00000000000E+00 -0.29486796262E+02  0.29486796372E+02  0.25500000000E-02 0. -1.
    5000001    1    1    2    0    0 -0.93839098472E+02  0.50167926366E+02  0.58776829512E+03  0.60226502969E+03  0.77000000000E+02 0.  0.
   -5000001    1    1    2    0    0  0.93839098472E+02 -0.50167926366E+02  0.17170059889E+03  0.21617745696E+03  0.77000000000E+02 0.  0.
<mgrwt>
<rscale>  0 0.30504935E+03</rscale>
<asrwt>0</asrwt>
<pdfrwt beam="1">  1        2 0.11270795E+00 0.30504935E+03</pdfrwt>
<pdfrwt beam="2">  1       -2 0.42123998E-02 0.30504935E+03</pdfrwt>
<totfact> 0.10086394E+04</totfact>
</mgrwt>
</event>
<event>
 4    1  0.6853809E-004  0.4408466E+03  0.7818608E-02  0.1030487E+00
          2   -1    0    0  501    0  0.00000000000E+00  0.00000000000E+00  0.52696424884E+03  0.52696424885E+03  0.25500000000E-02 0.  1.
         -2   -1    0    0    0  501 -0.00000000000E+00 -0.00000000000E+00 -0.92200609902E+02  0.92200609937E+02  0.25500000000E-02 0. -1.
    5000001    1    1    2    0    0 -0.12884394419E+03  0.16141326049E+03  0.21519580061E+03  0.30804745611E+03  0.77000000000E+02 0.  0.
   -5000001    1    1    2    0    0  0.12884394419E+03 -0.16141326049E+03  0.21956783833E+03  0.31111740267E+03  0.77000000000E+02 0.  0.
<mgrwt>
<rscale>  0 0.44084657E+03</rscale>
<asrwt>0</asrwt>
<pdfrwt beam="1">  1        2 0.75280608E-01 0.44084657E+03</pdfrwt>
<pdfrwt beam="2">  1       -2 0.13171516E-01 0.44084657E+03</pdfrwt>
<totfact> 0.27282475E+03</totfact>
</mgrwt>
</event>
<event>
 4    1  0.6853809E-004  0.1998751E+03  0.7818608E-02  0.1149844E+00
         -2   -1    0    0    0  501 -0.00000000000E+00  0.00000000000E+00  0.15495561913E+02  0.15495562122E+02  0.25500000000E-02 0. -1.
          2   -1    0    0  501    0  0.00000000000E+00 -0.00000000000E+00 -0.64454056272E+03  0.64454056273E+03  0.25500000000E-02 0.  1.
    5000001    1    1    2    0    0  0.43807876987E+02 -0.41233397941E+02 -0.38372752815E+03  0.39597365954E+03  0.77000000000E+02 0.  0.
   -5000001    1    1    2    0    0 -0.43807876987E+02  0.41233397941E+02 -0.24531747266E+03  0.26406246531E+03  0.77000000000E+02 0.  0.
<mgrwt>
<rscale>  0 0.19987514E+03</rscale>
<asrwt>0</asrwt>
<pdfrwt beam="1">  1        2 0.92077206E-01 0.19987514E+03</pdfrwt>
<pdfrwt beam="2">  1       -2 0.22136521E-02 0.19987514E+03</pdfrwt>
<totfact> 0.32656733E+04</totfact>
</mgrwt>
</event>
<event>
 4    1  0.6853809E-004  0.3284549E+03  0.7818608E-02  0.1071823E+00
         -2   -1    0    0    0  501 -0.00000000000E+00  0.00000000000E+00  0.21232869803E+02  0.21232869956E+02  0.25500000000E-02 0. -1.
          2   -1    0    0  501    0  0.00000000000E+00 -0.00000000000E+00 -0.12702309189E+04  0.12702309189E+04  0.25500000000E-02 0.  1.
    5000001    1    1    2    0    0  0.13876190599E+03  0.34301193372E+02 -0.52737067792E+03  0.55179730912E+03  0.77000000000E+02 0.  0.
   -5000001    1    1    2    0    0 -0.13876190599E+03 -0.34301193372E+02 -0.72162737119E+03  0.73966647975E+03  0.77000000000E+02 0.  0.
<mgrwt>
<rscale>  0 0.32845485E+03</rscale>
<asrwt>0</asrwt>
<pdfrwt beam="1">  1        2 0.18146151E+00 0.32845485E+03</pdfrwt>
<pdfrwt beam="2">  1       -2 0.30332679E-02 0.32845485E+03</pdfrwt>
<totfact> 0.85875185E+03</totfact>
</mgrwt>
</event>
<event>
 4    1  0.6853809E-004  0.2583802E+03  0.7818608E-02  0.1108120E+00
          2   -1    0    0  501    0  0.00000000000E+00  0.00000000000E+00  0.41163029430E+02  0.41163029509E+02  0.25500000000E-02 0.  1.
         -2   -1    0    0    0  501 -0.00000000000E+00 -0.00000000000E+00 -0.40546278955E+03  0.40546278955E+03  0.25500000000E-02 0. -1.
    5000001    1    1    2    0    0  0.67040320888E+02  0.60832237174E+02 -0.26971323374E+03  0.29473580400E+03  0.77000000000E+02 0.  0.
   -5000001    1    1    2    0    0 -0.67040320888E+02 -0.60832237174E+02 -0.94586526376E+02  0.15189001506E+03  0.77000000000E+02 0.  0.
<mgrwt>
<rscale>  0 0.25838016E+03</rscale>
<asrwt>0</asrwt>
<pdfrwt beam="1">  1        2 0.58804330E-02 0.25838016E+03</pdfrwt>
<pdfrwt beam="2">  1       -2 0.57923254E-01 0.25838016E+03</pdfrwt>
<totfact> 0.35844855E+03</totfact>
</mgrwt>
</event>
<event>
 4    1  0.6853809E-004  0.6069379E+03  0.7818608E-02  0.9891116E-01
         -2   -1    0    0    0  501 -0.00000000000E+00  0.00000000000E+00  0.47419610833E+02  0.47419610902E+02  0.25500000000E-02 0. -1.
          2   -1    0    0  501    0  0.00000000000E+00 -0.00000000000E+00 -0.19420955687E+04  0.19420955687E+04  0.25500000000E-02 0.  1.
    5000001    1    1    2    0    0 -0.71073704449E+02 -0.27371686702E+03 -0.12052782746E+04  0.12404019970E+04  0.77000000000E+02 0.  0.
   -5000001    1    1    2    0    0  0.71073704449E+02  0.27371686702E+03 -0.68939768318E+03  0.74911318259E+03  0.77000000000E+02 0.  0.
<mgrwt>
<rscale>  0 0.60693794E+03</rscale>
<asrwt>0</asrwt>
<pdfrwt beam="1">  1        2 0.27744217E+00 0.60693794E+03</pdfrwt>
<pdfrwt beam="2">  1       -2 0.67742313E-02 0.60693794E+03</pdfrwt>
<totfact> 0.11302228E+03</totfact>
</mgrwt>
</event>
<event>
 4    1  0.6853809E-004  0.2109289E+03  0.7818608E-02  0.1140832E+00
         -2   -1    0    0    0  501 -0.00000000000E+00  0.00000000000E+00  0.60056565030E+02  0.60056565084E+02  0.25500000000E-02 0. -1.
          2   -1    0    0  501    0  0.00000000000E+00 -0.00000000000E+00 -0.18520458409E+03  0.18520458411E+03  0.25500000000E-02 0.  1.
    5000001    1    1    2    0    0 -0.41521911657E+02 -0.44059223469E+02 -0.17114927379E+02  0.99434425928E+02  0.77000000000E+02 0.  0.
   -5000001    1    1    2    0    0  0.41521911657E+02  0.44059223469E+02 -0.10803309169E+03  0.14582672327E+03  0.77000000000E+02 0.  0.
<mgrwt>
<rscale>  0 0.21092891E+03</rscale>
<asrwt>0</asrwt>
<pdfrwt beam="1">  1        2 0.26457797E-01 0.21092891E+03</pdfrwt>
<pdfrwt beam="2">  1       -2 0.85795094E-02 0.21092891E+03</pdfrwt>
<totfact> 0.16559258E+04</totfact>
</mgrwt>
</event>
<event>
 4    1  0.6853809E-004  0.2740060E+03  0.7818608E-02  0.1099009E+00
          2   -1    0    0  501    0  0.00000000000E+00  0.00000000000E+00  0.17384122932E+04  0.17384122932E+04  0.25500000000E-02 0.  1.
         -2   -1    0    0    0  501 -0.00000000000E+00 -0.00000000000E+00 -0.10797105882E+02  0.10797106183E+02  0.25500000000E-02 0. -1.
    5000001    1    1    2    0    0 -0.95107968066E+02 -0.48081310872E+02  0.11096875559E+04  0.11174492426E+04  0.77000000000E+02 0.  0.
   -5000001    1    1    2    0    0  0.95107968066E+02  0.48081310872E+02  0.61792763146E+03  0.63176015684E+03  0.77000000000E+02 0.  0.
<mgrwt>
<rscale>  0 0.27400600E+03</rscale>
<asrwt>0</asrwt>
<pdfrwt beam="1">  1        2 0.24834465E+00 0.27400600E+03</pdfrwt>
<pdfrwt beam="2">  1       -2 0.15424435E-02 0.27400600E+03</pdfrwt>
<totfact> 0.13432296E+04</totfact>
</mgrwt>
</event>
<event>
 4    1  0.6853809E-004  0.3557757E+03  0.7818608E-02  0.1060269E+00
          2   -1    0    0  501    0  0.00000000000E+00  0.00000000000E+00  0.83388934493E+02  0.83388934532E+02  0.25500000000E-02 0.  1.
         -2   -1    0    0    0  501 -0.00000000000E+00 -0.00000000000E+00 -0.37947589837E+03  0.37947589838E+03  0.25500000000E-02 0. -1.
    5000001    1    1    2    0    0 -0.14390348478E+03  0.18636458727E+02 -0.23685112572E+03  0.28824119463E+03  0.77000000000E+02 0.  0.
   -5000001    1    1    2    0    0  0.14390348478E+03 -0.18636458727E+02 -0.59235838157E+02  0.17462363828E+03  0.77000000000E+02 0.  0.
<mgrwt>
<rscale>  0 0.35577572E+03</rscale>
<asrwt>0</asrwt>
<pdfrwt beam="1">  1        2 0.11912705E-01 0.35577572E+03</pdfrwt>
<pdfrwt beam="2">  1       -2 0.54210842E-01 0.35577572E+03</pdfrwt>
<totfact> 0.16911631E+03</totfact>
</mgrwt>
</event>
<event>
 4    1  0.6853809E-004  0.8541753E+03  0.7818608E-02  0.9484750E-01
         -2   -1    0    0    0  501 -0.00000000000E+00  0.00000000000E+00  0.62909656507E+02  0.62909656559E+02  0.25500000000E-02 0. -1.
          2   -1    0    0  501    0  0.00000000000E+00 -0.00000000000E+00 -0.28994575188E+04  0.28994575188E+04  0.25500000000E-02 0.  1.
    5000001    1    1    2    0    0  0.38384067014E+03  0.12231923839E+03 -0.18312434877E+04  0.18766132706E+04  0.77000000000E+02 0.  0.
   -5000001    1    1    2    0    0 -0.38384067014E+03 -0.12231923839E+03 -0.10053043746E+04  0.10857539048E+04  0.77000000000E+02 0.  0.
<mgrwt>
<rscale>  0 0.85417534E+03</rscale>
<asrwt>0</asrwt>
<pdfrwt beam="1">  1        2 0.41420813E+00 0.85417534E+03</pdfrwt>
<pdfrwt beam="2">  1       -2 0.89870956E-02 0.85417534E+03</pdfrwt>
<totfact> 0.22641679E+02</totfact>
</mgrwt>
</event>
<event>
 4    1  0.6853809E-004  0.4121566E+03  0.7818608E-02  0.1039650E+00
          2   -1    0    0  501    0  0.00000000000E+00  0.00000000000E+00  0.27716585870E+03  0.27716585871E+03  0.25500000000E-02 0.  1.
         -2   -1    0    0    0  501 -0.00000000000E+00 -0.00000000000E+00 -0.15322330173E+03  0.15322330175E+03  0.25500000000E-02 0. -1.
    5000001    1    1    2    0    0  0.17287020513E+03  0.51861298989E+02  0.12772973903E+03  0.23413156213E+03  0.77000000000E+02 0.  0.
   -5000001    1    1    2    0    0 -0.17287020513E+03 -0.51861298989E+02 -0.37871820553E+01  0.19625759833E+03  0.77000000000E+02 0.  0.
<mgrwt>
<rscale>  0 0.41215661E+03</rscale>
<asrwt>0</asrwt>
<pdfrwt beam="1">  1        2 0.39595122E-01 0.41215661E+03</pdfrwt>
<pdfrwt beam="2">  1       -2 0.21889043E-01 0.41215661E+03</pdfrwt>
<totfact> 0.23397690E+03</totfact>
</mgrwt>
</event>
<event>
 4    1  0.6853809E-004  0.4128524E+03  0.7818608E-02  0.1039418E+00
          2   -1    0    0  501    0  0.00000000000E+00  0.00000000000E+00  0.42728723772E+03  0.42728723773E+03  0.25500000000E-02 0.  1.
         -2   -1    0    0    0  501 -0.00000000000E+00 -0.00000000000E+00 -0.99726318152E+02  0.99726318184E+02  0.25500000000E-02 0. -1.
    5000001    1    1    2    0    0 -0.15425379308E+03  0.10940980061E+03  0.12510289443E+03  0.23946705691E+03  0.77000000000E+02 0.  0.
   -5000001    1    1    2    0    0  0.15425379308E+03 -0.10940980061E+03  0.20245802514E+03  0.28754649901E+03  0.77000000000E+02 0.  0.
<mgrwt>
<rscale>  0 0.41285243E+03</rscale>
<asrwt>0</asrwt>
<pdfrwt beam="1">  1        2 0.61041034E-01 0.41285243E+03</pdfrwt>
<pdfrwt beam="2">  1       -2 0.14246617E-01 0.41285243E+03</pdfrwt>
<totfact> 0.30261786E+03</totfact>
</mgrwt>
</event>
<event>
 4    1  0.6853809E-004  0.3392947E+03  0.7818608E-02  0.1067097E+00
         -2   -1    0    0    0  501 -0.00000000000E+00  0.00000000000E+00  0.16358006514E+03  0.16358006516E+03  0.25500000000E-02 0. -1.
          2   -1    0    0  501    0  0.00000000000E+00 -0.00000000000E+00 -0.17593972571E+03  0.17593972573E+03  0.25500000000E-02 0.  1.
    5000001    1    1    2    0    0 -0.17600817222E+02  0.14565840267E+03 -0.42605522956E+02  0.17108591298E+03  0.77000000000E+02 0.  0.
   -5000001    1    1    2    0    0  0.17600817222E+02 -0.14565840267E+03  0.30245862387E+02  0.16843387790E+03  0.77000000000E+02 0.  0.
<mgrwt>
<rscale>  0 0.33929475E+03</rscale>
<asrwt>0</asrwt>
<pdfrwt beam="1">  1        2 0.25134247E-01 0.33929475E+03</pdfrwt>
<pdfrwt beam="2">  1       -2 0.23368581E-01 0.33929475E+03</pdfrwt>
<totfact> 0.34362781E+03</totfact>
</mgrwt>
</event>
<event>
 4    1  0.6853809E-004  0.4150491E+03  0.7818608E-02  0.1038690E+00
         -2   -1    0    0    0  501 -0.00000000000E+00  0.00000000000E+00  0.25441913540E+02  0.25441913668E+02  0.25500000000E-02 0. -1.
          2   -1    0    0  501    0  0.00000000000E+00 -0.00000000000E+00 -0.16927355214E+04  0.16927355214E+04  0.25500000000E-02 0.  1.
    5000001    1    1    2    0    0 -0.19000495400E+03  0.13144216625E+02 -0.95524246691E+03  0.97708332478E+03  0.77000000000E+02 0.  0.
   -5000001    1    1    2    0    0  0.19000495400E+03 -0.13144216625E+02 -0.71205114092E+03  0.74109411026E+03  0.77000000000E+02 0.  0.
<mgrwt>
<rscale>  0 0.41504906E+03</rscale>
<asrwt>0</asrwt>
<pdfrwt beam="1">  1        2 0.24181929E+00 0.41504906E+03</pdfrwt>
<pdfrwt beam="2">  1       -2 0.36345602E-02 0.41504906E+03</pdfrwt>
<totfact> 0.39713472E+03</totfact>
</mgrwt>
</event>
<event>
 4    1  0.6853809E-004  0.2977951E+03  0.7818608E-02  0.1086348E+00
          2   -1    0    0  501    0  0.00000000000E+00  0.00000000000E+00  0.27739994181E+02  0.27739994299E+02  0.25500000000E-02 0.  1.
         -2   -1    0    0    0  501 -0.00000000000E+00 -0.00000000000E+00 -0.79922437731E+03  0.79922437732E+03  0.25500000000E-02 0. -1.
    5000001    1    1    2    0    0  0.58040559424E+02  0.10834131090E+03 -0.29218989449E+03  0.32620619343E+03  0.77000000000E+02 0.  0.
   -5000001    1    1    2    0    0 -0.58040559424E+02 -0.10834131090E+03 -0.47929448864E+03  0.50075817819E+03  0.77000000000E+02 0.  0.
<mgrwt>
<rscale>  0 0.29779509E+03</rscale>
<asrwt>0</asrwt>
<pdfrwt beam="1">  1        2 0.39628568E-02 0.29779509E+03</pdfrwt>
<pdfrwt beam="2">  1       -2 0.11417490E+00 0.29779509E+03</pdfrwt>
<totfact> 0.13481716E+03</totfact>
</mgrwt>
</event>
<event>
 4    1  0.6853809E-004  0.2356231E+03  0.7818608E-02  0.1122743E+00
          2   -1    0    0  501    0  0.00000000000E+00  0.00000000000E+00  0.10191601071E+03  0.10191601075E+03  0.25500000000E-02 0.  1.
         -2   -1    0    0    0  501 -0.00000000000E+00 -0.00000000000E+00 -0.13618628100E+03  0.13618628103E+03  0.25500000000E-02 0. -1.
    5000001    1    1    2    0    0 -0.41127331903E+02  0.78891411988E+02 -0.11135480214E+02  0.11818761033E+03  0.77000000000E+02 0.  0.
   -5000001    1    1    2    0    0  0.41127331903E+02 -0.78891411988E+02 -0.23134790076E+02  0.11991468145E+03  0.77000000000E+02 0.  0.
<mgrwt>
<rscale>  0 0.23562311E+03</rscale>
<asrwt>0</asrwt>
<pdfrwt beam="1">  1        2 0.14559430E-01 0.23562311E+03</pdfrwt>
<pdfrwt beam="2">  1       -2 0.19455183E-01 0.23562311E+03</pdfrwt>
<totfact> 0.87334283E+03</totfact>
</mgrwt>
</event>
<event>
 4    1  0.6853809E-004  0.3225804E+03  0.7818608E-02  0.1074468E+00
         -2   -1    0    0    0  501 -0.00000000000E+00  0.00000000000E+00  0.29491419827E+02  0.29491419938E+02  0.25500000000E-02 0. -1.
          2   -1    0    0  501    0  0.00000000000E+00 -0.00000000000E+00 -0.88210472164E+03  0.88210472165E+03  0.25500000000E-02 0.  1.
    5000001    1    1    2    0    0 -0.88403290198E+02 -0.95370308333E+02 -0.58553795476E+03  0.60472666048E+03  0.77000000000E+02 0.  0.
   -5000001    1    1    2    0    0  0.88403290198E+02  0.95370308333E+02 -0.26707534706E+03  0.30686948111E+03  0.77000000000E+02 0.  0.
<mgrwt>
<rscale>  0 0.32258035E+03</rscale>
<asrwt>0</asrwt>
<pdfrwt beam="1">  1        2 0.12601494E+00 0.32258035E+03</pdfrwt>
<pdfrwt beam="2">  1       -2 0.42130606E-02 0.32258035E+03</pdfrwt>
<totfact> 0.87715311E+03</totfact>
</mgrwt>
</event>
<event>
 4    1  0.6853809E-004  0.2453059E+03  0.7818608E-02  0.1116308E+00
         -2   -1    0    0    0  501 -0.00000000000E+00  0.00000000000E+00  0.28706053123E+02  0.28706053236E+02  0.25500000000E-02 0. -1.
          2   -1    0    0  501    0  0.00000000000E+00 -0.00000000000E+00 -0.52406188164E+03  0.52406188164E+03  0.25500000000E-02 0.  1.
    5000001    1    1    2    0    0  0.35222462001E+02  0.35652991143E+02 -0.64570824956E+02  0.11229491993E+03  0.77000000000E+02 0.  0.
   -5000001    1    1    2    0    0 -0.35222462001E+02 -0.35652991143E+02 -0.43078500356E+03  0.44047301495E+03  0.77000000000E+02 0.  0.
<mgrwt>
<rscale>  0 0.24530592E+03</rscale>
<asrwt>0</asrwt>
<pdfrwt beam="1">  1        2 0.74865977E-01 0.24530592E+03</pdfrwt>
<pdfrwt beam="2">  1       -2 0.41008651E-02 0.24530592E+03</pdfrwt>
<totfact> 0.16755844E+04</totfact>
</mgrwt>
</event>
<event>
 4    1  0.6853809E-004  0.2118262E+03  0.7818608E-02  0.1140128E+00
         -2   -1    0    0    0  501 -0.00000000000E+00  0.00000000000E+00  0.70374178160E+01  0.70374182780E+01  0.25500000000E-02 0. -1.
          2   -1    0    0  501    0  0.00000000000E+00 -0.00000000000E+00 -0.15939914368E+04  0.15939914368E+04  0.25500000000E-02 0.  1.
    5000001    1    1    2    0    0 -0.74865571938E+01 -0.66961838277E+02 -0.58667332700E+03  0.59552878095E+03  0.77000000000E+02 0.  0.
   -5000001    1    1    2    0    0  0.74865571938E+01  0.66961838277E+02 -0.10002806920E+04  0.10055000742E+04  0.77000000000E+02 0.  0.
<mgrwt>
<rscale>  0 0.21182619E+03</rscale>
<asrwt>0</asrwt>
<pdfrwt beam="1">  1        2 0.22771283E+00 0.21182619E+03</pdfrwt>
<pdfrwt beam="2">  1       -2 0.10053465E-02 0.21182619E+03</pdfrwt>
<totfact> 0.29175634E+04</totfact>
</mgrwt>
</event>
<event>
 4    1  0.6853809E-004  0.2629642E+03  0.7818608E-02  0.1105375E+00
         -2   -1    0    0    0  501 -0.00000000000E+00  0.00000000000E+00  0.94256695957E+01  0.94256699407E+01  0.25500000000E-02 0. -1.
          2   -1    0    0  501    0  0.00000000000E+00 -0.00000000000E+00 -0.18340915254E+04  0.18340915254E+04  0.25500000000E-02 0.  1.
    5000001    1    1    2    0    0 -0.40373091055E+02  0.77618952680E+02 -0.48567733670E+03  0.49946587840E+03  0.77000000000E+02 0.  0.
   -5000001    1    1    2    0    0  0.40373091055E+02 -0.77618952680E+02 -0.13389885191E+04  0.13440513170E+04  0.77000000000E+02 0.  0.
<mgrwt>
<rscale>  0 0.26296419E+03</rscale>
<asrwt>0</asrwt>
<pdfrwt beam="1">  1        2 0.26201285E+00 0.26296419E+03</pdfrwt>
<pdfrwt beam="2">  1       -2 0.13465254E-02 0.26296419E+03</pdfrwt>
<totfact> 0.14688851E+04</totfact>
</mgrwt>
</event>
<event>
 4    1  0.6853809E-004  0.4634780E+03  0.7818608E-02  0.1023777E+00
          2   -1    0    0  501    0  0.00000000000E+00  0.00000000000E+00  0.10742442990E+03  0.10742442993E+03  0.25500000000E-02 0.  1.
         -2   -1    0    0    0  501 -0.00000000000E+00 -0.00000000000E+00 -0.49991383493E+03  0.49991383494E+03  0.25500000000E-02 0. -1.
    5000001    1    1    2    0    0 -0.19574767068E+03 -0.97100577096E+02 -0.18927542288E+03  0.29916526930E+03  0.77000000000E+02 0.  0.
   -5000001    1    1    2    0    0  0.19574767068E+03  0.97100577096E+02 -0.20321398216E+03  0.30817299556E+03  0.77000000000E+02 0.  0.
<mgrwt>
<rscale>  0 0.46347798E+03</rscale>
<asrwt>0</asrwt>
<pdfrwt beam="1">  1        2 0.15346347E-01 0.46347798E+03</pdfrwt>
<pdfrwt beam="2">  1       -2 0.71416261E-01 0.46347798E+03</pdfrwt>
<totfact> 0.69778758E+02</totfact>
</mgrwt>
</event>
<event>
 4    1  0.6853809E-004  0.3304763E+03  0.7818608E-02  0.1070926E+00
          2   -1    0    0  501    0  0.00000000000E+00  0.00000000000E+00  0.10022022901E+04  0.10022022901E+04  0.25500000000E-02 0.  1.
         -2   -1    0    0    0  501 -0.00000000000E+00 -0.00000000000E+00 -0.27243641014E+02  0.27243641134E+02  0.25500000000E-02 0. -1.
    5000001    1    1    2    0    0 -0.67365151149E+02  0.12884722884E+03  0.43973000534E+03  0.46950095800E+03  0.77000000000E+02 0.  0.
   -5000001    1    1    2    0    0  0.67365151149E+02 -0.12884722884E+03  0.53522864380E+03  0.55994497329E+03  0.77000000000E+02 0.  0.
<mgrwt>
<rscale>  0 0.33047626E+03</rscale>
<asrwt>0</asrwt>
<pdfrwt beam="1">  1        2 0.14317181E+00 0.33047626E+03</pdfrwt>
<pdfrwt beam="2">  1       -2 0.38919474E-02 0.33047626E+03</pdfrwt>
<totfact> 0.83489485E+03</totfact>
</mgrwt>
</event>
<event>
 4    1  0.6853809E-004  0.2466212E+03  0.7818608E-02  0.1115459E+00
          2   -1    0    0  501    0  0.00000000000E+00  0.00000000000E+00  0.73264625147E+02  0.73264625191E+02  0.25500000000E-02 0.  1.
         -2   -1    0    0    0  501 -0.00000000000E+00 -0.00000000000E+00 -0.20754221140E+03  0.20754221141E+03  0.25500000000E-02 0. -1.
    5000001    1    1    2    0    0 -0.92679864719E+02  0.26208542984E+02 -0.66866288635E+02  0.14027311077E+03  0.77000000000E+02 0.  0.
   -5000001    1    1    2    0    0  0.92679864719E+02 -0.26208542984E+02 -0.67411297613E+02  0.14053372583E+03  0.77000000000E+02 0.  0.
<mgrwt>
<rscale>  0 0.24662119E+03</rscale>
<asrwt>0</asrwt>
<pdfrwt beam="1">  1        2 0.10466375E-01 0.24662119E+03</pdfrwt>
<pdfrwt beam="2">  1       -2 0.29648887E-01 0.24662119E+03</pdfrwt>
<totfact> 0.62383919E+03</totfact>
</mgrwt>
</event>
<event>
 4    1  0.6853809E-004  0.2638346E+03  0.7818608E-02  0.1104861E+00
          2   -1    0    0  501    0  0.00000000000E+00  0.00000000000E+00  0.72884010466E+02  0.72884010511E+02  0.25500000000E-02 0.  1.
         -2   -1    0    0    0  501 -0.00000000000E+00 -0.00000000000E+00 -0.23876536076E+03  0.23876536077E+03  0.25500000000E-02 0. -1.
    5000001    1    1    2    0    0 -0.52818945516E+02 -0.47694560492E+02  0.11620936001E+02  0.10549245594E+03  0.77000000000E+02 0.  0.
   -5000001    1    1    2    0    0  0.52818945516E+02  0.47694560492E+02 -0.17750228629E+03  0.20615691535E+03  0.77000000000E+02 0.  0.
<mgrwt>
<rscale>  0 0.26383462E+03</rscale>
<asrwt>0</asrwt>
<pdfrwt beam="1">  1        2 0.10412002E-01 0.26383462E+03</pdfrwt>
<pdfrwt beam="2">  1       -2 0.34109337E-01 0.26383462E+03</pdfrwt>
<totfact> 0.48709550E+03</totfact>
</mgrwt>
</event>
<event>
 4    1  0.6853809E-004  0.4194605E+03  0.7818608E-02  0.1037242E+00
         -2   -1    0    0    0  501 -0.00000000000E+00  0.00000000000E+00  0.49274105550E+02  0.49274105615E+02  0.25500000000E-02 0. -1.
          2   -1    0    0  501    0  0.00000000000E+00 -0.00000000000E+00 -0.89269539844E+03  0.89269539844E+03  0.25500000000E-02 0.  1.
    5000001    1    1    2    0    0 -0.18903071566E+03 -0.56235959572E+01 -0.52925760519E+03  0.56728022084E+03  0.77000000000E+02 0.  0.
   -5000001    1    1    2    0    0  0.18903071566E+03  0.56235959572E+01 -0.31416368770E+03  0.37468928322E+03  0.77000000000E+02 0.  0.
<mgrwt>
<rscale>  0 0.41946045E+03</rscale>
<asrwt>0</asrwt>
<pdfrwt beam="1">  1        2 0.12752790E+00 0.41946045E+03</pdfrwt>
<pdfrwt beam="2">  1       -2 0.70391585E-02 0.41946045E+03</pdfrwt>
<totfact> 0.39392158E+03</totfact>
</mgrwt>
</event>
<event>
 4    1  0.6853809E-004  0.2118828E+03  0.7818608E-02  0.1140084E+00
         -2   -1    0    0    0  501 -0.00000000000E+00  0.00000000000E+00  0.25581417904E+02  0.25581418031E+02  0.25500000000E-02 0. -1.
          2   -1    0    0  501    0  0.00000000000E+00 -0.00000000000E+00 -0.43873959236E+03  0.43873959237E+03  0.25500000000E-02 0.  1.
    5000001    1    1    2    0    0  0.25109283889E+02 -0.31672018285E+02 -0.33917244635E+03  0.35014360089E+03  0.77000000000E+02 0.  0.
   -5000001    1    1    2    0    0 -0.25109283889E+02  0.31672018285E+02 -0.73985728110E+02  0.11417740952E+03  0.77000000000E+02 0.  0.
<mgrwt>
<rscale>  0 0.21188281E+03</rscale>
<asrwt>0</asrwt>
<pdfrwt beam="1">  1        2 0.62677080E-01 0.21188281E+03</pdfrwt>
<pdfrwt beam="2">  1       -2 0.36544885E-02 0.21188281E+03</pdfrwt>
<totfact> 0.23966328E+04</totfact>
</mgrwt>
</event>
<event>
 4    1  0.6853809E-004  0.2800218E+03  0.7818608E-02  0.1095677E+00
         -2   -1    0    0    0  501 -0.00000000000E+00  0.00000000000E+00  0.64093639678E+03  0.64093639679E+03  0.25500000000E-02 0. -1.
          2   -1    0    0  501    0  0.00000000000E+00 -0.00000000000E+00 -0.30585028828E+02  0.30585028934E+02  0.25500000000E-02 0.  1.
    5000001    1    1    2    0    0  0.80502855564E+02 -0.77885435854E+02  0.22466196877E+03  0.26258113238E+03  0.77000000000E+02 0.  0.
   -5000001    1    1    2    0    0 -0.80502855564E+02  0.77885435854E+02  0.38568939918E+03  0.40894029334E+03  0.77000000000E+02 0.  0.
<mgrwt>
<rscale>  0 0.28002184E+03</rscale>
<asrwt>0</asrwt>
<pdfrwt beam="1">  1        2 0.43692899E-02 0.28002184E+03</pdfrwt>
<pdfrwt beam="2">  1       -2 0.91562342E-01 0.28002184E+03</pdfrwt>
<totfact> 0.19780937E+03</totfact>
</mgrwt>
</event>
<event>
 4    1  0.6853809E-004  0.4390957E+03  0.7818608E-02  0.1031025E+00
          2   -1    0    0  501    0  0.00000000000E+00  0.00000000000E+00  0.59863600949E+02  0.59863601004E+02  0.25500000000E-02 0.  1.
         -2   -1    0    0    0  501 -0.00000000000E+00 -0.00000000000E+00 -0.80518460270E+03  0.80518460270E+03  0.25500000000E-02 0. -1.
    5000001    1    1    2    0    0 -0.71991683344E+02  0.19161466037E+03 -0.33459844337E+03  0.39973003245E+03  0.77000000000E+02 0.  0.
   -5000001    1    1    2    0    0  0.71991683344E+02 -0.19161466037E+03 -0.41072255838E+03  0.46531817125E+03  0.77000000000E+02 0.  0.
<mgrwt>
<rscale>  0 0.43909566E+03</rscale>
<asrwt>0</asrwt>
<pdfrwt beam="1">  1        2 0.85519434E-02 0.43909566E+03</pdfrwt>
<pdfrwt beam="2">  1       -2 0.11502637E+00 0.43909566E+03</pdfrwt>
<totfact> 0.48329320E+02</totfact>
</mgrwt>
</event>
<event>
 4    1  0.6853809E-004  0.2599997E+03  0.7818608E-02  0.1107143E+00
          2   -1    0    0  501    0  0.00000000000E+00  0.00000000000E+00  0.41434773714E+03  0.41434773715E+03  0.25500000000E-02 0.  1.
         -2   -1    0    0    0  501 -0.00000000000E+00 -0.00000000000E+00 -0.40786905350E+02  0.40786905430E+02  0.25500000000E-02 0. -1.
    5000001    1    1    2    0    0 -0.68399564622E+02 -0.62517700699E+02  0.27225166155E+03  0.29771955017E+03  0.77000000000E+02 0.  0.
   -5000001    1    1    2    0    0  0.68399564622E+02  0.62517700699E+02  0.10130917025E+03  0.15741509241E+03  0.77000000000E+02 0.  0.
<mgrwt>
<rscale>  0 0.25999971E+03</rscale>
<asrwt>0</asrwt>
<pdfrwt beam="1">  1        2 0.59192535E-01 0.25999971E+03</pdfrwt>
<pdfrwt beam="2">  1       -2 0.58267006E-02 0.25999971E+03</pdfrwt>
<totfact> 0.12761081E+04</totfact>
</mgrwt>
</event>
<event>
 4    1  0.6853809E-004  0.1887679E+03  0.7818608E-02  0.1159577E+00
         -2   -1    0    0    0  501 -0.00000000000E+00  0.00000000000E+00  0.34376936346E+02  0.34376936441E+02  0.25500000000E-02 0. -1.
          2   -1    0    0  501    0  0.00000000000E+00 -0.00000000000E+00 -0.25913673095E+03  0.25913673097E+03  0.25500000000E-02 0.  1.
    5000001    1    1    2    0    0  0.47911567533E+02 -0.24320443966E+02 -0.12732018740E+03  0.15819744757E+03  0.77000000000E+02 0.  0.
   -5000001    1    1    2    0    0 -0.47911567533E+02  0.24320443966E+02 -0.97439607208E+02  0.13531621984E+03  0.77000000000E+02 0.  0.
<mgrwt>
<rscale>  0 0.18876787E+03</rscale>
<asrwt>0</asrwt>
<pdfrwt beam="1">  1        2 0.37019532E-01 0.18876787E+03</pdfrwt>
<pdfrwt beam="2">  1       -2 0.49109911E-02 0.18876787E+03</pdfrwt>
<totfact> 0.26811768E+04</totfact>
</mgrwt>
</event>
<event>
 4    1  0.6853809E-004  0.6414337E+03  0.7818608E-02  0.9822987E-01
         -2   -1    0    0    0  501 -0.00000000000E+00  0.00000000000E+00  0.36748001387E+03  0.36748001388E+03  0.25500000000E-02 0. -1.
          2   -1    0    0  501    0  0.00000000000E+00 -0.00000000000E+00 -0.27990446406E+03  0.27990446407E+03  0.25500000000E-02 0.  1.
    5000001    1    1    2    0    0 -0.13596211456E+03 -0.18675125396E+03 -0.16687953981E+03  0.29519401799E+03  0.77000000000E+02 0.  0.
   -5000001    1    1    2    0    0  0.13596211456E+03  0.18675125396E+03  0.25445508963E+03  0.35219045996E+03  0.77000000000E+02 0.  0.
<mgrwt>
<rscale>  0 0.64143370E+03</rscale>
<asrwt>0</asrwt>
<pdfrwt beam="1">  1        2 0.39986352E-01 0.64143370E+03</pdfrwt>
<pdfrwt beam="2">  1       -2 0.52497144E-01 0.64143370E+03</pdfrwt>
<totfact> 0.44486371E+02</totfact>
</mgrwt>
</event>
<event>
 4    1  0.6853809E-004  0.2733298E+03  0.7818608E-02  0.1099389E+00
          2   -1    0    0  501    0  0.00000000000E+00  0.00000000000E+00  0.60245451741E+03  0.60245451742E+03  0.25500000000E-02 0.  1.
         -2   -1    0    0    0  501 -0.00000000000E+00 -0.00000000000E+00 -0.31002002521E+02  0.31002002625E+02  0.25500000000E-02 0. -1.
    5000001    1    1    2    0    0 -0.66910739379E+02  0.47711554433E+02  0.10628627278E+03  0.15485222392E+03  0.77000000000E+02 0.  0.
   -5000001    1    1    2    0    0  0.66910739379E+02 -0.47711554433E+02  0.46516624211E+03  0.47860429612E+03  0.77000000000E+02 0.  0.
<mgrwt>
<rscale>  0 0.27332981E+03</rscale>
<asrwt>0</asrwt>
<pdfrwt beam="1">  1        2 0.86064924E-01 0.27332981E+03</pdfrwt>
<pdfrwt beam="2">  1       -2 0.44288579E-02 0.27332981E+03</pdfrwt>
<totfact> 0.12822121E+04</totfact>
</mgrwt>
</event>
<event>
 4    1  0.6853809E-004  0.1070128E+04  0.7818608E-02  0.9234807E-01
         -2   -1    0    0    0  501 -0.00000000000E+00  0.00000000000E+00  0.39474593206E+03  0.39474593207E+03  0.25500000000E-02 0. -1.
          2   -1    0    0  501    0  0.00000000000E+00 -0.00000000000E+00 -0.72525987108E+03  0.72525987109E+03  0.25500000000E-02 0.  1.
    5000001    1    1    2    0    0  0.49212606591E+03  0.98630147072E+02 -0.34178498732E+03  0.61209635534E+03  0.77000000000E+02 0.  0.
   -5000001    1    1    2    0    0 -0.49212606591E+03 -0.98630147072E+02  0.11271048304E+02  0.50790944782E+03  0.77000000000E+02 0.  0.
<mgrwt>
<rscale>  0 0.10701278E+04</rscale>
<asrwt>0</asrwt>
<pdfrwt beam="1">  1        2 0.10360855E+00 0.10701278E+04</pdfrwt>
<pdfrwt beam="2">  1       -2 0.56392276E-01 0.10701278E+04</pdfrwt>
<totfact> 0.12643938E+02</totfact>
</mgrwt>
</event>
<event>
 4    1  0.6853809E-004  0.2503021E+03  0.7818608E-02  0.1113114E+00
         -2   -1    0    0    0  501 -0.00000000000E+00  0.00000000000E+00  0.34473450758E+02  0.34473450853E+02  0.25500000000E-02 0. -1.
          2   -1    0    0  501    0  0.00000000000E+00 -0.00000000000E+00 -0.45434349272E+03  0.45434349272E+03  0.25500000000E-02 0.  1.
    5000001    1    1    2    0    0  0.73310820182E+01 -0.83906280266E+02 -0.10959699811E+03  0.15822297756E+03  0.77000000000E+02 0.  0.
   -5000001    1    1    2    0    0 -0.73310820182E+01  0.83906280266E+02 -0.31027304385E+03  0.33059396602E+03  0.77000000000E+02 0.  0.
<mgrwt>
<rscale>  0 0.25030212E+03</rscale>
<asrwt>0</asrwt>
<pdfrwt beam="1">  1        2 0.64906210E-01 0.25030212E+03</pdfrwt>
<pdfrwt beam="2">  1       -2 0.49247790E-02 0.25030212E+03</pdfrwt>
<totfact> 0.14887269E+04</totfact>
</mgrwt>
</event>
<event>
 4    1  0.6853809E-004  0.2305188E+03  0.7818608E-02  0.1126275E+00
          2   -1    0    0  501    0  0.00000000000E+00  0.00000000000E+00  0.25897695334E+03  0.25897695335E+03  0.25500000000E-02 0.  1.
         -2   -1    0    0    0  501 -0.00000000000E+00 -0.00000000000E+00 -0.51296938040E+02  0.51296938103E+02  0.25500000000E-02 0. -1.
    5000001    1    1    2    0    0  0.60393217674E+02  0.51924004405E+02  0.14666424762E+03  0.18380110039E+03  0.77000000000E+02 0.  0.
   -5000001    1    1    2    0    0 -0.60393217674E+02 -0.51924004405E+02  0.61015767682E+02  0.12647279107E+03  0.77000000000E+02 0.  0.
<mgrwt>
<rscale>  0 0.23051876E+03</rscale>
<asrwt>0</asrwt>
<pdfrwt beam="1">  1        2 0.36996707E-01 0.23051876E+03</pdfrwt>
<pdfrwt beam="2">  1       -2 0.73281341E-02 0.23051876E+03</pdfrwt>
<totfact> 0.14768188E+04</totfact>
</mgrwt>
</event>
<event>
 4    1  0.6853809E-004  0.2434671E+03  0.7818608E-02  0.1117504E+00
         -2   -1    0    0    0  501 -0.00000000000E+00  0.00000000000E+00  0.16265313045E+02  0.16265313245E+02  0.25500000000E-02 0. -1.
          2   -1    0    0  501    0  0.00000000000E+00 -0.00000000000E+00 -0.91108325898E+03  0.91108325898E+03  0.25500000000E-02 0.  1.
    5000001    1    1    2    0    0 -0.24527002884E+02  0.90900766957E+02 -0.42816306331E+03  0.44510350717E+03  0.77000000000E+02 0.  0.
   -5000001    1    1    2    0    0  0.24527002884E+02 -0.90900766957E+02 -0.46665488262E+03  0.48224506506E+03  0.77000000000E+02 0.  0.
<mgrwt>
<rscale>  0 0.24346708E+03</rscale>
<asrwt>0</asrwt>
<pdfrwt beam="1">  1        2 0.13015472E+00 0.24346708E+03</pdfrwt>
<pdfrwt beam="2">  1       -2 0.23236167E-02 0.24346708E+03</pdfrwt>
<totfact> 0.20219257E+04</totfact>
</mgrwt>
</event>
<event>
 4    1  0.6853809E-004  0.3295436E+03  0.7818608E-02  0.1071339E+00
          2   -1    0    0  501    0  0.00000000000E+00  0.00000000000E+00  0.14003840313E+03  0.14003840315E+03  0.25500000000E-02 0.  1.
         -2   -1    0    0    0  501 -0.00000000000E+00 -0.00000000000E+00 -0.19387354991E+03  0.19387354993E+03  0.25500000000E-02 0. -1.
    5000001    1    1    2    0    0 -0.97176668614E+02 -0.83357506473E+02  0.43494328800E+02  0.15560377709E+03  0.77000000000E+02 0.  0.
   -5000001    1    1    2    0    0  0.97176668614E+02  0.83357506473E+02 -0.97329475583E+02  0.17830817599E+03  0.77000000000E+02 0.  0.
<mgrwt>
<rscale>  0 0.32954358E+03</rscale>
<asrwt>0</asrwt>
<pdfrwt beam="1">  1        2 0.20005486E-01 0.32954358E+03</pdfrwt>
<pdfrwt beam="2">  1       -2 0.27696221E-01 0.32954358E+03</pdfrwt>
<totfact> 0.32911874E+03</totfact>
</mgrwt>
</event>
<event>
 4    1  0.6853809E-004  0.2983579E+03  0.7818608E-02  0.1086064E+00
         -2   -1    0    0    0  501 -0.00000000000E+00  0.00000000000E+00  0.23342807817E+02  0.23342807956E+02  0.25500000000E-02 0.  1.
          2   -1    0    0  501    0  0.00000000000E+00 -0.00000000000E+00 -0.95337122026E+03  0.95337122027E+03  0.25500000000E-02 0. -1.
    5000001    1    1    2    0    0  0.84099207896E+02 -0.21463753140E+02 -0.77196834929E+03  0.78063916233E+03  0.77000000000E+02 0.  0.
   -5000001    1    1    2    0    0 -0.84099207896E+02  0.21463753140E+02 -0.15806006316E+03  0.19607486589E+03  0.77000000000E+02 0.  0.
<mgrwt>
<rscale>  0 0.29835791E+03</rscale>
<asrwt>0</asrwt>
<pdfrwt beam="1">  1        2 0.13619586E+00 0.29835791E+03</pdfrwt>
<pdfrwt beam="2">  1       -2 0.33346874E-02 0.29835791E+03</pdfrwt>
<totfact> 0.11235821E+04</totfact>
</mgrwt>
</event>
<event>
 4    1  0.6853809E-004  0.3665752E+03  0.7818608E-02  0.1056010E+00
         -2   -1    0    0    0  501 -0.00000000000E+00  0.00000000000E+00  0.12872497228E+04  0.12872497228E+04  0.25500000000E-02 0. -1.
          2   -1    0    0  501    0  0.00000000000E+00 -0.00000000000E+00 -0.26097773798E+02  0.26097773922E+02  0.25500000000E-02 0.  1.
    5000001    1    1    2    0    0  0.89102722307E+02  0.13608204267E+03  0.75508541856E+03  0.77623489150E+03  0.77000000000E+02 0.  0.
   -5000001    1    1    2    0    0 -0.89102722307E+02 -0.13608204267E+03  0.50606653046E+03  0.53711260524E+03  0.77000000000E+02 0.  0.
<mgrwt>
<rscale>  0 0.36657524E+03</rscale>
<asrwt>0</asrwt>
<pdfrwt beam="1">  1        2 0.37282531E-02 0.36657524E+03</pdfrwt>
<pdfrwt beam="2">  1       -2 0.18389283E+00 0.36657524E+03</pdfrwt>
<totfact> 0.42883709E+02</totfact>
</mgrwt>
</event>
<event>
 4    1  0.6853809E-004  0.2504083E+03  0.7818608E-02  0.1113047E+00
         -2   -1    0    0    0  501 -0.00000000000E+00  0.00000000000E+00  0.40621034720E+01  0.40621042724E+01  0.25500000000E-02 0. -1.
          2   -1    0    0  501    0  0.00000000000E+00 -0.00000000000E+00 -0.38591046141E+04  0.38591046141E+04  0.25500000000E-02 0.  1.
    5000001    1    1    2    0    0  0.33600942858E+01 -0.94217467454E+02 -0.23796441092E+04  0.23827554025E+04  0.77000000000E+02 0.  0.
   -5000001    1    1    2    0    0 -0.33600942858E+01  0.94217467454E+02 -0.14753984014E+04  0.14804113159E+04  0.77000000000E+02 0.  0.
<mgrwt>
<rscale>  0 0.25040834E+03</rscale>
<asrwt>0</asrwt>
<pdfrwt beam="1">  1        2 0.55129831E+00 0.25040834E+03</pdfrwt>
<pdfrwt beam="2">  1       -2 0.58030303E-03 0.25040834E+03</pdfrwt>
<totfact> 0.41911699E+03</totfact>
</mgrwt>
</event>
<event>
 4    1  0.6853809E-004  0.3513262E+03  0.7818608E-02  0.1062072E+00
          2   -1    0    0  501    0  0.00000000000E+00  0.00000000000E+00  0.28256791928E+03  0.28256791929E+03  0.25500000000E-02 0.  1.
         -2   -1    0    0    0  501 -0.00000000000E+00 -0.00000000000E+00 -0.10920394390E+03  0.10920394393E+03  0.25500000000E-02 0. -1.
    5000001    1    1    2    0    0  0.15286159151E+03 -0.32481029313E+02  0.11178705766E+03  0.20699524073E+03  0.77000000000E+02 0.  0.
   -5000001    1    1    2    0    0 -0.15286159151E+03  0.32481029313E+02  0.61576917713E+02  0.18477662249E+03  0.77000000000E+02 0.  0.
<mgrwt>
<rscale>  0 0.35132624E+03</rscale>
<asrwt>0</asrwt>
<pdfrwt beam="1">  1        2 0.40366845E-01 0.35132624E+03</pdfrwt>
<pdfrwt beam="2">  1       -2 0.15600564E-01 0.35132624E+03</pdfrwt>
<totfact> 0.40715861E+03</totfact>
</mgrwt>
</event>
<event>
 4    1  0.6853809E-004  0.2362516E+03  0.7818608E-02  0.1122315E+00
          2   -1    0    0  501    0  0.00000000000E+00  0.00000000000E+00  0.10189124334E+03  0.10189124337E+03  0.25500000000E-02 0.  1.
         -2   -1    0    0    0  501 -0.00000000000E+00 -0.00000000000E+00 -0.13694702221E+03  0.13694702223E+03  0.25500000000E-02 0. -1.
    5000001    1    1    2    0    0  0.17826135183E+02 -0.87388046173E+02 -0.90539510649E+01  0.11817536012E+03  0.77000000000E+02 0.  0.
   -5000001    1    1    2    0    0 -0.17826135183E+02  0.87388046173E+02 -0.26001827804E+02  0.12066290548E+03  0.77000000000E+02 0.  0.
<mgrwt>
<rscale>  0 0.23625158E+03</rscale>
<asrwt>0</asrwt>
<pdfrwt beam="1">  1        2 0.14555892E-01 0.23625158E+03</pdfrwt>
<pdfrwt beam="2">  1       -2 0.19563860E-01 0.23625158E+03</pdfrwt>
<totfact> 0.86547466E+03</totfact>
</mgrwt>
</event>
<event>
 4    1  0.6853809E-004  0.5348491E+03  0.7818608E-02  0.1005063E+00
         -2   -1    0    0    0  501 -0.00000000000E+00  0.00000000000E+00  0.19022370550E+02  0.19022370721E+02  0.25500000000E-02 0. -1.
          2   -1    0    0  501    0  0.00000000000E+00 -0.00000000000E+00 -0.37595677461E+04  0.37595677461E+04  0.25500000000E-02 0.  1.
    5000001    1    1    2    0    0 -0.18215099136E+03  0.47388498737E+02 -0.64331301129E+03  0.67468902759E+03  0.77000000000E+02 0.  0.
   -5000001    1    1    2    0    0  0.18215099136E+03 -0.47388498737E+02 -0.30972323643E+04  0.31039010893E+04  0.77000000000E+02 0.  0.
<mgrwt>
<rscale>  0 0.53484910E+03</rscale>
<asrwt>0</asrwt>
<pdfrwt beam="1">  1        2 0.53708063E+00 0.53484910E+03</pdfrwt>
<pdfrwt beam="2">  1       -2 0.27174839E-02 0.53484910E+03</pdfrwt>
<totfact> 0.48001534E+02</totfact>
</mgrwt>
</event>
<event>
 4    1  0.6853809E-004  0.2254440E+03  0.7818608E-02  0.1129888E+00
         -2   -1    0    0    0  501 -0.00000000000E+00  0.00000000000E+00  0.24980892929E+02  0.24980893060E+02  0.25500000000E-02 0. -1.
          2   -1    0    0  501    0  0.00000000000E+00 -0.00000000000E+00 -0.50863857392E+03  0.50863857392E+03  0.25500000000E-02 0.  1.
    5000001    1    1    2    0    0 -0.49638826866E+02 -0.49048229784E+02 -0.34520627506E+03  0.36050813350E+03  0.77000000000E+02 0.  0.
   -5000001    1    1    2    0    0  0.49638826866E+02  0.49048229784E+02 -0.13845140593E+03  0.17311133348E+03  0.77000000000E+02 0.  0.
<mgrwt>
<rscale>  0 0.22544397E+03</rscale>
<asrwt>0</asrwt>
<pdfrwt beam="1">  1        2 0.72662647E-01 0.22544397E+03</pdfrwt>
<pdfrwt beam="2">  1       -2 0.35686993E-02 0.22544397E+03</pdfrwt>
<totfact> 0.21219254E+04</totfact>
</mgrwt>
</event>
<event>
 4    1  0.6853809E-004  0.2937873E+03  0.7818608E-02  0.1088388E+00
          2   -1    0    0  501    0  0.00000000000E+00  0.00000000000E+00  0.11925223890E+04  0.11925223890E+04  0.25500000000E-02 0.  1.
         -2   -1    0    0    0  501 -0.00000000000E+00 -0.00000000000E+00 -0.18094208133E+02  0.18094208313E+02  0.25500000000E-02 0. -1.
    5000001    1    1    2    0    0 -0.99016359209E+02 -0.76436736230E+02  0.59294528314E+03  0.61086817141E+03  0.77000000000E+02 0.  0.
   -5000001    1    1    2    0    0  0.99016359209E+02  0.76436736230E+02  0.58148289776E+03  0.59974842595E+03  0.77000000000E+02 0.  0.
<mgrwt>
<rscale>  0 0.29378733E+03</rscale>
<asrwt>0</asrwt>
<pdfrwt beam="1">  1        2 0.17036038E+00 0.29378733E+03</pdfrwt>
<pdfrwt beam="2">  1       -2 0.25848863E-02 0.29378733E+03</pdfrwt>
<totfact> 0.11971447E+04</totfact>
</mgrwt>
</event>
<event>
 4    1  0.6853809E-004  0.2813846E+03  0.7818608E-02  0.1094935E+00
          2   -1    0    0  501    0  0.00000000000E+00  0.00000000000E+00  0.25193292165E+04  0.25193292165E+04  0.25500000000E-02 0.  1.
         -2   -1    0    0    0  501 -0.00000000000E+00 -0.00000000000E+00 -0.78569827648E+01  0.78569831786E+01  0.25500000000E-02 0. -1.
    5000001    1    1    2    0    0  0.33988426242E+02  0.10807437082E+03  0.96748913481E+03  0.97713842864E+03  0.77000000000E+02 0.  0.
   -5000001    1    1    2    0    0 -0.33988426242E+02 -0.10807437082E+03  0.15439830990E+04  0.15500477711E+04  0.77000000000E+02 0.  0.
<mgrwt>
<rscale>  0 0.28138462E+03</rscale>
<asrwt>0</asrwt>
<pdfrwt beam="1">  1        2 0.35990382E+00 0.28138462E+03</pdfrwt>
<pdfrwt beam="2">  1       -2 0.11224272E-02 0.28138462E+03</pdfrwt>
<totfact> 0.88388346E+03</totfact>
</mgrwt>
</event>
<event>
 4    1  0.6853809E-004  0.2119810E+03  0.7818608E-02  0.1140007E+00
          2   -1    0    0  501    0  0.00000000000E+00  0.00000000000E+00  0.15731127127E+04  0.15731127127E+04  0.25500000000E-02 0.  1.
         -2   -1    0    0    0  501 -0.00000000000E+00 -0.00000000000E+00 -0.71412447151E+01  0.71412451704E+01  0.25500000000E-02 0. -1.
    5000001    1    1    2    0    0  0.61638350866E+02  0.32265177640E+02  0.94367816347E+03  0.94936705451E+03  0.77000000000E+02 0.  0.
   -5000001    1    1    2    0    0 -0.61638350866E+02 -0.32265177640E+02  0.62229330450E+03  0.63088690335E+03  0.77000000000E+02 0.  0.
<mgrwt>
<rscale>  0 0.21198097E+03</rscale>
<asrwt>0</asrwt>
<pdfrwt beam="1">  1        2 0.22473044E+00 0.21198097E+03</pdfrwt>
<pdfrwt beam="2">  1       -2 0.10201776E-02 0.21198097E+03</pdfrwt>
<totfact> 0.29253229E+04</totfact>
</mgrwt>
</event>
<event>
 4    1  0.6853809E-004  0.2594087E+03  0.7818608E-02  0.1107499E+00
          2   -1    0    0  501    0  0.00000000000E+00  0.00000000000E+00  0.31753735264E+04  0.31753735264E+04  0.25500000000E-02 0.  1.
         -2   -1    0    0    0  501 -0.00000000000E+00 -0.00000000000E+00 -0.52980289422E+01  0.52980295559E+01  0.25500000000E-02 0. -1.
    5000001    1    1    2    0    0  0.39366866554E+02 -0.92062812028E+02  0.12236098174E+04  0.12301119042E+04  0.77000000000E+02 0.  0.
   -5000001    1    1    2    0    0 -0.39366866554E+02  0.92062812028E+02  0.19464656800E+04  0.19505596517E+04  0.77000000000E+02 0.  0.
<mgrwt>
<rscale>  0 0.25940873E+03</rscale>
<asrwt>0</asrwt>
<pdfrwt beam="1">  1        2 0.45362508E+00 0.25940873E+03</pdfrwt>
<pdfrwt beam="2">  1       -2 0.75686083E-03 0.25940873E+03</pdfrwt>
<totfact> 0.71398990E+03</totfact>
</mgrwt>
</event>
<event>
 4    1  0.6853809E-004  0.3385482E+03  0.7818608E-02  0.1067416E+00
          2   -1    0    0  501    0  0.00000000000E+00  0.00000000000E+00  0.42722855372E+03  0.42722855373E+03  0.25500000000E-02 0.  1.
         -2   -1    0    0    0  501 -0.00000000000E+00 -0.00000000000E+00 -0.67068841512E+02  0.67068841560E+02  0.25500000000E-02 0. -1.
    5000001    1    1    2    0    0  0.13510853126E+03 -0.47297910243E+02  0.24907887878E+03  0.29742342777E+03  0.77000000000E+02 0.  0.
   -5000001    1    1    2    0    0 -0.13510853126E+03  0.47297910243E+02  0.11108083343E+03  0.19687396752E+03  0.77000000000E+02 0.  0.
<mgrwt>
<rscale>  0 0.33854822E+03</rscale>
<asrwt>0</asrwt>
<pdfrwt beam="1">  1        2 0.61032653E-01 0.33854822E+03</pdfrwt>
<pdfrwt beam="2">  1       -2 0.95812627E-02 0.33854822E+03</pdfrwt>
<totfact> 0.57406718E+03</totfact>
</mgrwt>
</event>
<event>
 4    1  0.6853809E-004  0.2730427E+03  0.7818608E-02  0.1099551E+00
         -2   -1    0    0    0  501 -0.00000000000E+00  0.00000000000E+00  0.12131462964E+02  0.12131463232E+02  0.25500000000E-02 0. -1.
          2   -1    0    0  501    0  0.00000000000E+00 -0.00000000000E+00 -0.15363418121E+04  0.15363418121E+04  0.25500000000E-02 0.  1.
    5000001    1    1    2    0    0  0.81919825978E+02  0.49956499334E+02 -0.42647093362E+03  0.44386142763E+03  0.77000000000E+02 0.  0.
   -5000001    1    1    2    0    0 -0.81919825978E+02 -0.49956499334E+02 -0.10977394155E+04  0.11046118477E+04  0.77000000000E+02 0.  0.
<mgrwt>
<rscale>  0 0.27304266E+03</rscale>
<asrwt>0</asrwt>
<pdfrwt beam="1">  1        2 0.21947728E+00 0.27304266E+03</pdfrwt>
<pdfrwt beam="2">  1       -2 0.17330671E-02 0.27304266E+03</pdfrwt>
<totfact> 0.14264871E+04</totfact>
</mgrwt>
</event>
<event>
 4    1  0.6853809E-004  0.2685042E+03  0.7818608E-02  0.1102139E+00
          2   -1    0    0  501    0  0.00000000000E+00  0.00000000000E+00  0.35832152485E+03  0.35832152486E+03  0.25500000000E-02 0.  1.
         -2   -1    0    0    0  501 -0.00000000000E+00 -0.00000000000E+00 -0.50300140661E+02  0.50300140726E+02  0.25500000000E-02 0. -1.
    5000001    1    1    2    0    0 -0.10786197041E+03 -0.20998317572E+02  0.14729228360E+03  0.19924645746E+03  0.77000000000E+02 0.  0.
   -5000001    1    1    2    0    0  0.10786197041E+03  0.20998317572E+02  0.16072910058E+03  0.20937520812E+03  0.77000000000E+02 0.  0.
<mgrwt>
<rscale>  0 0.26850418E+03</rscale>
<asrwt>0</asrwt>
<pdfrwt beam="1">  1        2 0.51188789E-01 0.26850418E+03</pdfrwt>
<pdfrwt beam="2">  1       -2 0.71857344E-02 0.26850418E+03</pdfrwt>
<totfact> 0.10824957E+04</totfact>
</mgrwt>
</event>
<event>
 4    1  0.6853809E-004  0.2299473E+03  0.7818608E-02  0.1126677E+00
         -2   -1    0    0    0  501 -0.00000000000E+00  0.00000000000E+00  0.10427824272E+02  0.10427824584E+02  0.25500000000E-02 0. -1.
          2   -1    0    0  501    0  0.00000000000E+00 -0.00000000000E+00 -0.12676602179E+04  0.12676602179E+04  0.25500000000E-02 0.  1.
    5000001    1    1    2    0    0 -0.65440627414E+02  0.30491064568E+02 -0.88197145063E+03  0.88826506205E+03  0.77000000000E+02 0.  0.
   -5000001    1    1    2    0    0  0.65440627414E+02 -0.30491064568E+02 -0.37526094298E+03  0.38982298042E+03  0.77000000000E+02 0.  0.
<mgrwt>
<rscale>  0 0.22994728E+03</rscale>
<asrwt>0</asrwt>
<pdfrwt beam="1">  1        2 0.18109422E+00 0.22994728E+03</pdfrwt>
<pdfrwt beam="2">  1       -2 0.14896900E-02 0.22994728E+03</pdfrwt>
<totfact> 0.24278818E+04</totfact>
</mgrwt>
</event>
<event>
 4    1  0.6853809E-004  0.1843274E+03  0.7818608E-02  0.1163679E+00
         -2   -1    0    0    0  501 -0.00000000000E+00  0.00000000000E+00  0.85706240677E+02  0.85706240715E+02  0.25500000000E-02 0. -1.
          2   -1    0    0  501    0  0.00000000000E+00 -0.00000000000E+00 -0.99107738392E+02  0.99107738425E+02  0.25500000000E-02 0.  1.
    5000001    1    1    2    0    0  0.22684016508E+02 -0.45272230973E+02 -0.56920198077E+01  0.92333843155E+02  0.77000000000E+02 0.  0.
   -5000001    1    1    2    0    0 -0.22684016508E+02  0.45272230973E+02 -0.77094779072E+01  0.92480135985E+02  0.77000000000E+02 0.  0.
<mgrwt>
<rscale>  0 0.18432744E+03</rscale>
<asrwt>0</asrwt>
<pdfrwt beam="1">  1        2 0.14158248E-01 0.18432744E+03</pdfrwt>
<pdfrwt beam="2">  1       -2 0.12243749E-01 0.18432744E+03</pdfrwt>
<totfact> 0.19076350E+04</totfact>
</mgrwt>
</event>
<event>
 4    1  0.6853809E-004  0.1638828E+03  0.7818608E-02  0.1184382E+00
         -2   -1    0    0    0  501 -0.00000000000E+00  0.00000000000E+00  0.24861662255E+02  0.24861662386E+02  0.25500000000E-02 0. -1.
          2   -1    0    0  501    0  0.00000000000E+00 -0.00000000000E+00 -0.27007017753E+03  0.27007017754E+03  0.25500000000E-02 0.  1.
    5000001    1    1    2    0    0 -0.25787790605E+02 -0.97519944279E+01 -0.13165312360E+03  0.15498921412E+03  0.77000000000E+02 0.  0.
   -5000001    1    1    2    0    0  0.25787790605E+02  0.97519944279E+01 -0.11355539167E+03  0.13994262581E+03  0.77000000000E+02 0.  0.
<mgrwt>
<rscale>  0 0.16388281E+03</rscale>
<asrwt>0</asrwt>
<pdfrwt beam="1">  1        2 0.38581452E-01 0.16388281E+03</pdfrwt>
<pdfrwt beam="2">  1       -2 0.35516662E-02 0.16388281E+03</pdfrwt>
<totfact> 0.41105719E+04</totfact>
</mgrwt>
</event>
<event>
 4    1  0.6853809E-004  0.5443253E+03  0.7818608E-02  0.1002816E+00
         -2   -1    0    0    0  501 -0.00000000000E+00  0.00000000000E+00  0.85871574153E+03  0.85871574153E+03  0.25500000000E-02 0. -1.
          2   -1    0    0  501    0  0.00000000000E+00 -0.00000000000E+00 -0.86259626236E+02  0.86259626274E+02  0.25500000000E-02 0.  1.
    5000001    1    1    2    0    0  0.79415290725E+02 -0.24749741091E+03  0.42810039929E+03  0.50671560927E+03  0.77000000000E+02 0.  0.
   -5000001    1    1    2    0    0 -0.79415290725E+02  0.24749741091E+03  0.34435571600E+03  0.43825975854E+03  0.77000000000E+02 0.  0.
<mgrwt>
<rscale>  0 0.54432527E+03</rscale>
<asrwt>0</asrwt>
<pdfrwt beam="1">  1        2 0.12322804E-01 0.54432527E+03</pdfrwt>
<pdfrwt beam="2">  1       -2 0.12267368E+00 0.54432527E+03</pdfrwt>
<totfact> 0.26022268E+02</totfact>
</mgrwt>
</event>
<event>
 4    1  0.6853809E-004  0.2786068E+03  0.7818608E-02  0.1096452E+00
          2   -1    0    0  501    0  0.00000000000E+00  0.00000000000E+00  0.23827305552E+04  0.23827305552E+04  0.25500000000E-02 0.  1.
         -2   -1    0    0    0  501 -0.00000000000E+00 -0.00000000000E+00 -0.81441983056E+01  0.81441987048E+01  0.25500000000E-02 0. -1.
    5000001    1    1    2    0    0  0.11283719440E+03  0.27253065863E+02  0.11976927556E+04  0.12057661045E+04  0.77000000000E+02 0.  0.
   -5000001    1    1    2    0    0 -0.11283719440E+03 -0.27253065863E+02  0.11768936013E+04  0.11851086494E+04  0.77000000000E+02 0.  0.
<mgrwt>
<rscale>  0 0.27860675E+03</rscale>
<asrwt>0</asrwt>
<pdfrwt beam="1">  1        2 0.34038970E+00 0.27860675E+03</pdfrwt>
<pdfrwt beam="2">  1       -2 0.11634582E-02 0.27860675E+03</pdfrwt>
<totfact> 0.98088155E+03</totfact>
</mgrwt>
</event>
<event>
 4    1  0.6853809E-004  0.2288177E+03  0.7818608E-02  0.1127475E+00
          2   -1    0    0  501    0  0.00000000000E+00  0.00000000000E+00  0.15035671996E+03  0.15035671999E+03  0.25500000000E-02 0.  1.
         -2   -1    0    0    0  501 -0.00000000000E+00 -0.00000000000E+00 -0.87055542584E+02  0.87055542621E+02  0.25500000000E-02 0. -1.
    5000001    1    1    2    0    0  0.43892140233E+02  0.70732906972E+02  0.15890531939E+02  0.11450403097E+03  0.77000000000E+02 0.  0.
   -5000001    1    1    2    0    0 -0.43892140233E+02 -0.70732906972E+02  0.47410645441E+02  0.12290823164E+03  0.77000000000E+02 0.  0.
<mgrwt>
<rscale>  0 0.22881771E+03</rscale>
<asrwt>0</asrwt>
<pdfrwt beam="1">  1        2 0.21479531E-01 0.22881771E+03</pdfrwt>
<pdfrwt beam="2">  1       -2 0.12436506E-01 0.22881771E+03</pdfrwt>
<totfact> 0.11653969E+04</totfact>
</mgrwt>
</event>
<event>
 4    1  0.6853809E-004  0.4397544E+03  0.7818608E-02  0.1030822E+00
         -2   -1    0    0    0  501 -0.00000000000E+00  0.00000000000E+00  0.33664558142E+02  0.33664558238E+02  0.25500000000E-02 0. -1.
          2   -1    0    0  501    0  0.00000000000E+00 -0.00000000000E+00 -0.14361094089E+04  0.14361094089E+04  0.25500000000E-02 0.  1.
    5000001    1    1    2    0    0  0.10118353801E+03  0.13425399414E+03 -0.30358123637E+03  0.35546140491E+03  0.77000000000E+02 0.  0.
   -5000001    1    1    2    0    0 -0.10118353801E+03 -0.13425399414E+03 -0.10988636144E+04  0.11143125622E+04  0.77000000000E+02 0.  0.
<mgrwt>
<rscale>  0 0.43975443E+03</rscale>
<asrwt>0</asrwt>
<pdfrwt beam="1">  1        2 0.20515845E+00 0.43975443E+03</pdfrwt>
<pdfrwt beam="2">  1       -2 0.48092235E-02 0.43975443E+03</pdfrwt>
<totfact> 0.35010001E+03</totfact>
</mgrwt>
</event>
<event>
 4    1  0.6853809E-004  0.3771602E+03  0.7818608E-02  0.1051988E+00
         -2   -1    0    0    0  501 -0.00000000000E+00  0.00000000000E+00  0.68980751469E+02  0.68980751516E+02  0.25500000000E-02 0. -1.
          2   -1    0    0  501    0  0.00000000000E+00 -0.00000000000E+00 -0.51554176728E+03  0.51554176729E+03  0.25500000000E-02 0.  1.
    5000001    1    1    2    0    0 -0.14244225960E+03  0.16732053764E+02 -0.75734278936E+02  0.17953952197E+03  0.77000000000E+02 0.  0.
   -5000001    1    1    2    0    0  0.14244225960E+03 -0.16732053764E+02 -0.37082673687E+03  0.40498299683E+03  0.77000000000E+02 0.  0.
<mgrwt>
<rscale>  0 0.37716022E+03</rscale>
<asrwt>0</asrwt>
<pdfrwt beam="1">  1        2 0.73648822E-01 0.37716022E+03</pdfrwt>
<pdfrwt beam="2">  1       -2 0.98543933E-02 0.37716022E+03</pdfrwt>
<totfact> 0.44684393E+03</totfact>
</mgrwt>
</event>
<event>
 4    1  0.6853809E-004  0.2770884E+03  0.7818608E-02  0.1097290E+00
          2   -1    0    0  501    0  0.00000000000E+00  0.00000000000E+00  0.56278106495E+02  0.56278106553E+02  0.25500000000E-02 0.  1.
         -2   -1    0    0    0  501 -0.00000000000E+00 -0.00000000000E+00 -0.34106504890E+03  0.34106504891E+03  0.25500000000E-02 0. -1.
    5000001    1    1    2    0    0 -0.30340847093E+02  0.10881738436E+03 -0.11020980380E+03  0.17560464400E+03  0.77000000000E+02 0.  0.
   -5000001    1    1    2    0    0  0.30340847093E+02 -0.10881738436E+03 -0.17457713861E+03  0.22173851146E+03  0.77000000000E+02 0.  0.
<mgrwt>
<rscale>  0 0.27708840E+03</rscale>
<asrwt>0</asrwt>
<pdfrwt beam="1">  1        2 0.80397297E-02 0.27708840E+03</pdfrwt>
<pdfrwt beam="2">  1       -2 0.48723577E-01 0.27708840E+03</pdfrwt>
<totfact> 0.34058299E+03</totfact>
</mgrwt>
</event>
<event>
 4    1  0.6853809E-004  0.2008405E+03  0.7818608E-02  0.1149032E+00
         -2   -1    0    0    0  501 -0.00000000000E+00  0.00000000000E+00  0.39017519468E+01  0.39017527800E+01  0.25500000000E-02 0. -1.
          2   -1    0    0  501    0  0.00000000000E+00 -0.00000000000E+00 -0.25845373611E+04  0.25845373611E+04  0.25500000000E-02 0.  1.
    5000001    1    1    2    0    0  0.13204814399E+01 -0.64404765939E+02 -0.12600728701E+04  0.12640658034E+04  0.77000000000E+02 0.  0.
   -5000001    1    1    2    0    0 -0.13204814399E+01  0.64404765939E+02 -0.13205627391E+04  0.13243733104E+04  0.77000000000E+02 0.  0.
<mgrwt>
<rscale>  0 0.20084048E+03</rscale>
<asrwt>0</asrwt>
<pdfrwt beam="1">  1        2 0.36921853E+00 0.20084048E+03</pdfrwt>
<pdfrwt beam="2">  1       -2 0.55739485E-03 0.20084048E+03</pdfrwt>
<totfact> 0.22378375E+04</totfact>
</mgrwt>
</event>
<event>
 4    1  0.6853809E-004  0.1851439E+03  0.7818608E-02  0.1162916E+00
          2   -1    0    0  501    0  0.00000000000E+00  0.00000000000E+00  0.30836601113E+03  0.30836601114E+03  0.25500000000E-02 0.  1.
         -2   -1    0    0    0  501 -0.00000000000E+00 -0.00000000000E+00 -0.27790250316E+02  0.27790250433E+02  0.25500000000E-02 0. -1.
    5000001    1    1    2    0    0  0.26381888908E+02 -0.23647695392E+02  0.72708896875E+02  0.11167274173E+03  0.77000000000E+02 0.  0.
   -5000001    1    1    2    0    0 -0.26381888908E+02  0.23647695392E+02  0.20786686393E+03  0.22448351984E+03  0.77000000000E+02 0.  0.
<mgrwt>
<rscale>  0 0.18514393E+03</rscale>
<asrwt>0</asrwt>
<pdfrwt beam="1">  1        2 0.44052287E-01 0.18514393E+03</pdfrwt>
<pdfrwt beam="2">  1       -2 0.39700358E-02 0.18514393E+03</pdfrwt>
<totfact> 0.30578484E+04</totfact>
</mgrwt>
</event>
<event>
 4    1  0.6853809E-004  0.2112616E+03  0.7818608E-02  0.1140571E+00
          2   -1    0    0  501    0  0.00000000000E+00  0.00000000000E+00  0.49045708085E+03  0.49045708086E+03  0.25500000000E-02 0.  1.
         -2   -1    0    0    0  501 -0.00000000000E+00 -0.00000000000E+00 -0.22749924336E+02  0.22749924478E+02  0.25500000000E-02 0. -1.
    5000001    1    1    2    0    0 -0.32643524600E+02 -0.64465393104E+02  0.22721194157E+03  0.25055069946E+03  0.77000000000E+02 0.  0.
   -5000001    1    1    2    0    0  0.32643524600E+02  0.64465393104E+02  0.24049521494E+03  0.26265630587E+03  0.77000000000E+02 0.  0.
<mgrwt>
<rscale>  0 0.21126156E+03</rscale>
<asrwt>0</asrwt>
<pdfrwt beam="1">  1        2 0.70065298E-01 0.21126156E+03</pdfrwt>
<pdfrwt beam="2">  1       -2 0.32499892E-02 0.21126156E+03</pdfrwt>
<totfact> 0.25273179E+04</totfact>
</mgrwt>
</event>
<event>
 4    1  0.6853809E-004  0.1929785E+03  0.7818608E-02  0.1155802E+00
         -2   -1    0    0    0  501 -0.00000000000E+00  0.00000000000E+00  0.21311705398E+02  0.21311705550E+02  0.25500000000E-02 0. -1.
          2   -1    0    0  501    0  0.00000000000E+00 -0.00000000000E+00 -0.43685724152E+03  0.43685724153E+03  0.25500000000E-02 0.  1.
    5000001    1    1    2    0    0  0.47315870344E+02  0.24214739171E+02 -0.15178863046E+03  0.17830853461E+03  0.77000000000E+02 0.  0.
   -5000001    1    1    2    0    0 -0.47315870344E+02 -0.24214739171E+02 -0.26375690567E+03  0.27986041247E+03  0.77000000000E+02 0.  0.
<mgrwt>
<rscale>  0 0.19297847E+03</rscale>
<asrwt>0</asrwt>
<pdfrwt beam="1">  1        2 0.62408172E-01 0.19297847E+03</pdfrwt>
<pdfrwt beam="2">  1       -2 0.30445296E-02 0.19297847E+03</pdfrwt>
<totfact> 0.31357913E+04</totfact>
</mgrwt>
</event>
<event>
 4    1  0.6853809E-004  0.1831104E+03  0.7818608E-02  0.1164826E+00
          2   -1    0    0  501    0  0.00000000000E+00  0.00000000000E+00  0.67138548859E+02  0.67138548908E+02  0.25500000000E-02 0.  1.
         -2   -1    0    0    0  501 -0.00000000000E+00 -0.00000000000E+00 -0.12485157780E+03  0.12485157782E+03  0.25500000000E-02 0. -1.
    5000001    1    1    2    0    0 -0.43991889151E+02  0.22683917031E+02 -0.30820128398E+02  0.96585333863E+02  0.77000000000E+02 0.  0.
   -5000001    1    1    2    0    0  0.43991889151E+02 -0.22683917031E+02 -0.26892900542E+02  0.95404792870E+02  0.77000000000E+02 0.  0.
<mgrwt>
<rscale>  0 0.18311039E+03</rscale>
<asrwt>0</asrwt>
<pdfrwt beam="1">  1        2 0.95912213E-02 0.18311039E+03</pdfrwt>
<pdfrwt beam="2">  1       -2 0.17835940E-01 0.18311039E+03</pdfrwt>
<totfact> 0.16498749E+04</totfact>
</mgrwt>
</event>
<event>
 4    1  0.6853809E-004  0.2207193E+03  0.7818608E-02  0.1133348E+00
         -2   -1    0    0    0  501 -0.00000000000E+00  0.00000000000E+00  0.25624885746E+02  0.25624885873E+02  0.25500000000E-02 0. -1.
          2   -1    0    0  501    0  0.00000000000E+00 -0.00000000000E+00 -0.47528988670E+03  0.47528988671E+03  0.25500000000E-02 0.  1.
    5000001    1    1    2    0    0  0.71982549656E+02  0.44662292536E+01 -0.15133494201E+03  0.18447953635E+03  0.77000000000E+02 0.  0.
   -5000001    1    1    2    0    0 -0.71982549656E+02 -0.44662292536E+01 -0.29833005894E+03  0.31643523623E+03  0.77000000000E+02 0.  0.
<mgrwt>
<rscale>  0 0.22071927E+03</rscale>
<asrwt>0</asrwt>
<pdfrwt beam="1">  1        2 0.67898550E-01 0.22071927E+03</pdfrwt>
<pdfrwt beam="2">  1       -2 0.36606983E-02 0.22071927E+03</pdfrwt>
<totfact> 0.21976136E+04</totfact>
</mgrwt>
</event>
<event>
 4    1  0.6853809E-004  0.1961765E+03  0.7818608E-02  0.1153006E+00
          2   -1    0    0  501    0  0.00000000000E+00  0.00000000000E+00  0.13432940956E+03  0.13432940958E+03  0.25500000000E-02 0.  1.
         -2   -1    0    0    0  501 -0.00000000000E+00 -0.00000000000E+00 -0.71624721046E+02  0.71624721092E+02  0.25500000000E-02 0. -1.
    5000001    1    1    2    0    0  0.58993754388E+02 -0.57899172865E+00  0.16076953341E+02  0.98326327690E+02  0.77000000000E+02 0.  0.
   -5000001    1    1    2    0    0 -0.58993754388E+02  0.57899172865E+00  0.46627735173E+02  0.10762780299E+03  0.77000000000E+02 0.  0.
<mgrwt>
<rscale>  0 0.19617652E+03</rscale>
<asrwt>0</asrwt>
<pdfrwt beam="1">  1        2 0.19189916E-01 0.19617652E+03</pdfrwt>
<pdfrwt beam="2">  1       -2 0.10232103E-01 0.19617652E+03</pdfrwt>
<totfact> 0.17914119E+04</totfact>
</mgrwt>
</event>
<event>
 4    1  0.6853809E-004  0.2682446E+03  0.7818608E-02  0.1102288E+00
         -2   -1    0    0    0  501 -0.00000000000E+00  0.00000000000E+00  0.83570485666E+02  0.83570485704E+02  0.25500000000E-02 0. -1.
          2   -1    0    0  501    0  0.00000000000E+00 -0.00000000000E+00 -0.21525294885E+03  0.21525294887E+03  0.25500000000E-02 0.  1.
    5000001    1    1    2    0    0 -0.40094361390E+02 -0.58196030198E+02  0.27797126712E+02  0.10814812065E+03  0.77000000000E+02 0.  0.
   -5000001    1    1    2    0    0  0.40094361390E+02  0.58196030198E+02 -0.15947958990E+03  0.19067531393E+03  0.77000000000E+02 0.  0.
<mgrwt>
<rscale>  0 0.26824462E+03</rscale>
<asrwt>0</asrwt>
<pdfrwt beam="1">  1        2 0.30750421E-01 0.26824462E+03</pdfrwt>
<pdfrwt beam="2">  1       -2 0.11938641E-01 0.26824462E+03</pdfrwt>
<totfact> 0.84191134E+03</totfact>
</mgrwt>
</event>
<event>
 4    1  0.6853809E-004  0.1923771E+03  0.7818608E-02  0.1156335E+00
         -2   -1    0    0    0  501 -0.00000000000E+00  0.00000000000E+00  0.31763894476E+02  0.31763894578E+02  0.25500000000E-02 0. -1.
          2   -1    0    0  501    0  0.00000000000E+00 -0.00000000000E+00 -0.29128160982E+03  0.29128160983E+03  0.25500000000E-02 0.  1.
    5000001    1    1    2    0    0 -0.49495393115E+02  0.14260597059E+02 -0.17322724745E+03  0.19644296329E+03  0.77000000000E+02 0.  0.
   -5000001    1    1    2    0    0  0.49495393115E+02 -0.14260597059E+02 -0.86290467899E+02  0.12660254112E+03  0.77000000000E+02 0.  0.
<mgrwt>
<rscale>  0 0.19237711E+03</rscale>
<asrwt>0</asrwt>
<pdfrwt beam="1">  1        2 0.41611657E-01 0.19237711E+03</pdfrwt>
<pdfrwt beam="2">  1       -2 0.45376994E-02 0.19237711E+03</pdfrwt>
<totfact> 0.26687269E+04</totfact>
</mgrwt>
</event>
<event>
 4    1  0.6853809E-004  0.2589421E+03  0.7818608E-02  0.1107780E+00
          2   -1    0    0  501    0  0.00000000000E+00  0.00000000000E+00  0.95222584983E+03  0.95222584983E+03  0.25500000000E-02 0.  1.
         -2   -1    0    0    0  501 -0.00000000000E+00 -0.00000000000E+00 -0.17603760851E+02  0.17603761036E+02  0.25500000000E-02 0. -1.
    5000001    1    1    2    0    0 -0.79330366714E+02  0.66134333548E+02  0.41895404789E+03  0.43831330278E+03  0.77000000000E+02 0.  0.
   -5000001    1    1    2    0    0  0.79330366714E+02 -0.66134333548E+02  0.51566804109E+03  0.53151630808E+03  0.77000000000E+02 0.  0.
<mgrwt>
<rscale>  0 0.25894213E+03</rscale>
<asrwt>0</asrwt>
<pdfrwt beam="1">  1        2 0.13603229E+00 0.25894213E+03</pdfrwt>
<pdfrwt beam="2">  1       -2 0.25148225E-02 0.25894213E+03</pdfrwt>
<totfact> 0.17029972E+04</totfact>
</mgrwt>
</event>
<event>
 4    1  0.6853809E-004  0.4386183E+03  0.7818608E-02  0.1031172E+00
          2   -1    0    0  501    0  0.00000000000E+00  0.00000000000E+00  0.25125676620E+04  0.25125676620E+04  0.25500000000E-02 0.  1.
         -2   -1    0    0    0  501 -0.00000000000E+00 -0.00000000000E+00 -0.19142367621E+02  0.19142367791E+02  0.25500000000E-02 0. -1.
    5000001    1    1    2    0    0 -0.15472906070E+03  0.78777895731E+02  0.61388169926E+03  0.64259379064E+03  0.77000000000E+02 0.  0.
   -5000001    1    1    2    0    0  0.15472906070E+03 -0.78777895731E+02  0.18795435951E+04  0.18891162391E+04  0.77000000000E+02 0.  0.
<mgrwt>
<rscale>  0 0.43861826E+03</rscale>
<asrwt>0</asrwt>
<pdfrwt beam="1">  1        2 0.35893797E+00 0.43861826E+03</pdfrwt>
<pdfrwt beam="2">  1       -2 0.27346260E-02 0.43861826E+03</pdfrwt>
<totfact> 0.23763222E+03</totfact>
</mgrwt>
</event>
<event>
 4    1  0.6853809E-004  0.5860938E+03  0.7818608E-02  0.9934685E-01
          2   -1    0    0  501    0  0.00000000000E+00  0.00000000000E+00  0.79359777978E+02  0.79359778019E+02  0.25500000000E-02 0.  1.
         -2   -1    0    0    0  501 -0.00000000000E+00 -0.00000000000E+00 -0.10821159955E+04  0.10821159955E+04  0.25500000000E-02 0. -1.
    5000001    1    1    2    0    0 -0.25022579894E+03 -0.41888753588E+02 -0.25402071126E+03  0.36718270640E+03  0.77000000000E+02 0.  0.
   -5000001    1    1    2    0    0  0.25022579894E+03  0.41888753588E+02 -0.74873550624E+03  0.79429306710E+03  0.77000000000E+02 0.  0.
<mgrwt>
<rscale>  0 0.58609380E+03</rscale>
<asrwt>0</asrwt>
<pdfrwt beam="1">  1        2 0.11337112E-01 0.58609380E+03</pdfrwt>
<pdfrwt beam="2">  1       -2 0.15458799E+00 0.58609380E+03</pdfrwt>
<totfact> 0.15948184E+02</totfact>
</mgrwt>
</event>
<event>
 4    1  0.6853809E-004  0.2044213E+03  0.7818608E-02  0.1146061E+00
          2   -1    0    0  501    0  0.00000000000E+00  0.00000000000E+00  0.98927763948E+03  0.98927763949E+03  0.25500000000E-02 0.  1.
         -2   -1    0    0    0  501 -0.00000000000E+00 -0.00000000000E+00 -0.10560245846E+02  0.10560246154E+02  0.25500000000E-02 0. -1.
    5000001    1    1    2    0    0  0.54200892923E+02 -0.75305493864E+01  0.68027129208E+03  0.68679871636E+03  0.77000000000E+02 0.  0.
   -5000001    1    1    2    0    0 -0.54200892923E+02  0.75305493864E+01  0.29844610156E+03  0.31303916928E+03  0.77000000000E+02 0.  0.
<mgrwt>
<rscale>  0 0.20442128E+03</rscale>
<asrwt>0</asrwt>
<pdfrwt beam="1">  1        2 0.14132536E+00 0.20442128E+03</pdfrwt>
<pdfrwt beam="2">  1       -2 0.15086067E-02 0.20442128E+03</pdfrwt>
<totfact> 0.33762260E+04</totfact>
</mgrwt>
</event>
<event>
 4    1  0.6853809E-004  0.3352341E+03  0.7818608E-02  0.1068844E+00
         -2   -1    0    0    0  501 -0.00000000000E+00  0.00000000000E+00  0.12981540077E+02  0.12981540328E+02  0.25500000000E-02 0. -1.
          2   -1    0    0  501    0  0.00000000000E+00 -0.00000000000E+00 -0.21642630371E+04  0.21642630371E+04  0.25500000000E-02 0.  1.
    5000001    1    1    2    0    0 -0.13400443969E+03 -0.26613433156E+02 -0.69135407183E+03  0.70891813160E+03  0.77000000000E+02 0.  0.
   -5000001    1    1    2    0    0  0.13400443969E+03  0.26613433156E+02 -0.14599274252E+04  0.14683264458E+04  0.77000000000E+02 0.  0.
<mgrwt>
<rscale>  0 0.33523405E+03</rscale>
<asrwt>0</asrwt>
<pdfrwt beam="1">  1        2 0.30918020E+00 0.33523405E+03</pdfrwt>
<pdfrwt beam="2">  1       -2 0.18545071E-02 0.33523405E+03</pdfrwt>
<totfact> 0.63500630E+03</totfact>
</mgrwt>
</event>
<event>
 4    1  0.6853809E-004  0.2578196E+03  0.7818608E-02  0.1108460E+00
          2   -1    0    0  501    0  0.00000000000E+00  0.00000000000E+00  0.71032350145E+03  0.71032350145E+03  0.25500000000E-02 0.  1.
         -2   -1    0    0    0  501 -0.00000000000E+00 -0.00000000000E+00 -0.23394611125E+02  0.23394611264E+02  0.25500000000E-02 0. -1.
    5000001    1    1    2    0    0 -0.68542359495E+02 -0.51316506375E+02  0.50835983869E+03  0.52123906652E+03  0.77000000000E+02 0.  0.
   -5000001    1    1    2    0    0  0.68542359495E+02  0.51316506375E+02  0.17856905163E+03  0.21247904619E+03  0.77000000000E+02 0.  0.
<mgrwt>
<rscale>  0 0.25781964E+03</rscale>
<asrwt>0</asrwt>
<pdfrwt beam="1">  1        2 0.10147482E+00 0.25781964E+03</pdfrwt>
<pdfrwt beam="2">  1       -2 0.33420863E-02 0.25781964E+03</pdfrwt>
<totfact> 0.16106762E+04</totfact>
</mgrwt>
</event>
<event>
 4    1  0.6853809E-004  0.2410102E+03  0.7818608E-02  0.1119122E+00
          2   -1    0    0  501    0  0.00000000000E+00  0.00000000000E+00  0.11030662542E+02  0.11030662837E+02  0.25500000000E-02 0.  1.
         -2   -1    0    0    0  501 -0.00000000000E+00 -0.00000000000E+00 -0.13164648753E+04  0.13164648753E+04  0.25500000000E-02 0. -1.
    5000001    1    1    2    0    0 -0.29083845230E+02  0.56811896464E+02 -0.10229880958E+04  0.10278653150E+04  0.77000000000E+02 0.  0.
   -5000001    1    1    2    0    0  0.29083845230E+02 -0.56811896464E+02 -0.28244611695E+03  0.29963022313E+03  0.77000000000E+02 0.  0.
<mgrwt>
<rscale>  0 0.24101021E+03</rscale>
<asrwt>0</asrwt>
<pdfrwt beam="1">  1        2 0.15758098E-02 0.24101021E+03</pdfrwt>
<pdfrwt beam="2">  1       -2 0.18806631E+00 0.24101021E+03</pdfrwt>
<totfact> 0.13070721E+03</totfact>
</mgrwt>
</event>
<event>
 4    1  0.6853809E-004  0.1706590E+03  0.7818608E-02  0.1177162E+00
         -2   -1    0    0    0  501 -0.00000000000E+00  0.00000000000E+00  0.20221385330E+03  0.20221385332E+03  0.25500000000E-02 0. -1.
          2   -1    0    0  501    0  0.00000000000E+00 -0.00000000000E+00 -0.36007047029E+02  0.36007047119E+02  0.25500000000E-02 0.  1.
    5000001    1    1    2    0    0 -0.18023580656E+00 -0.15820165420E+02  0.12943792956E+03  0.15143806565E+03  0.77000000000E+02 0.  0.
   -5000001    1    1    2    0    0  0.18023580656E+00  0.15820165420E+02  0.36768876710E+02  0.86782834785E+02  0.77000000000E+02 0.  0.
<mgrwt>
<rscale>  0 0.17065900E+03</rscale>
<asrwt>0</asrwt>
<pdfrwt beam="1">  1        2 0.51438640E-02 0.17065900E+03</pdfrwt>
<pdfrwt beam="2">  1       -2 0.28887693E-01 0.17065900E+03</pdfrwt>
<totfact> 0.15765619E+04</totfact>
</mgrwt>
</event>
<event>
 4    1  0.6853809E-004  0.2830489E+03  0.7818608E-02  0.1094035E+00
         -2   -1    0    0    0  501 -0.00000000000E+00  0.00000000000E+00  0.27878030371E+02  0.27878030488E+02  0.25500000000E-02 0. -1.
          2   -1    0    0  501    0  0.00000000000E+00 -0.00000000000E+00 -0.71845704606E+03  0.71845704607E+03  0.25500000000E-02 0.  1.
    5000001    1    1    2    0    0  0.10752145966E+03 -0.50168457879E+02 -0.33280197059E+03  0.36161290088E+03  0.77000000000E+02 0.  0.
   -5000001    1    1    2    0    0 -0.10752145966E+03  0.50168457879E+02 -0.35777704510E+03  0.38472217567E+03  0.77000000000E+02 0.  0.
<mgrwt>
<rscale>  0 0.28304888E+03</rscale>
<asrwt>0</asrwt>
<pdfrwt beam="1">  1        2 0.10263671E+00 0.28304888E+03</pdfrwt>
<pdfrwt beam="2">  1       -2 0.39825762E-02 0.28304888E+03</pdfrwt>
<totfact> 0.12268689E+04</totfact>
</mgrwt>
</event>
<event>
 4    1  0.6853809E-004  0.4092074E+03  0.7818608E-02  0.1040637E+00
          2   -1    0    0  501    0  0.00000000000E+00  0.00000000000E+00  0.48024325525E+03  0.48024325526E+03  0.25500000000E-02 0.  1.
         -2   -1    0    0    0  501 -0.00000000000E+00 -0.00000000000E+00 -0.87169739425E+02  0.87169739462E+02  0.25500000000E-02 0. -1.
    5000001    1    1    2    0    0  0.16342229274E+03 -0.35164403838E+02  0.32048411460E+03  0.36957062759E+03  0.77000000000E+02 0.  0.
   -5000001    1    1    2    0    0 -0.16342229274E+03  0.35164403838E+02  0.72589401225E+02  0.19784236713E+03  0.77000000000E+02 0.  0.
<mgrwt>
<rscale>  0 0.40920743E+03</rscale>
<asrwt>0</asrwt>
<pdfrwt beam="1">  1        2 0.68606182E-01 0.40920743E+03</pdfrwt>
<pdfrwt beam="2">  1       -2 0.12452819E-01 0.40920743E+03</pdfrwt>
<totfact> 0.33180455E+03</totfact>
</mgrwt>
</event>
<event>
 4    1  0.6853809E-004  0.2500770E+03  0.7818608E-02  0.1113256E+00
          2   -1    0    0  501    0  0.00000000000E+00  0.00000000000E+00  0.33289230169E+03  0.33289230170E+03  0.25500000000E-02 0.  1.
         -2   -1    0    0    0  501 -0.00000000000E+00 -0.00000000000E+00 -0.46966008962E+02  0.46966009032E+02  0.25500000000E-02 0. -1.
    5000001    1    1    2    0    0  0.89402687709E+02 -0.41256781788E+02  0.14792256931E+03  0.19366220365E+03  0.77000000000E+02 0.  0.
   -5000001    1    1    2    0    0 -0.89402687709E+02  0.41256781788E+02  0.13800372342E+03  0.18619610707E+03  0.77000000000E+02 0.  0.
<mgrwt>
<rscale>  0 0.25007697E+03</rscale>
<asrwt>0</asrwt>
<pdfrwt beam="1">  1        2 0.47556043E-01 0.25007697E+03</pdfrwt>
<pdfrwt beam="2">  1       -2 0.67094299E-02 0.25007697E+03</pdfrwt>
<totfact> 0.12981913E+04</totfact>
</mgrwt>
</event>
<event>
 4    1  0.6853809E-004  0.4798894E+03  0.7818608E-02  0.1019166E+00
          2   -1    0    0  501    0  0.00000000000E+00  0.00000000000E+00  0.14328864446E+04  0.14328864446E+04  0.25500000000E-02 0.  1.
         -2   -1    0    0    0  501 -0.00000000000E+00 -0.00000000000E+00 -0.40180062425E+02  0.40180062506E+02  0.25500000000E-02 0. -1.
    5000001    1    1    2    0    0  0.67044117462E+02  0.20672918366E+03  0.90025840931E+03  0.92931484041E+03  0.77000000000E+02 0.  0.
   -5000001    1    1    2    0    0 -0.67044117462E+02 -0.20672918366E+03  0.49244797287E+03  0.54375166671E+03  0.77000000000E+02 0.  0.
<mgrwt>
<rscale>  0 0.47988943E+03</rscale>
<asrwt>0</asrwt>
<pdfrwt beam="1">  1        2 0.20469803E+00 0.47988943E+03</pdfrwt>
<pdfrwt beam="2">  1       -2 0.57400098E-02 0.47988943E+03</pdfrwt>
<totfact> 0.26730703E+03</totfact>
</mgrwt>
</event>
<event>
 4    1  0.6853809E-004  0.2841784E+03  0.7818608E-02  0.1093428E+00
         -2   -1    0    0    0  501 -0.00000000000E+00  0.00000000000E+00  0.10063019066E+02  0.10063019389E+02  0.25500000000E-02 0. -1.
          2   -1    0    0  501    0  0.00000000000E+00 -0.00000000000E+00 -0.20062909121E+04  0.20062909121E+04  0.25500000000E-02 0.  1.
    5000001    1    1    2    0    0  0.15123609557E+02  0.10646033506E+03 -0.62957622038E+03  0.64331776267E+03  0.77000000000E+02 0.  0.
   -5000001    1    1    2    0    0 -0.15123609557E+02 -0.10646033506E+03 -0.13666516727E+04  0.13730361688E+04  0.77000000000E+02 0.  0.
<mgrwt>
<rscale>  0 0.28417842E+03</rscale>
<asrwt>0</asrwt>
<pdfrwt beam="1">  1        2 0.28661273E+00 0.28417842E+03</pdfrwt>
<pdfrwt beam="2">  1       -2 0.14375755E-02 0.28417842E+03</pdfrwt>
<totfact> 0.11020313E+04</totfact>
</mgrwt>
</event>
<event>
 4    1  0.6853809E-004  0.3223074E+03  0.7818608E-02  0.1074592E+00
          2   -1    0    0  501    0  0.00000000000E+00  0.00000000000E+00  0.86764089122E+03  0.86764089122E+03  0.25500000000E-02 0. -1.
         -2   -1    0    0    0  501 -0.00000000000E+00 -0.00000000000E+00 -0.29932333362E+02  0.29932333471E+02  0.25500000000E-02 0.  1.
    5000001    1    1    2    0    0 -0.13973186220E+03  0.73711113404E+01  0.35898420407E+03  0.39290964021E+03  0.77000000000E+02 0.  0.
   -5000001    1    1    2    0    0  0.13973186220E+03 -0.73711113404E+01  0.47872435378E+03  0.50466358448E+03  0.77000000000E+02 0.  0.
<mgrwt>
<rscale>  0 0.32230741E+03</rscale>
<asrwt>0</asrwt>
<pdfrwt beam="1">  1        2 0.12394870E+00 0.32230741E+03</pdfrwt>
<pdfrwt beam="2">  1       -2 0.42760475E-02 0.32230741E+03</pdfrwt>
<totfact> 0.87611608E+03</totfact>
</mgrwt>
</event>
<event>
 4    1  0.6853809E-004  0.2395409E+03  0.7818608E-02  0.1120099E+00
         -2   -1    0    0    0  501 -0.00000000000E+00  0.00000000000E+00  0.10154220109E+02  0.10154220430E+02  0.25500000000E-02 0. -1.
          2   -1    0    0  501    0  0.00000000000E+00 -0.00000000000E+00 -0.14127093375E+04  0.14127093375E+04  0.25500000000E-02 0.  1.
    5000001    1    1    2    0    0  0.77306033612E+02  0.13808460126E+02 -0.98297610380E+03  0.98910965876E+03  0.77000000000E+02 0.  0.
   -5000001    1    1    2    0    0 -0.77306033612E+02 -0.13808460126E+02 -0.41957901358E+03  0.43375389916E+03  0.77000000000E+02 0.  0.
<mgrwt>
<rscale>  0 0.23954091E+03</rscale>
<asrwt>0</asrwt>
<pdfrwt beam="1">  1        2 0.20181549E+00 0.23954091E+03</pdfrwt>
<pdfrwt beam="2">  1       -2 0.14506038E-02 0.23954091E+03</pdfrwt>
<totfact> 0.21264664E+04</totfact>
</mgrwt>
</event>
<event>
 4    1  0.6853809E-004  0.3635560E+03  0.7818608E-02  0.1057185E+00
         -2   -1    0    0    0  501 -0.00000000000E+00  0.00000000000E+00  0.53655052285E+02  0.53655052345E+02  0.25500000000E-02 0. -1.
          2   -1    0    0  501    0  0.00000000000E+00 -0.00000000000E+00 -0.61584581966E+03  0.61584581967E+03  0.25500000000E-02 0.  1.
    5000001    1    1    2    0    0 -0.15518510064E+03  0.36899220054E+02 -0.35635697767E+03  0.39794882012E+03  0.77000000000E+02 0.  0.
   -5000001    1    1    2    0    0  0.15518510064E+03 -0.36899220054E+02 -0.20583378971E+03  0.27155205189E+03  0.77000000000E+02 0.  0.
<mgrwt>
<rscale>  0 0.36355599E+03</rscale>
<asrwt>0</asrwt>
<pdfrwt beam="1">  1        2 0.87977970E-01 0.36355599E+03</pdfrwt>
<pdfrwt beam="2">  1       -2 0.76650078E-02 0.36355599E+03</pdfrwt>
<totfact> 0.54266963E+03</totfact>
</mgrwt>
</event>
<event>
 4    1  0.6853809E-004  0.2398095E+03  0.7818608E-02  0.1119920E+00
          2   -1    0    0  501    0  0.00000000000E+00  0.00000000000E+00  0.46312965467E+03  0.46312965468E+03  0.25500000000E-02 0. -1.
         -2   -1    0    0    0  501 -0.00000000000E+00 -0.00000000000E+00 -0.31043459584E+02  0.31043459689E+02  0.25500000000E-02 0.  1.
    5000001    1    1    2    0    0  0.62171419288E+02  0.67569090757E+02  0.20747713104E+03  0.23959680153E+03  0.77000000000E+02 0.  0.
   -5000001    1    1    2    0    0 -0.62171419288E+02 -0.67569090757E+02  0.22460906405E+03  0.25457631283E+03  0.77000000000E+02 0.  0.
<mgrwt>
<rscale>  0 0.23980948E+03</rscale>
<asrwt>0</asrwt>
<pdfrwt beam="1">  1        2 0.66161377E-01 0.23980948E+03</pdfrwt>
<pdfrwt beam="2">  1       -2 0.44347801E-02 0.23980948E+03</pdfrwt>
<totfact> 0.17042369E+04</totfact>
</mgrwt>
</event>
<event>
 4    1  0.6853809E-004  0.2273447E+03  0.7818608E-02  0.1128523E+00
          2   -1    0    0  501    0  0.00000000000E+00  0.00000000000E+00  0.26161086530E+03  0.26161086531E+03  0.25500000000E-02 0.  1.
         -2   -1    0    0    0  501 -0.00000000000E+00 -0.00000000000E+00 -0.49391710565E+02  0.49391710631E+02  0.25500000000E-02 0. -1.
    5000001    1    1    2    0    0 -0.25442325802E+02 -0.79499882713E+02  0.99288200225E+02  0.15084657768E+03  0.77000000000E+02 0.  0.
   -5000001    1    1    2    0    0  0.25442325802E+02  0.79499882713E+02  0.11293095451E+03  0.16015599826E+03  0.77000000000E+02 0.  0.
<mgrwt>
<rscale>  0 0.22734474E+03</rscale>
<asrwt>0</asrwt>
<pdfrwt beam="1">  1        2 0.37372981E-01 0.22734474E+03</pdfrwt>
<pdfrwt beam="2">  1       -2 0.70559585E-02 0.22734474E+03</pdfrwt>
<totfact> 0.15474990E+04</totfact>
</mgrwt>
</event>
<event>
 4    1  0.6853809E-004  0.2326102E+03  0.7818608E-02  0.1124816E+00
         -2   -1    0    0    0  501 -0.00000000000E+00  0.00000000000E+00  0.24997958880E+02  0.24997959010E+02  0.25500000000E-02 0. -1.
          2   -1    0    0  501    0  0.00000000000E+00 -0.00000000000E+00 -0.54111919243E+03  0.54111919244E+03  0.25500000000E-02 0.  1.
    5000001    1    1    2    0    0  0.79242235238E+02  0.31313263291E+02 -0.21331497566E+03  0.24226458913E+03  0.77000000000E+02 0.  0.
   -5000001    1    1    2    0    0 -0.79242235238E+02 -0.31313263291E+02 -0.30280625789E+03  0.32385256232E+03  0.77000000000E+02 0.  0.
<mgrwt>
<rscale>  0 0.23261019E+03</rscale>
<asrwt>0</asrwt>
<pdfrwt beam="1">  1        2 0.77302735E-01 0.23261019E+03</pdfrwt>
<pdfrwt beam="2">  1       -2 0.35711373E-02 0.23261019E+03</pdfrwt>
<totfact> 0.19830749E+04</totfact>
</mgrwt>
</event>
<event>
 4    1  0.6853809E-004  0.6907737E+03  0.7818608E-02  0.9733142E-01
         -2   -1    0    0    0  501 -0.00000000000E+00  0.00000000000E+00  0.11648063122E+03  0.11648063124E+03  0.25500000000E-02 0. -1.
          2   -1    0    0  501    0  0.00000000000E+00 -0.00000000000E+00 -0.10241367352E+04  0.10241367352E+04  0.25500000000E-02 0.  1.
    5000001    1    1    2    0    0 -0.14867359997E+03 -0.22907160539E+03 -0.12863699633E+03  0.31153509682E+03  0.77000000000E+02 0.  0.
   -5000001    1    1    2    0    0  0.14867359997E+03  0.22907160539E+03 -0.77901910766E+03  0.82908226964E+03  0.77000000000E+02 0.  0.
<mgrwt>
<rscale>  0 0.69077375E+03</rscale>
<asrwt>0</asrwt>
<pdfrwt beam="1">  1        2 0.14630524E+00 0.69077375E+03</pdfrwt>
<pdfrwt beam="2">  1       -2 0.16640091E-01 0.69077375E+03</pdfrwt>
<totfact> 0.80044600E+02</totfact>
</mgrwt>
</event>
<event>
 4    1  0.6853809E-004  0.1779138E+03  0.7818608E-02  0.1169837E+00
         -2   -1    0    0    0  501 -0.00000000000E+00  0.00000000000E+00  0.50033392016E+02  0.50033392081E+02  0.25500000000E-02 0. -1.
          2   -1    0    0  501    0  0.00000000000E+00 -0.00000000000E+00 -0.15816100844E+03  0.15816100846E+03  0.25500000000E-02 0.  1.
    5000001    1    1    2    0    0  0.29086845501E+01 -0.40180635734E+02 -0.76309510129E+02  0.11565070372E+03  0.77000000000E+02 0.  0.
   -5000001    1    1    2    0    0 -0.29086845501E+01  0.40180635734E+02 -0.31818106294E+02  0.92543696824E+02  0.77000000000E+02 0.  0.
<mgrwt>
<rscale>  0 0.17791382E+03</rscale>
<asrwt>0</asrwt>
<pdfrwt beam="1">  1        2 0.22594430E-01 0.17791382E+03</pdfrwt>
<pdfrwt beam="2">  1       -2 0.71476275E-02 0.17791382E+03</pdfrwt>
<totfact> 0.25854824E+04</totfact>
</mgrwt>
</event>
<event>
 4    1  0.6853809E-004  0.6037373E+03  0.7818608E-02  0.9897683E-01
          2   -1    0    0  501    0  0.00000000000E+00  0.00000000000E+00  0.90228692362E+03  0.90228692363E+03  0.25500000000E-02 0.  1.
         -2   -1    0    0    0  501 -0.00000000000E+00 -0.00000000000E+00 -0.10099300502E+03  0.10099300505E+03  0.25500000000E-02 0. -1.
    5000001    1    1    2    0    0 -0.62569399940E+02 -0.19341791220E+03  0.52582884515E+02  0.22365012478E+03  0.77000000000E+02 0.  0.
   -5000001    1    1    2    0    0  0.62569399940E+02  0.19341791220E+03  0.74871103409E+03  0.77962980390E+03  0.77000000000E+02 0.  0.
<mgrwt>
<rscale>  0 0.60373725E+03</rscale>
<asrwt>0</asrwt>
<pdfrwt beam="1">  1        2 0.12889813E+00 0.60373725E+03</pdfrwt>
<pdfrwt beam="2">  1       -2 0.14427572E-01 0.60373725E+03</pdfrwt>
<totfact> 0.12166093E+03</totfact>
</mgrwt>
</event>
<event>
 4    1  0.6853809E-004  0.2431303E+03  0.7818608E-02  0.1117725E+00
          2   -1    0    0  501    0  0.00000000000E+00  0.00000000000E+00  0.22675979117E+02  0.22675979260E+02  0.25500000000E-02 0.  1.
         -2   -1    0    0    0  501 -0.00000000000E+00 -0.00000000000E+00 -0.65170646837E+03  0.65170646838E+03  0.25500000000E-02 0. -1.
    5000001    1    1    2    0    0  0.88278006319E+02 -0.21642257040E+02 -0.38175728224E+03  0.39991126045E+03  0.77000000000E+02 0.  0.
   -5000001    1    1    2    0    0 -0.88278006319E+02  0.21642257040E+02 -0.24727320702E+03  0.27447118719E+03  0.77000000000E+02 0.  0.
<mgrwt>
<rscale>  0 0.24313027E+03</rscale>
<asrwt>0</asrwt>
<pdfrwt beam="1">  1        2 0.32394260E-02 0.24313027E+03</pdfrwt>
<pdfrwt beam="2">  1       -2 0.93100912E-01 0.24313027E+03</pdfrwt>
<totfact> 0.28326620E+03</totfact>
</mgrwt>
</event>
<event>
 4    1  0.6853809E-004  0.2388109E+03  0.7818608E-02  0.1120588E+00
          2   -1    0    0  501    0  0.00000000000E+00  0.00000000000E+00  0.62741136305E+03  0.62741136306E+03  0.25500000000E-02 0.  1.
         -2   -1    0    0    0  501 -0.00000000000E+00 -0.00000000000E+00 -0.22724582060E+02  0.22724582203E+02  0.25500000000E-02 0. -1.
    5000001    1    1    2    0    0  0.57772177610E+01 -0.85809110181E+02  0.21922885833E+03  0.24776374222E+03  0.77000000000E+02 0.  0.
   -5000001    1    1    2    0    0 -0.57772177610E+01  0.85809110181E+02  0.38545792266E+03  0.40237220304E+03  0.77000000000E+02 0.  0.
<mgrwt>
<rscale>  0 0.23881090E+03</rscale>
<asrwt>0</asrwt>
<pdfrwt beam="1">  1        2 0.89630196E-01 0.23881090E+03</pdfrwt>
<pdfrwt beam="2">  1       -2 0.32463688E-02 0.23881090E+03</pdfrwt>
<totfact> 0.19366682E+04</totfact>
</mgrwt>
</event>
<event>
 4    1  0.6853809E-004  0.1792807E+03  0.7818608E-02  0.1168501E+00
          2   -1    0    0  501    0  0.00000000000E+00  0.00000000000E+00  0.48238106668E+03  0.48238106669E+03  0.25500000000E-02 0.  1.
         -2   -1    0    0    0  501 -0.00000000000E+00 -0.00000000000E+00 -0.16657766900E+02  0.16657767095E+02  0.25500000000E-02 0. -1.
    5000001    1    1    2    0    0 -0.36775248479E+02 -0.26269206602E+02  0.25511296451E+03  0.27028524706E+03  0.77000000000E+02 0.  0.
   -5000001    1    1    2    0    0  0.36775248479E+02  0.26269206602E+02  0.21061033527E+03  0.22875358672E+03  0.77000000000E+02 0.  0.
<mgrwt>
<rscale>  0 0.17928069E+03</rscale>
<asrwt>0</asrwt>
<pdfrwt beam="1">  1        2 0.68911586E-01 0.17928069E+03</pdfrwt>
<pdfrwt beam="2">  1       -2 0.23796808E-02 0.17928069E+03</pdfrwt>
<totfact> 0.40220198E+04</totfact>
</mgrwt>
</event>
<event>
 4    1  0.6853809E-004  0.2198402E+03  0.7818608E-02  0.1134002E+00
          2   -1    0    0  501    0  0.00000000000E+00  0.00000000000E+00  0.17712639260E+04  0.17712639260E+04  0.25500000000E-02 0.  1.
         -2   -1    0    0    0  501 -0.00000000000E+00 -0.00000000000E+00 -0.68213567735E+01  0.68213572501E+01  0.25500000000E-02 0. -1.
    5000001    1    1    2    0    0 -0.71471461595E+02  0.31859156508E+02  0.83773835468E+03  0.84490101585E+03  0.77000000000E+02 0.  0.
   -5000001    1    1    2    0    0  0.71471461595E+02 -0.31859156508E+02  0.92670421457E+03  0.93318426743E+03  0.77000000000E+02 0.  0.
<mgrwt>
<rscale>  0 0.21984016E+03</rscale>
<asrwt>0</asrwt>
<pdfrwt beam="1">  1        2 0.25303817E+00 0.21984016E+03</pdfrwt>
<pdfrwt beam="2">  1       -2 0.97447777E-03 0.21984016E+03</pdfrwt>
<totfact> 0.25036446E+04</totfact>
</mgrwt>
</event>
<event>
 4    1  0.6853809E-004  0.2337792E+03  0.7818608E-02  0.1124008E+00
         -2   -1    0    0    0  501 -0.00000000000E+00  0.00000000000E+00  0.45509302546E+02  0.45509302617E+02  0.25500000000E-02 0. -1.
          2   -1    0    0  501    0  0.00000000000E+00 -0.00000000000E+00 -0.30022817711E+03  0.30022817712E+03  0.25500000000E-02 0.  1.
    5000001    1    1    2    0    0  0.59920012220E+02  0.50809786042E+02 -0.68907404614E+02  0.12980474811E+03  0.77000000000E+02 0.  0.
   -5000001    1    1    2    0    0 -0.59920012220E+02 -0.50809786042E+02 -0.18581146995E+03  0.21593273163E+03  0.77000000000E+02 0.  0.
<mgrwt>
<rscale>  0 0.23377917E+03</rscale>
<asrwt>0</asrwt>
<pdfrwt beam="1">  1        2 0.42889739E-01 0.23377917E+03</pdfrwt>
<pdfrwt beam="2">  1       -2 0.65013291E-02 0.23377917E+03</pdfrwt>
<totfact> 0.15167223E+04</totfact>
</mgrwt>
</event>
<event>
 4    1  0.6853809E-004  0.4831634E+03  0.7818608E-02  0.1018269E+00
         -2   -1    0    0    0  501 -0.00000000000E+00  0.00000000000E+00  0.58792442709E+02  0.58792442764E+02  0.25500000000E-02 0. -1.
          2   -1    0    0  501    0  0.00000000000E+00 -0.00000000000E+00 -0.99267396469E+03  0.99267396469E+03  0.25500000000E-02 0.  1.
    5000001    1    1    2    0    0  0.10172855801E+03 -0.20335830719E+03 -0.40816582844E+03  0.47353103819E+03  0.77000000000E+02 0.  0.
   -5000001    1    1    2    0    0 -0.10172855801E+03  0.20335830719E+03 -0.52571569354E+03  0.57793536927E+03  0.77000000000E+02 0.  0.
<mgrwt>
<rscale>  0 0.48316344E+03</rscale>
<asrwt>0</asrwt>
<pdfrwt beam="1">  1        2 0.14181056E+00 0.48316344E+03</pdfrwt>
<pdfrwt beam="2">  1       -2 0.83989210E-02 0.48316344E+03</pdfrwt>
<totfact> 0.25849880E+03</totfact>
</mgrwt>
</event>
<event>
 4    1  0.6853809E-004  0.3047673E+03  0.7818608E-02  0.1082881E+00
          2   -1    0    0  501    0  0.00000000000E+00  0.00000000000E+00  0.37750801930E+02  0.37750802016E+02  0.25500000000E-02 0.  1.
         -2   -1    0    0    0  501 -0.00000000000E+00 -0.00000000000E+00 -0.61510681527E+03  0.61510681528E+03  0.25500000000E-02 0. -1.
    5000001    1    1    2    0    0  0.11471870448E+02  0.13095092866E+03 -0.29610668624E+03  0.33299837712E+03  0.77000000000E+02 0.  0.
   -5000001    1    1    2    0    0 -0.11471870448E+02 -0.13095092866E+03 -0.28124932711E+03  0.31985924018E+03  0.77000000000E+02 0.  0.
<mgrwt>
<rscale>  0 0.30476729E+03</rscale>
<asrwt>0</asrwt>
<pdfrwt beam="1">  1        2 0.53929721E-02 0.30476729E+03</pdfrwt>
<pdfrwt beam="2">  1       -2 0.87872396E-01 0.30476729E+03</pdfrwt>
<totfact> 0.16456637E+03</totfact>
</mgrwt>
</event>
<event>
 4    1  0.6853809E-004  0.3383538E+03  0.7818608E-02  0.1067499E+00
          2   -1    0    0  501    0  0.00000000000E+00  0.00000000000E+00  0.40564356681E+03  0.40564356682E+03  0.25500000000E-02 0.  1.
         -2   -1    0    0    0  501 -0.00000000000E+00 -0.00000000000E+00 -0.70556592203E+02  0.70556592249E+02  0.25500000000E-02 0. -1.
    5000001    1    1    2    0    0 -0.14101536874E+03 -0.11611400065E+02  0.24028959537E+03  0.28928921251E+03  0.77000000000E+02 0.  0.
   -5000001    1    1    2    0    0  0.14101536874E+03  0.11611400065E+02  0.94797379243E+02  0.18691094656E+03  0.77000000000E+02 0.  0.
<mgrwt>
<rscale>  0 0.33835383E+03</rscale>
<asrwt>0</asrwt>
<pdfrwt beam="1">  1        2 0.57949079E-01 0.33835383E+03</pdfrwt>
<pdfrwt beam="2">  1       -2 0.10079513E-01 0.33835383E+03</pdfrwt>
<totfact> 0.56030033E+03</totfact>
</mgrwt>
</event>
<event>
 4    1  0.6853809E-004  0.2417466E+03  0.7818608E-02  0.1118635E+00
         -2   -1    0    0    0  501 -0.00000000000E+00  0.00000000000E+00  0.60266696414E+01  0.60266701809E+01  0.25500000000E-02 0.  1.
          2   -1    0    0  501    0  0.00000000000E+00 -0.00000000000E+00 -0.24242831860E+04  0.24242831860E+04  0.25500000000E-02 0. -1.
    5000001    1    1    2    0    0 -0.14166467671E+02  0.69405316281E+02 -0.60063833308E+03  0.60968286338E+03  0.77000000000E+02 0.  0.
   -5000001    1    1    2    0    0  0.14166467671E+02 -0.69405316281E+02 -0.18176181832E+04  0.18206269928E+04  0.77000000000E+02 0.  0.
<mgrwt>
<rscale>  0 0.24174660E+03</rscale>
<asrwt>0</asrwt>
<pdfrwt beam="1">  1        2 0.34632555E+00 0.24174660E+03</pdfrwt>
<pdfrwt beam="2">  1       -2 0.86095440E-03 0.24174660E+03</pdfrwt>
<totfact> 0.14451461E+04</totfact>
</mgrwt>
</event>
<event>
 4    1  0.6853809E-004  0.2186595E+03  0.7818608E-02  0.1134886E+00
         -2   -1    0    0    0  501 -0.00000000000E+00  0.00000000000E+00  0.74810764984E+02  0.74810765028E+02  0.25500000000E-02 0.  1.
          2   -1    0    0  501    0  0.00000000000E+00 -0.00000000000E+00 -0.15977635726E+03  0.15977635728E+03  0.25500000000E-02 0. -1.
    5000001    1    1    2    0    0  0.76298035849E+02  0.57621269143E+01 -0.56446205371E+02  0.12235099706E+03  0.77000000000E+02 0.  0.
   -5000001    1    1    2    0    0 -0.76298035849E+02 -0.57621269143E+01 -0.28519386904E+02  0.11223612525E+03  0.77000000000E+02 0.  0.
<mgrwt>
<rscale>  0 0.21865948E+03</rscale>
<asrwt>0</asrwt>
<pdfrwt beam="1">  1        2 0.22825194E-01 0.21865948E+03</pdfrwt>
<pdfrwt beam="2">  1       -2 0.10687252E-01 0.21865948E+03</pdfrwt>
<totfact> 0.13837527E+04</totfact>
</mgrwt>
</event>
<event>
 4    1  0.6853809E-004  0.3114545E+03  0.7818608E-02  0.1079651E+00
         -2   -1    0    0    0  501 -0.00000000000E+00  0.00000000000E+00  0.26200243972E+03  0.26200243974E+03  0.25500000000E-02 0. -1.
          2   -1    0    0  501    0  0.00000000000E+00 -0.00000000000E+00 -0.92560108445E+02  0.92560108480E+02  0.25500000000E-02 0.  1.
    5000001    1    1    2    0    0  0.42666273550E+02 -0.12457226196E+03  0.49023108737E+02  0.16022148589E+03  0.77000000000E+02 0.  0.
   -5000001    1    1    2    0    0 -0.42666273550E+02  0.12457226196E+03  0.12041922254E+03  0.19434106233E+03  0.77000000000E+02 0.  0.
<mgrwt>
<rscale>  0 0.31145449E+03</rscale>
<asrwt>0</asrwt>
<pdfrwt beam="1">  1        2 0.13222873E-01 0.31145449E+03</pdfrwt>
<pdfrwt beam="2">  1       -2 0.37428920E-01 0.31145449E+03</pdfrwt>
<totfact> 0.30729577E+03</totfact>
</mgrwt>
</event>
<event>
 4    1  0.6853809E-004  0.1741422E+03  0.7818608E-02  0.1173596E+00
         -2   -1    0    0    0  501 -0.00000000000E+00  0.00000000000E+00  0.44324303639E+02  0.44324303713E+02  0.25500000000E-02 0. -1.
          2   -1    0    0  501    0  0.00000000000E+00 -0.00000000000E+00 -0.17104333421E+03  0.17104333422E+03  0.25500000000E-02 0.  1.
    5000001    1    1    2    0    0 -0.39831598754E+02  0.80905443621E+01 -0.62613852341E+02  0.10724508228E+03  0.77000000000E+02 0.  0.
   -5000001    1    1    2    0    0  0.39831598754E+02 -0.80905443621E+01 -0.64105178226E+02  0.10812255566E+03  0.77000000000E+02 0.  0.
<mgrwt>
<rscale>  0 0.17414220E+03</rscale>
<asrwt>0</asrwt>
<pdfrwt beam="1">  1        2 0.24434762E-01 0.17414220E+03</pdfrwt>
<pdfrwt beam="2">  1       -2 0.63320435E-02 0.17414220E+03</pdfrwt>
<totfact> 0.28474199E+04</totfact>
</mgrwt>
</event>
<event>
 4    1  0.6853809E-004  0.2642235E+03  0.7818608E-02  0.1104632E+00
          2   -1    0    0  501    0  0.00000000000E+00  0.00000000000E+00  0.44166166372E+03  0.44166166373E+03  0.25500000000E-02 0.  1.
         -2   -1    0    0    0  501 -0.00000000000E+00 -0.00000000000E+00 -0.39517842675E+02  0.39517842758E+02  0.25500000000E-02 0. -1.
    5000001    1    1    2    0    0 -0.15157585440E+02 -0.10307101190E+03  0.24824986154E+03  0.28001853447E+03  0.77000000000E+02 0.  0.
   -5000001    1    1    2    0    0  0.15157585440E+02  0.10307101190E+03  0.15389395950E+03  0.20116097202E+03  0.77000000000E+02 0.  0.
<mgrwt>
<rscale>  0 0.26422351E+03</rscale>
<asrwt>0</asrwt>
<pdfrwt beam="1">  1        2 0.63094516E-01 0.26422351E+03</pdfrwt>
<pdfrwt beam="2">  1       -2 0.56454068E-02 0.26422351E+03</pdfrwt>
<totfact> 0.12506229E+04</totfact>
</mgrwt>
</event>
<event>
 4    1  0.6853809E-004  0.2938145E+03  0.7818608E-02  0.1088374E+00
          2   -1    0    0  501    0  0.00000000000E+00  0.00000000000E+00  0.14623981572E+04  0.14623981572E+04  0.25500000000E-02 0.  1.
         -2   -1    0    0    0  501 -0.00000000000E+00 -0.00000000000E+00 -0.14757769827E+02  0.14757770048E+02  0.25500000000E-02 0. -1.
    5000001    1    1    2    0    0 -0.88582500077E+02 -0.77327694246E+02  0.93867233737E+03  0.94913707574E+03  0.77000000000E+02 0.  0.
   -5000001    1    1    2    0    0  0.88582500077E+02  0.77327694246E+02  0.50896805001E+03  0.52801885151E+03  0.77000000000E+02 0.  0.
<mgrwt>
<rscale>  0 0.29381447E+03</rscale>
<asrwt>0</asrwt>
<pdfrwt beam="1">  1        2 0.20891386E+00 0.29381447E+03</pdfrwt>
<pdfrwt beam="2">  1       -2 0.21082545E-02 0.29381447E+03</pdfrwt>
<totfact> 0.11676885E+04</totfact>
</mgrwt>
</event>
<event>
 4    1  0.6853809E-004  0.2551289E+03  0.7818608E-02  0.1110106E+00
         -2   -1    0    0    0  501 -0.00000000000E+00  0.00000000000E+00  0.91542521433E+01  0.91542524984E+01  0.25500000000E-02 0. -1.
          2   -1    0    0  501    0  0.00000000000E+00 -0.00000000000E+00 -0.17776093836E+04  0.17776093836E+04  0.25500000000E-02 0.  1.
    5000001    1    1    2    0    0 -0.91002615729E+02 -0.44114186511E+02 -0.80875100956E+03  0.81867865063E+03  0.77000000000E+02 0.  0.
   -5000001    1    1    2    0    0  0.91002615729E+02  0.44114186511E+02 -0.95970412185E+03  0.96808498543E+03  0.77000000000E+02 0.  0.
<mgrwt>
<rscale>  0 0.25512887E+03</rscale>
<asrwt>0</asrwt>
<pdfrwt beam="1">  1        2 0.25394398E+00 0.25512887E+03</pdfrwt>
<pdfrwt beam="2">  1       -2 0.13077515E-02 0.25512887E+03</pdfrwt>
<totfact> 0.16319196E+04</totfact>
</mgrwt>
</event>
<event>
 4    1  0.6853809E-004  0.5427629E+03  0.7818608E-02  0.1003183E+00
          2   -1    0    0  501    0  0.00000000000E+00  0.00000000000E+00  0.13238817734E+04  0.13238817734E+04  0.25500000000E-02 0. -1.
         -2   -1    0    0    0  501 -0.00000000000E+00 -0.00000000000E+00 -0.55630260927E+02  0.55630260985E+02  0.25500000000E-02 0.  1.
    5000001    1    1    2    0    0 -0.22854711378E+03  0.10673585947E+03  0.47152859425E+03  0.54027265534E+03  0.77000000000E+02 0.  0.
   -5000001    1    1    2    0    0  0.22854711378E+03 -0.10673585947E+03  0.79672291822E+03  0.83923937904E+03  0.77000000000E+02 0.  0.
<mgrwt>
<rscale>  0 0.54276289E+03</rscale>
<asrwt>0</asrwt>
<pdfrwt beam="1">  1        2 0.18912599E+00 0.54276289E+03</pdfrwt>
<pdfrwt beam="2">  1       -2 0.79471790E-02 0.54276289E+03</pdfrwt>
<totfact> 0.18295098E+03</totfact>
</mgrwt>
</event>
<event>
 4    1  0.6853809E-004  0.2731464E+03  0.7818608E-02  0.1099492E+00
         -2   -1    0    0    0  501 -0.00000000000E+00  0.00000000000E+00  0.11827120203E+02  0.11827120478E+02  0.25500000000E-02 0. -1.
          2   -1    0    0  501    0  0.00000000000E+00 -0.00000000000E+00 -0.15770737516E+04  0.15770737516E+04  0.25500000000E-02 0.  1.
    5000001    1    1    2    0    0  0.11244869497E+03  0.82965650349E+01 -0.76450715800E+03  0.77660397670E+03  0.77000000000E+02 0.  0.
   -5000001    1    1    2    0    0 -0.11244869497E+03 -0.82965650349E+01 -0.80073947341E+03  0.81229689539E+03  0.77000000000E+02 0.  0.
<mgrwt>
<rscale>  0 0.27314642E+03</rscale>
<asrwt>0</asrwt>
<pdfrwt beam="1">  1        2 0.22529612E+00 0.27314642E+03</pdfrwt>
<pdfrwt beam="2">  1       -2 0.16895896E-02 0.27314642E+03</pdfrwt>
<totfact> 0.14127052E+04</totfact>
</mgrwt>
</event>
<event>
 4    1  0.6853809E-004  0.3245018E+03  0.7818608E-02  0.1073596E+00
          2   -1    0    0  501    0  0.00000000000E+00  0.00000000000E+00  0.87489340588E+03  0.87489340588E+03  0.25500000000E-02 0.  1.
         -2   -1    0    0    0  501 -0.00000000000E+00 -0.00000000000E+00 -0.30089789082E+02  0.30089789190E+02  0.25500000000E-02 0. -1.
    5000001    1    1    2    0    0 -0.60904787497E+02  0.89838164670E+02  0.68126956658E+03  0.69414516589E+03  0.77000000000E+02 0.  0.
   -5000001    1    1    2    0    0  0.60904787497E+02 -0.89838164670E+02  0.16353405021E+03  0.21083802919E+03  0.77000000000E+02 0.  0.
<mgrwt>
<rscale>  0 0.32450182E+03</rscale>
<asrwt>0</asrwt>
<pdfrwt beam="1">  1        2 0.12498476E+00 0.32450182E+03</pdfrwt>
<pdfrwt beam="2">  1       -2 0.42985416E-02 0.32450182E+03</pdfrwt>
<totfact> 0.86007555E+03</totfact>
</mgrwt>
</event>
<event>
 4    1  0.6853809E-004  0.2114155E+03  0.7818608E-02  0.1140450E+00
         -2   -1    0    0    0  501 -0.00000000000E+00  0.00000000000E+00  0.69572054196E+01  0.69572058869E+01  0.25500000000E-02 0. -1.
          2   -1    0    0  501    0  0.00000000000E+00 -0.00000000000E+00 -0.16061237226E+04  0.16061237226E+04  0.25500000000E-02 0.  1.
    5000001    1    1    2    0    0 -0.31741050771E+02 -0.32839100540E+02 -0.37072871397E+03  0.38138521234E+03  0.77000000000E+02 0.  0.
   -5000001    1    1    2    0    0  0.31741050771E+02  0.32839100540E+02 -0.12284378032E+04  0.12316957162E+04  0.77000000000E+02 0.  0.
<mgrwt>
<rscale>  0 0.21141554E+03</rscale>
<asrwt>0</asrwt>
<pdfrwt beam="1">  1        2 0.22944601E+00 0.21141554E+03</pdfrwt>
<pdfrwt beam="2">  1       -2 0.99388755E-03 0.21141554E+03</pdfrwt>
<totfact> 0.29253473E+04</totfact>
</mgrwt>
</event>
<event>
 4    1  0.6853809E-004  0.2964057E+03  0.7818608E-02  0.1087051E+00
          2   -1    0    0  501    0  0.00000000000E+00  0.00000000000E+00  0.63396700006E+03  0.63396700006E+03  0.25500000000E-02 0.  1.
         -2   -1    0    0    0  501 -0.00000000000E+00 -0.00000000000E+00 -0.34645458621E+02  0.34645458715E+02  0.25500000000E-02 0. -1.
    5000001    1    1    2    0    0 -0.56378740450E+01 -0.10900591239E+03  0.15485380689E+03  0.20450617611E+03  0.77000000000E+02 0.  0.
   -5000001    1    1    2    0    0  0.56378740450E+01  0.10900591239E+03  0.44446773454E+03  0.46410628266E+03  0.77000000000E+02 0.  0.
<mgrwt>
<rscale>  0 0.29640565E+03</rscale>
<asrwt>0</asrwt>
<pdfrwt beam="1">  1        2 0.90566710E-01 0.29640565E+03</pdfrwt>
<pdfrwt beam="2">  1       -2 0.49493515E-02 0.29640565E+03</pdfrwt>
<totfact> 0.10249294E+04</totfact>
</mgrwt>
</event>
<event>
 4    1  0.6853809E-004  0.3623314E+03  0.7818608E-02  0.1057665E+00
         -2   -1    0    0    0  501 -0.00000000000E+00  0.00000000000E+00  0.51177504391E+02  0.51177504454E+02  0.25500000000E-02 0. -1.
          2   -1    0    0  501    0  0.00000000000E+00 -0.00000000000E+00 -0.64131700296E+03  0.64131700297E+03  0.25500000000E-02 0.  1.
    5000001    1    1    2    0    0 -0.11435981716E+03  0.10725698163E+03 -0.38692316860E+03  0.42452416455E+03  0.77000000000E+02 0.  0.
   -5000001    1    1    2    0    0  0.11435981716E+03 -0.10725698163E+03 -0.20321632997E+03  0.26797034287E+03  0.77000000000E+02 0.  0.
<mgrwt>
<rscale>  0 0.36233136E+03</rscale>
<asrwt>0</asrwt>
<pdfrwt beam="1">  1        2 0.91616710E-01 0.36233136E+03</pdfrwt>
<pdfrwt beam="2">  1       -2 0.73110724E-02 0.36233136E+03</pdfrwt>
<totfact> 0.55735859E+03</totfact>
</mgrwt>
</event>
<event>
 4    1  0.6853809E-004  0.1870152E+03  0.7818608E-02  0.1161181E+00
         -2   -1    0    0    0  501 -0.00000000000E+00  0.00000000000E+00  0.73317553428E+01  0.73317557863E+01  0.25500000000E-02 0. -1.
          2   -1    0    0  501    0  0.00000000000E+00 -0.00000000000E+00 -0.11925755574E+04  0.11925755574E+04  0.25500000000E-02 0.  1.
    5000001    1    1    2    0    0  0.22789198740E+02 -0.46799831126E+02 -0.52684497278E+03  0.53498055770E+03  0.77000000000E+02 0.  0.
   -5000001    1    1    2    0    0 -0.22789198740E+02  0.46799831126E+02 -0.65839882928E+03  0.66492675549E+03  0.77000000000E+02 0.  0.
<mgrwt>
<rscale>  0 0.18701521E+03</rscale>
<asrwt>0</asrwt>
<pdfrwt beam="1">  1        2 0.17036781E+00 0.18701521E+03</pdfrwt>
<pdfrwt beam="2">  1       -2 0.10473944E-02 0.18701521E+03</pdfrwt>
<totfact> 0.43755421E+04</totfact>
</mgrwt>
</event>
<event>
 4    1  0.6853809E-004  0.2087061E+03  0.7818608E-02  0.1142595E+00
          2   -1    0    0  501    0  0.00000000000E+00  0.00000000000E+00  0.56836207871E+03  0.56836207871E+03  0.25500000000E-02 0.  1.
         -2   -1    0    0    0  501 -0.00000000000E+00 -0.00000000000E+00 -0.19159547097E+02  0.19159547267E+02  0.25500000000E-02 0. -1.
    5000001    1    1    2    0    0 -0.33690684135E+02  0.53809590902E+02  0.18875207786E+03  0.21351084555E+03  0.77000000000E+02 0.  0.
   -5000001    1    1    2    0    0  0.33690684135E+02 -0.53809590902E+02  0.36045045375E+03  0.37401078043E+03  0.77000000000E+02 0.  0.
<mgrwt>
<rscale>  0 0.20870611E+03</rscale>
<asrwt>0</asrwt>
<pdfrwt beam="1">  1        2 0.81194587E-01 0.20870611E+03</pdfrwt>
<pdfrwt beam="2">  1       -2 0.27370780E-02 0.20870611E+03</pdfrwt>
<totfact> 0.27656094E+04</totfact>
</mgrwt>
</event>
<event>
 4    1  0.6853809E-004  0.2882557E+03  0.7818608E-02  0.1091263E+00
         -2   -1    0    0    0  501 -0.00000000000E+00  0.00000000000E+00  0.43799488937E+03  0.43799488937E+03  0.25500000000E-02 0. -1.
          2   -1    0    0  501    0  0.00000000000E+00 -0.00000000000E+00 -0.47427113805E+02  0.47427113874E+02  0.25500000000E-02 0.  1.
    5000001    1    1    2    0    0 -0.31917600186E+02  0.11624600547E+03  0.16554014831E+03  0.21877935847E+03  0.77000000000E+02 0.  0.
   -5000001    1    1    2    0    0  0.31917600186E+02 -0.11624600547E+03  0.22502762725E+03  0.26664264478E+03  0.77000000000E+02 0.  0.
<mgrwt>
<rscale>  0 0.28825567E+03</rscale>
<asrwt>0</asrwt>
<pdfrwt beam="1">  1        2 0.67753019E-02 0.28825567E+03</pdfrwt>
<pdfrwt beam="2">  1       -2 0.62570699E-01 0.28825567E+03</pdfrwt>
<totfact> 0.25508922E+03</totfact>
</mgrwt>
</event>
<event>
 4    1  0.6853809E-004  0.1685778E+03  0.7818608E-02  0.1179339E+00
         -2   -1    0    0    0  501 -0.00000000000E+00  0.00000000000E+00  0.26296319555E+02  0.26296319678E+02  0.25500000000E-02 0. -1.
          2   -1    0    0  501    0  0.00000000000E+00 -0.00000000000E+00 -0.27017551206E+03  0.27017551207E+03  0.25500000000E-02 0.  1.
    5000001    1    1    2    0    0  0.15135237987E+02 -0.10046425479E+02 -0.70798569992E+02  0.10616705519E+03  0.77000000000E+02 0.  0.
   -5000001    1    1    2    0    0 -0.15135237987E+02  0.10046425479E+02 -0.17308062251E+03  0.19030477656E+03  0.77000000000E+02 0.  0.
<mgrwt>
<rscale>  0 0.16857784E+03</rscale>
<asrwt>0</asrwt>
<pdfrwt beam="1">  1        2 0.38596500E-01 0.16857784E+03</pdfrwt>
<pdfrwt beam="2">  1       -2 0.37566172E-02 0.16857784E+03</pdfrwt>
<totfact> 0.37907866E+04</totfact>
</mgrwt>
</event>
<event>
 4    1  0.6853809E-004  0.2383827E+03  0.7818608E-02  0.1120875E+00
          2   -1    0    0  501    0  0.00000000000E+00  0.00000000000E+00  0.22200065666E+04  0.22200065666E+04  0.25500000000E-02 0. -1.
         -2   -1    0    0    0  501 -0.00000000000E+00 -0.00000000000E+00 -0.63993429048E+01  0.63993434129E+01  0.25500000000E-02 0.  1.
    5000001    1    1    2    0    0 -0.13472536151E+02  0.60925082419E+02  0.17252116740E+04  0.17280560451E+04  0.77000000000E+02 0.  0.
   -5000001    1    1    2    0    0  0.13472536151E+02 -0.60925082419E+02  0.48839554966E+03  0.49834986488E+03  0.77000000000E+02 0.  0.
<mgrwt>
<rscale>  0 0.23838275E+03</rscale>
<asrwt>0</asrwt>
<pdfrwt beam="1">  1        2 0.31714428E+00 0.23838275E+03</pdfrwt>
<pdfrwt beam="2">  1       -2 0.91419048E-03 0.23838275E+03</pdfrwt>
<totfact> 0.16681906E+04</totfact>
</mgrwt>
</event>
<event>
 4    1  0.6853809E-004  0.2399206E+03  0.7818608E-02  0.1119846E+00
          2   -1    0    0  501    0  0.00000000000E+00  0.00000000000E+00  0.34227079055E+02  0.34227079150E+02  0.25500000000E-02 0.  1.
         -2   -1    0    0    0  501 -0.00000000000E+00 -0.00000000000E+00 -0.42044121388E+03  0.42044121389E+03  0.25500000000E-02 0. -1.
    5000001    1    1    2    0    0 -0.62341298409E+02 -0.81248146750E+00 -0.32127904768E+03  0.33620875076E+03  0.77000000000E+02 0.  0.
   -5000001    1    1    2    0    0  0.62341298409E+02  0.81248146750E+00 -0.64935087150E+02  0.11845954228E+03  0.77000000000E+02 0.  0.
<mgrwt>
<rscale>  0 0.23992061E+03</rscale>
<asrwt>0</asrwt>
<pdfrwt beam="1">  1        2 0.48895830E-02 0.23992061E+03</pdfrwt>
<pdfrwt beam="2">  1       -2 0.60063027E-01 0.23992061E+03</pdfrwt>
<totfact> 0.42248679E+03</totfact>
</mgrwt>
</event>
<event>
 4    1  0.6853809E-004  0.2458206E+03  0.7818608E-02  0.1115975E+00
         -2   -1    0    0    0  501 -0.00000000000E+00  0.00000000000E+00  0.20317675215E+02  0.20317675375E+02  0.25500000000E-02 0. -1.
          2   -1    0    0  501    0  0.00000000000E+00 -0.00000000000E+00 -0.74353689552E+03  0.74353689553E+03  0.25500000000E-02 0.  1.
    5000001    1    1    2    0    0 -0.71659476891E+02 -0.13964730433E+02 -0.55436268197E+03  0.56442632600E+03  0.77000000000E+02 0.  0.
   -5000001    1    1    2    0    0  0.71659476891E+02  0.13964730433E+02 -0.16885653834E+03  0.19942824490E+03  0.77000000000E+02 0.  0.
<mgrwt>
<rscale>  0 0.24582059E+03</rscale>
<asrwt>0</asrwt>
<pdfrwt beam="1">  1        2 0.10621954E+00 0.24582059E+03</pdfrwt>
<pdfrwt beam="2">  1       -2 0.29025255E-02 0.24582059E+03</pdfrwt>
<totfact> 0.18763921E+04</totfact>
</mgrwt>
</event>
<event>
 4    1  0.6853809E-004  0.1959832E+03  0.7818608E-02  0.1153173E+00
          2   -1    0    0  501    0  0.00000000000E+00  0.00000000000E+00  0.11695844204E+04  0.11695844204E+04  0.25500000000E-02 0.  1.
         -2   -1    0    0    0  501 -0.00000000000E+00 -0.00000000000E+00 -0.82100525143E+01  0.82100529103E+01  0.25500000000E-02 0. -1.
    5000001    1    1    2    0    0  0.12234677449E+02  0.40662118654E+02  0.32079027583E+03  0.33262365564E+03  0.77000000000E+02 0.  0.
   -5000001    1    1    2    0    0 -0.12234677449E+02 -0.40662118654E+02  0.84058409209E+03  0.84517081771E+03  0.77000000000E+02 0.  0.
<mgrwt>
<rscale>  0 0.19598316E+03</rscale>
<asrwt>0</asrwt>
<pdfrwt beam="1">  1        2 0.16708344E+00 0.19598316E+03</pdfrwt>
<pdfrwt beam="2">  1       -2 0.11728650E-02 0.19598316E+03</pdfrwt>
<totfact> 0.38373491E+04</totfact>
</mgrwt>
</event>
<event>
 4    1  0.6853809E-004  0.2531321E+03  0.7818608E-02  0.1111341E+00
          2   -1    0    0  501    0  0.00000000000E+00  0.00000000000E+00  0.32361120888E+04  0.32361120888E+04  0.25500000000E-02 0.  1.
         -2   -1    0    0    0  501 -0.00000000000E+00 -0.00000000000E+00 -0.49500652551E+01  0.49500659119E+01  0.25500000000E-02 0. -1.
    5000001    1    1    2    0    0  0.63145815965E+02  0.78028808408E+02  0.15675400646E+04  0.15726368758E+04  0.77000000000E+02 0.  0.
   -5000001    1    1    2    0    0 -0.63145815965E+02 -0.78028808408E+02  0.16636219589E+04  0.16684252789E+04  0.77000000000E+02 0.  0.
<mgrwt>
<rscale>  0 0.25313212E+03</rscale>
<asrwt>0</asrwt>
<pdfrwt beam="1">  1        2 0.46230209E+00 0.25313212E+03</pdfrwt>
<pdfrwt beam="2">  1       -2 0.70715167E-03 0.25313212E+03</pdfrwt>
<totfact> 0.72971377E+03</totfact>
</mgrwt>
</event>
<event>
 4    1  0.6853809E-004  0.2016240E+03  0.7818608E-02  0.1148376E+00
         -2   -1    0    0    0  501 -0.00000000000E+00  0.00000000000E+00  0.35051351969E+01  0.35051361245E+01  0.25500000000E-02 0. -1.
          2   -1    0    0  501    0  0.00000000000E+00 -0.00000000000E+00 -0.28994766273E+04  0.28994766273E+04  0.25500000000E-02 0.  1.
    5000001    1    1    2    0    0 -0.60915244510E+02 -0.21753829396E+02 -0.15499605927E+04  0.15532194742E+04  0.77000000000E+02 0.  0.
   -5000001    1    1    2    0    0  0.60915244510E+02  0.21753829396E+02 -0.13460108994E+04  0.13497622893E+04  0.77000000000E+02 0.  0.
<mgrwt>
<rscale>  0 0.20162400E+03</rscale>
<asrwt>0</asrwt>
<pdfrwt beam="1">  1        2 0.41420941E+00 0.20162400E+03</pdfrwt>
<pdfrwt beam="2">  1       -2 0.50073552E-03 0.20162400E+03</pdfrwt>
<totfact> 0.18066909E+04</totfact>
</mgrwt>
</event>
<event>
 4    1  0.6853809E-004  0.2306908E+03  0.7818608E-02  0.1126154E+00
         -2   -1    0    0    0  501 -0.00000000000E+00  0.00000000000E+00  0.15103769430E+02  0.15103769645E+02  0.25500000000E-02 0. -1.
          2   -1    0    0  501    0  0.00000000000E+00 -0.00000000000E+00 -0.88087683057E+03  0.88087683057E+03  0.25500000000E-02 0.  1.
    5000001    1    1    2    0    0 -0.29930151943E+02 -0.72413820341E+02 -0.56943127528E+03  0.57993150685E+03  0.77000000000E+02 0.  0.
   -5000001    1    1    2    0    0  0.29930151943E+02  0.72413820341E+02 -0.29634178586E+03  0.31604909336E+03  0.77000000000E+02 0.  0.
<mgrwt>
<rscale>  0 0.23069079E+03</rscale>
<asrwt>0</asrwt>
<pdfrwt beam="1">  1        2 0.12583951E+00 0.23069079E+03</pdfrwt>
<pdfrwt beam="2">  1       -2 0.21576819E-02 0.23069079E+03</pdfrwt>
<totfact> 0.23478698E+04</totfact>
</mgrwt>
</event>
<event>
 4    1  0.6853809E-004  0.2958593E+03  0.7818608E-02  0.1087329E+00
         -2   -1    0    0    0  501 -0.00000000000E+00  0.00000000000E+00  0.87178817067E+01  0.87178820797E+01  0.25500000000E-02 0. -1.
          2   -1    0    0  501    0  0.00000000000E+00 -0.00000000000E+00 -0.25101496312E+04  0.25101496312E+04  0.25500000000E-02 0.  1.
    5000001    1    1    2    0    0 -0.39754717210E+02  0.74650425218E+02 -0.45200860857E+03  0.46625519380E+03  0.77000000000E+02 0.  0.
   -5000001    1    1    2    0    0  0.39754717210E+02 -0.74650425218E+02 -0.20494231410E+04  0.20526123195E+04  0.77000000000E+02 0.  0.
<mgrwt>
<rscale>  0 0.29585935E+03</rscale>
<asrwt>0</asrwt>
<pdfrwt beam="1">  1        2 0.35859234E+00 0.29585935E+03</pdfrwt>
<pdfrwt beam="2">  1       -2 0.12454133E-02 0.29585935E+03</pdfrwt>
<totfact> 0.76773152E+03</totfact>
</mgrwt>
</event>
<event>
 4    1  0.6853809E-004  0.2340489E+03  0.7818608E-02  0.1123822E+00
          2   -1    0    0  501    0  0.00000000000E+00  0.00000000000E+00  0.35971590013E+03  0.35971590014E+03  0.25500000000E-02 0.  1.
         -2   -1    0    0    0  501 -0.00000000000E+00 -0.00000000000E+00 -0.38070954654E+02  0.38070954739E+02  0.25500000000E-02 0. -1.
    5000001    1    1    2    0    0  0.76314588373E+02 -0.28961810757E+02  0.10437605560E+03  0.15325163576E+03  0.77000000000E+02 0.  0.
   -5000001    1    1    2    0    0 -0.76314588373E+02  0.28961810757E+02  0.21726888988E+03  0.24453521912E+03  0.77000000000E+02 0.  0.
<mgrwt>
<rscale>  0 0.23404895E+03</rscale>
<asrwt>0</asrwt>
<pdfrwt beam="1">  1        2 0.51387986E-01 0.23404895E+03</pdfrwt>
<pdfrwt beam="2">  1       -2 0.54387078E-02 0.23404895E+03</pdfrwt>
<totfact> 0.16416920E+04</totfact>
</mgrwt>
</event>
<event>
 4    1  0.6853809E-004  0.1957123E+03  0.7818608E-02  0.1153408E+00
          2   -1    0    0  501    0  0.00000000000E+00  0.00000000000E+00  0.91336505666E+01  0.91336509226E+01  0.25500000000E-02 0.  1.
         -2   -1    0    0    0  501 -0.00000000000E+00 -0.00000000000E+00 -0.10484119873E+04  0.10484119873E+04  0.25500000000E-02 0. -1.
    5000001    1    1    2    0    0  0.52908608032E+02 -0.28817068548E+02 -0.49730424549E+03  0.50682369403E+03  0.77000000000E+02 0.  0.
   -5000001    1    1    2    0    0 -0.52908608032E+02  0.28817068548E+02 -0.54197409120E+03  0.55072194416E+03  0.77000000000E+02 0.  0.
<mgrwt>
<rscale>  0 0.19571233E+03</rscale>
<asrwt>0</asrwt>
<pdfrwt beam="1">  1        2 0.13048079E-02 0.19571233E+03</pdfrwt>
<pdfrwt beam="2">  1       -2 0.14977306E+00 0.19571233E+03</pdfrwt>
<totfact> 0.30967227E+03</totfact>
</mgrwt>
</event>
<event>
 4    1  0.6853809E-004  0.2525547E+03  0.7818608E-02  0.1111701E+00
         -2   -1    0    0    0  501 -0.00000000000E+00  0.00000000000E+00  0.63166062319E+02  0.63166062370E+02  0.25500000000E-02 0. -1.
          2   -1    0    0  501    0  0.00000000000E+00 -0.00000000000E+00 -0.25244522584E+03  0.25244522586E+03  0.25500000000E-02 0.  1.
    5000001    1    1    2    0    0 -0.79311102682E+02 -0.96576934476E+01 -0.19311558159E+02  0.11262973999E+03  0.77000000000E+02 0.  0.
   -5000001    1    1    2    0    0  0.79311102682E+02  0.96576934476E+01 -0.16996760537E+03  0.20298154824E+03  0.77000000000E+02 0.  0.
<mgrwt>
<rscale>  0 0.25255471E+03</rscale>
<asrwt>0</asrwt>
<pdfrwt beam="1">  1        2 0.36063603E-01 0.25255471E+03</pdfrwt>
<pdfrwt beam="2">  1       -2 0.90237233E-02 0.25255471E+03</pdfrwt>
<totfact> 0.11025345E+04</totfact>
</mgrwt>
</event>
<event>
 4    1  0.6853809E-004  0.5146433E+03  0.7818608E-02  0.1010026E+00
         -2   -1    0    0    0  501 -0.00000000000E+00  0.00000000000E+00  0.68587368302E+02  0.68587368349E+02  0.25500000000E-02 0. -1.
          2   -1    0    0  501    0  0.00000000000E+00 -0.00000000000E+00 -0.96540272917E+03  0.96540272917E+03  0.25500000000E-02 0.  1.
    5000001    1    1    2    0    0  0.23387530080E+03  0.91786055241E+01 -0.29935811972E+03  0.38771921150E+03  0.77000000000E+02 0.  0.
   -5000001    1    1    2    0    0 -0.23387530080E+03 -0.91786055241E+01 -0.59745724115E+03  0.64627088602E+03  0.77000000000E+02 0.  0.
<mgrwt>
<rscale>  0 0.51464330E+03</rscale>
<asrwt>0</asrwt>
<pdfrwt beam="1">  1        2 0.13791467E+00 0.51464330E+03</pdfrwt>
<pdfrwt beam="2">  1       -2 0.97981960E-02 0.51464330E+03</pdfrwt>
<totfact> 0.20986224E+03</totfact>
</mgrwt>
</event>
<event>
 4    1  0.6853809E-004  0.3218035E+03  0.7818608E-02  0.1074822E+00
          2   -1    0    0  501    0  0.00000000000E+00  0.00000000000E+00  0.12398245083E+04  0.12398245083E+04  0.25500000000E-02 0.  1.
         -2   -1    0    0    0  501 -0.00000000000E+00 -0.00000000000E+00 -0.20881483405E+02  0.20881483561E+02  0.25500000000E-02 0. -1.
    5000001    1    1    2    0    0 -0.18821514950E+02 -0.61409087355E+02  0.11648759484E+03  0.15369998434E+03  0.77000000000E+02 0.  0.
   -5000001    1    1    2    0    0  0.18821514950E+02  0.61409087355E+02  0.11024554301E+04  0.11070060075E+04  0.77000000000E+02 0.  0.
<mgrwt>
<rscale>  0 0.32180351E+03</rscale>
<asrwt>0</asrwt>
<pdfrwt beam="1">  1        2 0.17711778E+00 0.32180351E+03</pdfrwt>
<pdfrwt beam="2">  1       -2 0.29830691E-02 0.32180351E+03</pdfrwt>
<totfact> 0.91379747E+03</totfact>
</mgrwt>
</event>
<event>
 4    1  0.6853809E-004  0.2113307E+03  0.7818608E-02  0.1140516E+00
         -2   -1    0    0    0  501 -0.00000000000E+00  0.00000000000E+00  0.16912751499E+02  0.16912751691E+02  0.25500000000E-02 0. -1.
          2   -1    0    0  501    0  0.00000000000E+00 -0.00000000000E+00 -0.66016290018E+03  0.66016290019E+03  0.25500000000E-02 0.  1.
    5000001    1    1    2    0    0  0.46870616097E+02 -0.27042342065E+02 -0.47554507860E+03  0.48476825875E+03  0.77000000000E+02 0.  0.
   -5000001    1    1    2    0    0 -0.46870616097E+02  0.27042342065E+02 -0.16770507009E+03  0.19230739313E+03  0.77000000000E+02 0.  0.
<mgrwt>
<rscale>  0 0.21133075E+03</rscale>
<asrwt>0</asrwt>
<pdfrwt beam="1">  1        2 0.94308970E-01 0.21133075E+03</pdfrwt>
<pdfrwt beam="2">  1       -2 0.24161078E-02 0.21133075E+03</pdfrwt>
<totfact> 0.28049668E+04</totfact>
</mgrwt>
</event>
<event>
 4    1  0.6853809E-004  0.2175254E+03  0.7818608E-02  0.1135742E+00
          2   -1    0    0  501    0  0.00000000000E+00  0.00000000000E+00  0.15193905728E+04  0.15193905728E+04  0.25500000000E-02 0.  1.
         -2   -1    0    0    0  501 -0.00000000000E+00 -0.00000000000E+00 -0.77855693856E+01  0.77855698032E+01  0.25500000000E-02 0. -1.
    5000001    1    1    2    0    0  0.16149019176E+01 -0.58743862233E+02  0.40851845540E+03  0.41984494479E+03  0.77000000000E+02 0.  0.
   -5000001    1    1    2    0    0 -0.16149019176E+01  0.58743862233E+02  0.11030865480E+04  0.11073311978E+04  0.77000000000E+02 0.  0.
<mgrwt>
<rscale>  0 0.21752536E+03</rscale>
<asrwt>0</asrwt>
<pdfrwt beam="1">  1        2 0.21705622E+00 0.21752536E+03</pdfrwt>
<pdfrwt beam="2">  1       -2 0.11122220E-02 0.21752536E+03</pdfrwt>
<totfact> 0.27494417E+04</totfact>
</mgrwt>
</event>
<event>
 4    1  0.6853809E-004  0.2823314E+03  0.7818608E-02  0.1094422E+00
         -2   -1    0    0    0  501 -0.00000000000E+00  0.00000000000E+00  0.58938547832E+01  0.58938553349E+01  0.25500000000E-02 0. -1.
          2   -1    0    0  501    0  0.00000000000E+00 -0.00000000000E+00 -0.33811066027E+04  0.33811066027E+04  0.25500000000E-02 0.  1.
    5000001    1    1    2    0    0  0.68088399231E+02 -0.80585892620E+02 -0.10450757544E+04  0.10532057959E+04  0.77000000000E+02 0.  0.
   -5000001    1    1    2    0    0 -0.68088399231E+02  0.80585892620E+02 -0.23301369935E+04  0.23337946621E+04  0.77000000000E+02 0.  0.
<mgrwt>
<rscale>  0 0.28233138E+03</rscale>
<asrwt>0</asrwt>
<pdfrwt beam="1">  1        2 0.48301399E+00 0.28233138E+03</pdfrwt>
<pdfrwt beam="2">  1       -2 0.84198146E-03 0.28233138E+03</pdfrwt>
<totfact> 0.46981905E+03</totfact>
</mgrwt>
</event>
<event>
 4    1  0.6853809E-004  0.2362861E+03  0.7818608E-02  0.1122292E+00
         -2   -1    0    0    0  501 -0.00000000000E+00  0.00000000000E+00  0.21330244572E+02  0.21330244724E+02  0.25500000000E-02 0. -1.
          2   -1    0    0  501    0  0.00000000000E+00 -0.00000000000E+00 -0.65436595615E+03  0.65436595615E+03  0.25500000000E-02 0.  1.
    5000001    1    1    2    0    0 -0.66883760520E+02  0.85179571338E+01 -0.48528077974E+03  0.49595607487E+03  0.77000000000E+02 0.  0.
   -5000001    1    1    2    0    0  0.66883760520E+02 -0.85179571338E+01 -0.14775493184E+03  0.17974012601E+03  0.77000000000E+02 0.  0.
<mgrwt>
<rscale>  0 0.23628615E+03</rscale>
<asrwt>0</asrwt>
<pdfrwt beam="1">  1        2 0.93480838E-01 0.23628615E+03</pdfrwt>
<pdfrwt beam="2">  1       -2 0.30471782E-02 0.23628615E+03</pdfrwt>
<totfact> 0.20257462E+04</totfact>
</mgrwt>
</event>
<event>
 4    1  0.6853809E-004  0.3322203E+03  0.7818608E-02  0.1070159E+00
          2   -1    0    0  501    0  0.00000000000E+00  0.00000000000E+00  0.15562818579E+04  0.15562818579E+04  0.25500000000E-02 0.  1.
         -2   -1    0    0    0  501 -0.00000000000E+00 -0.00000000000E+00 -0.17729813852E+02  0.17729814036E+02  0.25500000000E-02 0. -1.
    5000001    1    1    2    0    0  0.13297077364E+03 -0.62913063629E+02  0.74591711480E+03  0.76417316256E+03  0.77000000000E+02 0.  0.
   -5000001    1    1    2    0    0 -0.13297077364E+03  0.62913063629E+02  0.79263492927E+03  0.80983850940E+03  0.77000000000E+02 0.  0.
<mgrwt>
<rscale>  0 0.33222034E+03</rscale>
<asrwt>0</asrwt>
<pdfrwt beam="1">  1        2 0.22232585E+00 0.33222034E+03</pdfrwt>
<pdfrwt beam="2">  1       -2 0.25328320E-02 0.33222034E+03</pdfrwt>
<totfact> 0.79917693E+03</totfact>
</mgrwt>
</event>
<event>
 4    1  0.6853809E-004  0.2307521E+03  0.7818608E-02  0.1126112E+00
          2   -1    0    0  501    0  0.00000000000E+00  0.00000000000E+00  0.12222685144E+04  0.12222685144E+04  0.25500000000E-02 0.  1.
         -2   -1    0    0    0  501 -0.00000000000E+00 -0.00000000000E+00 -0.10890924551E+02  0.10890924850E+02  0.25500000000E-02 0. -1.
    5000001    1    1    2    0    0 -0.72796937261E+02  0.43607092555E+02  0.53366013978E+03  0.54582333899E+03  0.77000000000E+02 0.  0.
   -5000001    1    1    2    0    0  0.72796937261E+02 -0.43607092555E+02  0.67771745004E+03  0.68733610024E+03  0.77000000000E+02 0.  0.
<mgrwt>
<rscale>  0 0.23075211E+03</rscale>
<asrwt>0</asrwt>
<pdfrwt beam="1">  1        2 0.17460988E+00 0.23075211E+03</pdfrwt>
<pdfrwt beam="2">  1       -2 0.15558455E-02 0.23075211E+03</pdfrwt>
<totfact> 0.24096200E+04</totfact>
</mgrwt>
</event>
<event>
 4    1  0.6853809E-004  0.1642969E+03  0.7818608E-02  0.1183929E+00
          2   -1    0    0  501    0  0.00000000000E+00  0.00000000000E+00  0.16898414043E+03  0.16898414045E+03  0.25500000000E-02 0.  1.
         -2   -1    0    0    0  501 -0.00000000000E+00 -0.00000000000E+00 -0.39934899146E+02  0.39934899228E+02  0.25500000000E-02 0. -1.
    5000001    1    1    2    0    0  0.26425496580E+02 -0.11278730958E+01  0.78441797629E+02  0.11305615677E+03  0.77000000000E+02 0.  0.
   -5000001    1    1    2    0    0 -0.26425496580E+02  0.11278730958E+01  0.50607443657E+02  0.95862882915E+02  0.77000000000E+02 0.  0.
<mgrwt>
<rscale>  0 0.16429686E+03</rscale>
<asrwt>0</asrwt>
<pdfrwt beam="1">  1        2 0.24140592E-01 0.16429686E+03</pdfrwt>
<pdfrwt beam="2">  1       -2 0.57049855E-02 0.16429686E+03</pdfrwt>
<totfact> 0.33639104E+04</totfact>
</mgrwt>
</event>
<event>
 4    1  0.6853809E-004  0.2713620E+03  0.7818608E-02  0.1100503E+00
          2   -1    0    0  501    0  0.00000000000E+00  0.00000000000E+00  0.35810848786E+03  0.35810848787E+03  0.25500000000E-02 0.  1.
         -2   -1    0    0    0  501 -0.00000000000E+00 -0.00000000000E+00 -0.51407150378E+02  0.51407150441E+02  0.25500000000E-02 0. -1.
    5000001    1    1    2    0    0 -0.56474006294E+02  0.36233853262E+02  0.18556217593E+02  0.10380529235E+03  0.77000000000E+02 0.  0.
   -5000001    1    1    2    0    0  0.56474006294E+02 -0.36233853262E+02  0.28814511989E+03  0.30571034595E+03  0.77000000000E+02 0.  0.
<mgrwt>
<rscale>  0 0.27136202E+03</rscale>
<asrwt>0</asrwt>
<pdfrwt beam="1">  1        2 0.51158355E-01 0.27136202E+03</pdfrwt>
<pdfrwt beam="2">  1       -2 0.73438787E-02 0.27136202E+03</pdfrwt>
<totfact> 0.10477116E+04</totfact>
</mgrwt>
</event>
<event>
 4    1  0.6853809E-004  0.2205288E+03  0.7818608E-02  0.1133489E+00
          2   -1    0    0  501    0  0.00000000000E+00  0.00000000000E+00  0.20085447106E+04  0.20085447106E+04  0.25500000000E-02 0.  1.
         -2   -1    0    0    0  501 -0.00000000000E+00 -0.00000000000E+00 -0.60532554983E+01  0.60532560354E+01  0.25500000000E-02 0. -1.
    5000001    1    1    2    0    0 -0.39844216277E+02 -0.57431562118E+02  0.66642845533E+03  0.67449375977E+03  0.77000000000E+02 0.  0.
   -5000001    1    1    2    0    0  0.39844216277E+02  0.57431562118E+02  0.13360629998E+04  0.13401042069E+04  0.77000000000E+02 0.  0.
<mgrwt>
<rscale>  0 0.22052877E+03</rscale>
<asrwt>0</asrwt>
<pdfrwt beam="1">  1        2 0.28693478E+00 0.22052877E+03</pdfrwt>
<pdfrwt beam="2">  1       -2 0.86475136E-03 0.22052877E+03</pdfrwt>
<totfact> 0.22832458E+04</totfact>
</mgrwt>
</event>
<event>
 4    1  0.6853809E-004  0.3539604E+03  0.7818608E-02  0.1061001E+00
         -2   -1    0    0    0  501 -0.00000000000E+00  0.00000000000E+00  0.25504229102E+02  0.25504229229E+02  0.25500000000E-02 0. -1.
          2   -1    0    0  501    0  0.00000000000E+00 -0.00000000000E+00 -0.12281099792E+04  0.12281099792E+04  0.25500000000E-02 0.  1.
    5000001    1    1    2    0    0  0.42223436946E+02  0.88079890756E+02 -0.15538718602E+03  0.19903533195E+03  0.77000000000E+02 0.  0.
   -5000001    1    1    2    0    0 -0.42223436946E+02 -0.88079890756E+02 -0.10472185641E+04  0.10545788765E+04  0.77000000000E+02 0.  0.
<mgrwt>
<rscale>  0 0.35396044E+03</rscale>
<asrwt>0</asrwt>
<pdfrwt beam="1">  1        2 0.17544425E+00 0.35396044E+03</pdfrwt>
<pdfrwt beam="2">  1       -2 0.36434621E-02 0.35396044E+03</pdfrwt>
<totfact> 0.68792813E+03</totfact>
</mgrwt>
</event>
<event>
 4    1  0.6853809E-004  0.7332942E+03  0.7818608E-02  0.9661930E-01
         -2   -1    0    0    0  501 -0.00000000000E+00  0.00000000000E+00  0.11492062224E+03  0.11492062227E+03  0.25500000000E-02 0. -1.
          2   -1    0    0  501    0  0.00000000000E+00 -0.00000000000E+00 -0.11697648396E+04  0.11697648396E+04  0.25500000000E-02 0.  1.
    5000001    1    1    2    0    0  0.24282025639E+03  0.25118528679E+03 -0.38677113417E+03  0.52685542176E+03  0.77000000000E+02 0.  0.
   -5000001    1    1    2    0    0 -0.24282025639E+03 -0.25118528679E+03 -0.66807308315E+03  0.75783004008E+03  0.77000000000E+02 0.  0.
<mgrwt>
<rscale>  0 0.73329422E+03</rscale>
<asrwt>0</asrwt>
<pdfrwt beam="1">  1        2 0.16710926E+00 0.73329422E+03</pdfrwt>
<pdfrwt beam="2">  1       -2 0.16417232E-01 0.73329422E+03</pdfrwt>
<totfact> 0.67182267E+02</totfact>
</mgrwt>
</event>
<event>
 4    1  0.6853809E-004  0.2768022E+03  0.7818608E-02  0.1097448E+00
         -2   -1    0    0    0  501 -0.00000000000E+00  0.00000000000E+00  0.40922685199E+02  0.40922685279E+02  0.25500000000E-02 0. -1.
          2   -1    0    0  501    0  0.00000000000E+00 -0.00000000000E+00 -0.46807433096E+03  0.46807433097E+03  0.25500000000E-02 0.  1.
    5000001    1    1    2    0    0  0.67545051057E+02 -0.89975071328E+02 -0.16975059416E+03  0.21772025996E+03  0.77000000000E+02 0.  0.
   -5000001    1    1    2    0    0 -0.67545051057E+02  0.89975071328E+02 -0.25740105161E+03  0.29127675628E+03  0.77000000000E+02 0.  0.
<mgrwt>
<rscale>  0 0.27680216E+03</rscale>
<asrwt>0</asrwt>
<pdfrwt beam="1">  1        2 0.66867759E-01 0.27680216E+03</pdfrwt>
<pdfrwt beam="2">  1       -2 0.58460982E-02 0.27680216E+03</pdfrwt>
<totfact> 0.11150004E+04</totfact>
</mgrwt>
</event>
<event>
 4    1  0.6853809E-004  0.2792498E+03  0.7818608E-02  0.1096099E+00
          2   -1    0    0  501    0  0.00000000000E+00  0.00000000000E+00  0.50189513286E+02  0.50189513351E+02  0.25500000000E-02 0.  1.
         -2   -1    0    0    0  501 -0.00000000000E+00 -0.00000000000E+00 -0.38843007706E+03  0.38843007706E+03  0.25500000000E-02 0. -1.
    5000001    1    1    2    0    0 -0.92394741997E+02 -0.62847039239E+02 -0.11751168020E+03  0.17951193184E+03  0.77000000000E+02 0.  0.
   -5000001    1    1    2    0    0  0.92394741997E+02  0.62847039239E+02 -0.22072888357E+03  0.25910765857E+03  0.77000000000E+02 0.  0.
<mgrwt>
<rscale>  0 0.27924983E+03</rscale>
<asrwt>0</asrwt>
<pdfrwt beam="1">  1        2 0.71699307E-02 0.27924983E+03</pdfrwt>
<pdfrwt beam="2">  1       -2 0.55490009E-01 0.27924983E+03</pdfrwt>
<totfact> 0.30358525E+03</totfact>
</mgrwt>
</event>
<event>
 4    1  0.6853809E-004  0.3376421E+03  0.7818608E-02  0.1067805E+00
         -2   -1    0    0    0  501 -0.00000000000E+00  0.00000000000E+00  0.50164266547E+02  0.50164266612E+02  0.25500000000E-02 0. -1.
          2   -1    0    0  501    0  0.00000000000E+00 -0.00000000000E+00 -0.56814439236E+03  0.56814439237E+03  0.25500000000E-02 0.  1.
    5000001    1    1    2    0    0 -0.24142247892E+02 -0.14781878456E+03 -0.28052623679E+03  0.32719598214E+03  0.77000000000E+02 0.  0.
   -5000001    1    1    2    0    0  0.24142247892E+02  0.14781878456E+03 -0.23745388902E+03  0.29111267683E+03  0.77000000000E+02 0.  0.
<mgrwt>
<rscale>  0 0.33764210E+03</rscale>
<asrwt>0</asrwt>
<pdfrwt beam="1">  1        2 0.81163481E-01 0.33764210E+03</pdfrwt>
<pdfrwt beam="2">  1       -2 0.71663241E-02 0.33764210E+03</pdfrwt>
<totfact> 0.66022992E+03</totfact>
</mgrwt>
</event>
<event>
 4    1  0.6853809E-004  0.2794063E+03  0.7818608E-02  0.1096014E+00
          2   -1    0    0  501    0  0.00000000000E+00  0.00000000000E+00  0.71537611657E+03  0.71537611658E+03  0.25500000000E-02 0.  1.
         -2   -1    0    0    0  501 -0.00000000000E+00 -0.00000000000E+00 -0.27282112492E+02  0.27282112611E+02  0.25500000000E-02 0. -1.
    5000001    1    1    2    0    0  0.10633589479E+03  0.63094337084E+01  0.46986948020E+03  0.48790722468E+03  0.77000000000E+02 0.  0.
   -5000001    1    1    2    0    0 -0.10633589479E+03 -0.63094337084E+01  0.21822452388E+03  0.25475100451E+03  0.77000000000E+02 0.  0.
<mgrwt>
<rscale>  0 0.27940631E+03</rscale>
<asrwt>0</asrwt>
<pdfrwt beam="1">  1        2 0.10219658E+00 0.27940631E+03</pdfrwt>
<pdfrwt beam="2">  1       -2 0.38974448E-02 0.27940631E+03</pdfrwt>
<totfact> 0.12732752E+04</totfact>
</mgrwt>
</event>
<event>
 4    1  0.6853809E-004  0.2900341E+03  0.7818608E-02  0.1090331E+00
          2   -1    0    0  501    0  0.00000000000E+00  0.00000000000E+00  0.27216394409E+03  0.27216394410E+03  0.25500000000E-02 0.  1.
         -2   -1    0    0    0  501 -0.00000000000E+00 -0.00000000000E+00 -0.77269408771E+02  0.77269408813E+02  0.25500000000E-02 0. -1.
    5000001    1    1    2    0    0  0.11710540330E+03  0.13895389169E+02  0.13908163186E+03  0.19793801465E+03  0.77000000000E+02 0.  0.
   -5000001    1    1    2    0    0 -0.11710540330E+03 -0.13895389169E+02  0.55812903453E+02  0.15149533826E+03  0.77000000000E+02 0.  0.
<mgrwt>
<rscale>  0 0.29003412E+03</rscale>
<asrwt>0</asrwt>
<pdfrwt beam="1">  1        2 0.38880564E-01 0.29003412E+03</pdfrwt>
<pdfrwt beam="2">  1       -2 0.11038487E-01 0.29003412E+03</pdfrwt>
<totfact> 0.74233039E+03</totfact>
</mgrwt>
</event>
<event>
 4    1  0.6853809E-004  0.2421772E+03  0.7818608E-02  0.1118351E+00
          2   -1    0    0  501    0  0.00000000000E+00  0.00000000000E+00  0.15188446138E+04  0.15188446138E+04  0.25500000000E-02 0.  1.
         -2   -1    0    0    0  501 -0.00000000000E+00 -0.00000000000E+00 -0.96536829223E+01  0.96536832591E+01  0.25500000000E-02 0. -1.
    5000001    1    1    2    0    0 -0.89124979146E+02  0.28064711304E+02  0.76468327111E+03  0.77420952916E+03  0.77000000000E+02 0.  0.
   -5000001    1    1    2    0    0  0.89124979146E+02 -0.28064711304E+02  0.74450765980E+03  0.75428876793E+03  0.77000000000E+02 0.  0.
<mgrwt>
<rscale>  0 0.24217716E+03</rscale>
<asrwt>0</asrwt>
<pdfrwt beam="1">  1        2 0.21697770E+00 0.24217716E+03</pdfrwt>
<pdfrwt beam="2">  1       -2 0.13790983E-02 0.24217716E+03</pdfrwt>
<totfact> 0.20237928E+04</totfact>
</mgrwt>
</event>
<event>
 4    1  0.6853809E-004  0.3304313E+03  0.7818608E-02  0.1070946E+00
         -2   -1    0    0    0  501 -0.00000000000E+00  0.00000000000E+00  0.79850935427E+01  0.79850939498E+01  0.25500000000E-02 0. -1.
          2   -1    0    0  501    0  0.00000000000E+00 -0.00000000000E+00 -0.34183962166E+04  0.34183962166E+04  0.25500000000E-02 0.  1.
    5000001    1    1    2    0    0  0.23672463151E+02  0.98339489361E+02 -0.61094062493E+03  0.62402603140E+03  0.77000000000E+02 0.  0.
   -5000001    1    1    2    0    0 -0.23672463151E+02 -0.98339489361E+02 -0.27994704981E+04  0.28023552791E+04  0.77000000000E+02 0.  0.
<mgrwt>
<rscale>  0 0.33043132E+03</rscale>
<asrwt>0</asrwt>
<pdfrwt beam="1">  1        2 0.48834138E+00 0.33043132E+03</pdfrwt>
<pdfrwt beam="2">  1       -2 0.11407299E-02 0.33043132E+03</pdfrwt>
<totfact> 0.28627791E+03</totfact>
</mgrwt>
</event>
<event>
 4    1  0.6853809E-004  0.3221937E+03  0.7818608E-02  0.1074644E+00
          2   -1    0    0  501    0  0.00000000000E+00  0.00000000000E+00  0.13555165271E+03  0.13555165274E+03  0.25500000000E-02 0.  1.
         -2   -1    0    0    0  501 -0.00000000000E+00 -0.00000000000E+00 -0.19145614998E+03  0.19145615000E+03  0.25500000000E-02 0. -1.
    5000001    1    1    2    0    0 -0.62549230144E+02 -0.12464511230E+03 -0.52276724052E+02  0.16766235740E+03  0.77000000000E+02 0.  0.
   -5000001    1    1    2    0    0  0.62549230144E+02  0.12464511230E+03 -0.36277732181E+01  0.15934544534E+03  0.77000000000E+02 0.  0.
<mgrwt>
<rscale>  0 0.32219372E+03</rscale>
<asrwt>0</asrwt>
<pdfrwt beam="1">  1        2 0.19364522E-01 0.32219372E+03</pdfrwt>
<pdfrwt beam="2">  1       -2 0.27350878E-01 0.32219372E+03</pdfrwt>
<totfact> 0.34930065E+03</totfact>
</mgrwt>
</event>
<event>
 4    1  0.6853809E-004  0.3272282E+03  0.7818608E-02  0.1072370E+00
         -2   -1    0    0    0  501 -0.00000000000E+00  0.00000000000E+00  0.14906234142E+02  0.14906234360E+02  0.25500000000E-02 0. -1.
          2   -1    0    0  501    0  0.00000000000E+00 -0.00000000000E+00 -0.17958643178E+04  0.17958643178E+04  0.25500000000E-02 0.  1.
    5000001    1    1    2    0    0  0.13658151977E+03 -0.29794849560E+02 -0.10898698694E+04  0.11014933394E+04  0.77000000000E+02 0.  0.
   -5000001    1    1    2    0    0 -0.13658151977E+03  0.29794849560E+02 -0.69108821425E+03  0.70927721271E+03  0.77000000000E+02 0.  0.
<mgrwt>
<rscale>  0 0.32722820E+03</rscale>
<asrwt>0</asrwt>
<pdfrwt beam="1">  1        2 0.25655191E+00 0.32722820E+03</pdfrwt>
<pdfrwt beam="2">  1       -2 0.21294632E-02 0.32722820E+03</pdfrwt>
<totfact> 0.78532115E+03</totfact>
</mgrwt>
</event>
<event>
 4    1  0.6853809E-004  0.1839415E+03  0.7818608E-02  0.1164042E+00
          2   -1    0    0  501    0  0.00000000000E+00  0.00000000000E+00  0.11614187647E+04  0.11614187647E+04  0.25500000000E-02 0.  1.
         -2   -1    0    0    0  501 -0.00000000000E+00 -0.00000000000E+00 -0.72830069033E+01  0.72830073498E+01  0.25500000000E-02 0. -1.
    5000001    1    1    2    0    0 -0.10850212943E+02 -0.26361244317E+02  0.84034091938E+03  0.84434264556E+03  0.77000000000E+02 0.  0.
   -5000001    1    1    2    0    0  0.10850212943E+02  0.26361244317E+02  0.31379483838E+03  0.32435912646E+03  0.77000000000E+02 0.  0.
<mgrwt>
<rscale>  0 0.18394152E+03</rscale>
<asrwt>0</asrwt>
<pdfrwt beam="1">  1        2 0.16591687E+00 0.18394152E+03</pdfrwt>
<pdfrwt beam="2">  1       -2 0.10404302E-02 0.18394152E+03</pdfrwt>
<totfact> 0.45862309E+04</totfact>
</mgrwt>
</event>
<event>
 4    1  0.6853809E-004  0.2098839E+03  0.7818608E-02  0.1141658E+00
         -2   -1    0    0    0  501 -0.00000000000E+00  0.00000000000E+00  0.45949962784E+02  0.45949962854E+02  0.25500000000E-02 0. -1.
          2   -1    0    0  501    0  0.00000000000E+00 -0.00000000000E+00 -0.23966970857E+03  0.23966970858E+03  0.25500000000E-02 0.  1.
    5000001    1    1    2    0    0  0.68296318047E+02 -0.89168784205E+01 -0.71770197849E+02  0.12579292142E+03  0.77000000000E+02 0.  0.
   -5000001    1    1    2    0    0 -0.68296318047E+02  0.89168784205E+01 -0.12194954793E+03  0.15982675002E+03  0.77000000000E+02 0.  0.
<mgrwt>
<rscale>  0 0.20988391E+03</rscale>
<asrwt>0</asrwt>
<pdfrwt beam="1">  1        2 0.34238529E-01 0.20988391E+03</pdfrwt>
<pdfrwt beam="2">  1       -2 0.65642805E-02 0.20988391E+03</pdfrwt>
<totfact> 0.18910106E+04</totfact>
</mgrwt>
</event>
<event>
 4    1  0.6853809E-004  0.3037058E+03  0.7818608E-02  0.1083403E+00
          2   -1    0    0  501    0  0.00000000000E+00  0.00000000000E+00  0.10269900070E+03  0.10269900073E+03  0.25500000000E-02 0.  1.
         -2   -1    0    0    0  501 -0.00000000000E+00 -0.00000000000E+00 -0.22453287299E+03  0.22453287301E+03  0.25500000000E-02 0. -1.
    5000001    1    1    2    0    0 -0.45506206535E+02 -0.11357563566E+03 -0.10840245554E+02  0.14497155160E+03  0.77000000000E+02 0.  0.
   -5000001    1    1    2    0    0  0.45506206535E+02  0.11357563566E+03 -0.11099362674E+03  0.18226032214E+03  0.77000000000E+02 0.  0.
<mgrwt>
<rscale>  0 0.30370579E+03</rscale>
<asrwt>0</asrwt>
<pdfrwt beam="1">  1        2 0.14671286E-01 0.30370579E+03</pdfrwt>
<pdfrwt beam="2">  1       -2 0.32076125E-01 0.30370579E+03</pdfrwt>
<totfact> 0.36152347E+03</totfact>
</mgrwt>
</event>
<event>
 4    1  0.6853809E-004  0.2074684E+03  0.7818608E-02  0.1143587E+00
         -2   -1    0    0    0  501 -0.00000000000E+00  0.00000000000E+00  0.12315159255E+02  0.12315159519E+02  0.25500000000E-02 0. -1.
          2   -1    0    0  501    0  0.00000000000E+00 -0.00000000000E+00 -0.87378369079E+03  0.87378369079E+03  0.25500000000E-02 0.  1.
    5000001    1    1    2    0    0 -0.23138442999E+02 -0.64952418252E+02 -0.39311515204E+03  0.40647598570E+03  0.77000000000E+02 0.  0.
   -5000001    1    1    2    0    0  0.23138442999E+02  0.64952418252E+02 -0.46835337949E+03  0.47962286462E+03  0.77000000000E+02 0.  0.
<mgrwt>
<rscale>  0 0.20746841E+03</rscale>
<asrwt>0</asrwt>
<pdfrwt beam="1">  1        2 0.12482620E+00 0.20746841E+03</pdfrwt>
<pdfrwt beam="2">  1       -2 0.17593090E-02 0.20746841E+03</pdfrwt>
<totfact> 0.31762136E+04</totfact>
</mgrwt>
</event>
<event>
 4    1  0.6853809E-004  0.1951207E+03  0.7818608E-02  0.1153922E+00
          2   -1    0    0  501    0  0.00000000000E+00  0.00000000000E+00  0.12312657746E+04  0.12312657746E+04  0.25500000000E-02 0.  1.
         -2   -1    0    0    0  501 -0.00000000000E+00 -0.00000000000E+00 -0.77302755761E+01  0.77302759966E+01  0.25500000000E-02 0. -1.
    5000001    1    1    2    0    0  0.51894309744E+02 -0.22867610225E+02  0.73441724926E+03  0.74061706906E+03  0.77000000000E+02 0.  0.
   -5000001    1    1    2    0    0 -0.51894309744E+02  0.22867610225E+02  0.48911824972E+03  0.49837898149E+03  0.77000000000E+02 0.  0.
<mgrwt>
<rscale>  0 0.19512072E+03</rscale>
<asrwt>0</asrwt>
<pdfrwt beam="1">  1        2 0.17589505E+00 0.19512072E+03</pdfrwt>
<pdfrwt beam="2">  1       -2 0.11043255E-02 0.19512072E+03</pdfrwt>
<totfact> 0.38778120E+04</totfact>
</mgrwt>
</event>
<event>
 4    1  0.6853809E-004  0.2702374E+03  0.7818608E-02  0.1101144E+00
         -2   -1    0    0    0  501 -0.00000000000E+00  0.00000000000E+00  0.16492983155E+02  0.16492983352E+02  0.25500000000E-02 0. -1.
          2   -1    0    0  501    0  0.00000000000E+00 -0.00000000000E+00 -0.11069595168E+04  0.11069595168E+04  0.25500000000E-02 0.  1.
    5000001    1    1    2    0    0 -0.59773889889E+02  0.22822747709E+02 -0.92247676882E+03  0.92789341238E+03  0.77000000000E+02 0.  0.
   -5000001    1    1    2    0    0  0.59773889889E+02 -0.22822747709E+02 -0.16798976483E+03  0.19555908778E+03  0.77000000000E+02 0.  0.
<mgrwt>
<rscale>  0 0.27023741E+03</rscale>
<asrwt>0</asrwt>
<pdfrwt beam="1">  1        2 0.15813703E+00 0.27023741E+03</pdfrwt>
<pdfrwt beam="2">  1       -2 0.23561412E-02 0.27023741E+03</pdfrwt>
<totfact> 0.15269687E+04</totfact>
</mgrwt>
</event>
<event>
 4    1  0.6853809E-004  0.3533850E+03  0.7818608E-02  0.1061234E+00
          2   -1    0    0  501    0  0.00000000000E+00  0.00000000000E+00  0.61381757211E+03  0.61381757212E+03  0.25500000000E-02 0.  1.
         -2   -1    0    0    0  501 -0.00000000000E+00 -0.00000000000E+00 -0.50862404819E+02  0.50862404883E+02  0.25500000000E-02 0. -1.
    5000001    1    1    2    0    0  0.73526721463E+02  0.11480448023E+03  0.43549278121E+03  0.46278419370E+03  0.77000000000E+02 0.  0.
   -5000001    1    1    2    0    0 -0.73526721463E+02 -0.11480448023E+03  0.12746238608E+03  0.20189578330E+03  0.77000000000E+02 0.  0.
<mgrwt>
<rscale>  0 0.35338499E+03</rscale>
<asrwt>0</asrwt>
<pdfrwt beam="1">  1        2 0.87688214E-01 0.35338499E+03</pdfrwt>
<pdfrwt beam="2">  1       -2 0.72660587E-02 0.35338499E+03</pdfrwt>
<totfact> 0.59191932E+03</totfact>
</mgrwt>
</event>
<event>
 4    1  0.6853809E-004  0.3464885E+03  0.7818608E-02  0.1064066E+00
         -2   -1    0    0    0  501 -0.00000000000E+00  0.00000000000E+00  0.14327755292E+02  0.14327755519E+02  0.25500000000E-02 0. -1.
          2   -1    0    0  501    0  0.00000000000E+00 -0.00000000000E+00 -0.20947855055E+04  0.20947855055E+04  0.25500000000E-02 0.  1.
    5000001    1    1    2    0    0  0.14640955112E+03  0.99117126787E+00 -0.72700379526E+03  0.74558718967E+03  0.77000000000E+02 0.  0.
   -5000001    1    1    2    0    0 -0.14640955112E+03 -0.99117126787E+00 -0.13534539550E+04  0.13635260714E+04  0.77000000000E+02 0.  0.
<mgrwt>
<rscale>  0 0.34648852E+03</rscale>
<asrwt>0</asrwt>
<pdfrwt beam="1">  1        2 0.29925488E+00 0.34648852E+03</pdfrwt>
<pdfrwt beam="2">  1       -2 0.20468235E-02 0.34648852E+03</pdfrwt>
<totfact> 0.59371438E+03</totfact>
</mgrwt>
</event>
<event>
 4    1  0.6853809E-004  0.1899007E+03  0.7818608E-02  0.1158551E+00
          2   -1    0    0  501    0  0.00000000000E+00  0.00000000000E+00  0.11190089738E+03  0.11190089741E+03  0.25500000000E-02 0.  1.
         -2   -1    0    0    0  501 -0.00000000000E+00 -0.00000000000E+00 -0.80567453315E+02  0.80567453356E+02  0.25500000000E-02 0. -1.
    5000001    1    1    2    0    0 -0.37138042645E+02 -0.41005736361E+02  0.20821321154E+02  0.97073333313E+02  0.77000000000E+02 0.  0.
   -5000001    1    1    2    0    0  0.37138042645E+02  0.41005736361E+02  0.10512122908E+02  0.95395017448E+02  0.77000000000E+02 0.  0.
<mgrwt>
<rscale>  0 0.18990071E+03</rscale>
<asrwt>0</asrwt>
<pdfrwt beam="1">  1        2 0.15985842E-01 0.18990071E+03</pdfrwt>
<pdfrwt beam="2">  1       -2 0.11509636E-01 0.18990071E+03</pdfrwt>
<totfact> 0.18303871E+04</totfact>
</mgrwt>
</event>
<event>
 4    1  0.6853809E-004  0.2354326E+03  0.7818608E-02  0.1122873E+00
         -2   -1    0    0    0  501 -0.00000000000E+00  0.00000000000E+00  0.15793344603E+02  0.15793344809E+02  0.25500000000E-02 0. -1.
          2   -1    0    0  501    0  0.00000000000E+00 -0.00000000000E+00 -0.87740290677E+03  0.87740290677E+03  0.25500000000E-02 0.  1.
    5000001    1    1    2    0    0 -0.70816765006E+02 -0.12367266972E+02 -0.23148625181E+03  0.25432822941E+03  0.77000000000E+02 0.  0.
   -5000001    1    1    2    0    0  0.70816765006E+02  0.12367266972E+02 -0.63012331035E+03  0.63886802217E+03  0.77000000000E+02 0.  0.
<mgrwt>
<rscale>  0 0.23543259E+03</rscale>
<asrwt>0</asrwt>
<pdfrwt beam="1">  1        2 0.12534324E+00 0.23543259E+03</pdfrwt>
<pdfrwt beam="2">  1       -2 0.22561927E-02 0.23543259E+03</pdfrwt>
<totfact> 0.22124205E+04</totfact>
</mgrwt>
</event>
<event>
 4    1  0.6853809E-004  0.2318700E+03  0.7818608E-02  0.1125330E+00
          2   -1    0    0  501    0  0.00000000000E+00  0.00000000000E+00  0.44150601542E+03  0.44150601543E+03  0.25500000000E-02 0.  1.
         -2   -1    0    0    0  501 -0.00000000000E+00 -0.00000000000E+00 -0.30443356468E+02  0.30443356575E+02  0.25500000000E-02 0. -1.
    5000001    1    1    2    0    0  0.58809470485E+02  0.60583190540E+02  0.24536749924E+03  0.27067154723E+03  0.77000000000E+02 0.  0.
   -5000001    1    1    2    0    0 -0.58809470485E+02 -0.60583190540E+02  0.16569515971E+03  0.20127782478E+03  0.77000000000E+02 0.  0.
<mgrwt>
<rscale>  0 0.23187001E+03</rscale>
<asrwt>0</asrwt>
<pdfrwt beam="1">  1        2 0.63072282E-01 0.23187001E+03</pdfrwt>
<pdfrwt beam="2">  1       -2 0.43490513E-02 0.23187001E+03</pdfrwt>
<totfact> 0.18451984E+04</totfact>
</mgrwt>
</event>
<event>
 4    1  0.6853809E-004  0.2516814E+03  0.7818608E-02  0.1112247E+00
         -2   -1    0    0    0  501 -0.00000000000E+00  0.00000000000E+00  0.10164174351E+02  0.10164174671E+02  0.25500000000E-02 0. -1.
          2   -1    0    0  501    0  0.00000000000E+00 -0.00000000000E+00 -0.15580096967E+04  0.15580096967E+04  0.25500000000E-02 0.  1.
    5000001    1    1    2    0    0  0.76606651262E+02  0.46688969714E+01 -0.11688046634E+04  0.11738499558E+04  0.77000000000E+02 0.  0.
   -5000001    1    1    2    0    0 -0.76606651262E+02 -0.46688969714E+01 -0.37904085896E+03  0.39432391555E+03  0.77000000000E+02 0.  0.
<mgrwt>
<rscale>  0 0.25168141E+03</rscale>
<asrwt>0</asrwt>
<pdfrwt beam="1">  1        2 0.22257266E+00 0.25168141E+03</pdfrwt>
<pdfrwt beam="2">  1       -2 0.14520259E-02 0.25168141E+03</pdfrwt>
<totfact> 0.17973009E+04</totfact>
</mgrwt>
</event>
<event>
 4    1  0.6853809E-004  0.6792659E+03  0.7818608E-02  0.9753362E-01
          2   -1    0    0  501    0  0.00000000000E+00  0.00000000000E+00  0.45814512338E+03  0.45814512339E+03  0.25500000000E-02 0.  1.
         -2   -1    0    0    0  501 -0.00000000000E+00 -0.00000000000E+00 -0.25177732064E+03  0.25177732065E+03  0.25500000000E-02 0. -1.
    5000001    1    1    2    0    0  0.22185632721E+03 -0.24264263102E+03  0.65127964619E+02  0.34389871778E+03  0.77000000000E+02 0.  0.
   -5000001    1    1    2    0    0 -0.22185632721E+03  0.24264263102E+03  0.14123983812E+03  0.36602372626E+03  0.77000000000E+02 0.  0.
<mgrwt>
<rscale>  0 0.67926593E+03</rscale>
<asrwt>0</asrwt>
<pdfrwt beam="1">  1        2 0.65449304E-01 0.67926593E+03</pdfrwt>
<pdfrwt beam="2">  1       -2 0.35968189E-01 0.67926593E+03</pdfrwt>
<totfact> 0.54251243E+02</totfact>
</mgrwt>
</event>
<event>
 4    1  0.6853809E-004  0.2070948E+03  0.7818608E-02  0.1143887E+00
         -2   -1    0    0    0  501 -0.00000000000E+00  0.00000000000E+00  0.59216347350E+01  0.59216352841E+01  0.25500000000E-02 0. -1.
          2   -1    0    0  501    0  0.00000000000E+00 -0.00000000000E+00 -0.18106600076E+04  0.18106600076E+04  0.25500000000E-02 0.  1.
    5000001    1    1    2    0    0 -0.15721974131E+02  0.49083647355E+02 -0.49690203244E+03  0.50546712529E+03  0.77000000000E+02 0.  0.
   -5000001    1    1    2    0    0  0.15721974131E+02 -0.49083647355E+02 -0.13078363404E+04  0.13111145176E+04  0.77000000000E+02 0.  0.
<mgrwt>
<rscale>  0 0.20709484E+03</rscale>
<asrwt>0</asrwt>
<pdfrwt beam="1">  1        2 0.25866536E+00 0.20709484E+03</pdfrwt>
<pdfrwt beam="2">  1       -2 0.84594901E-03 0.20709484E+03</pdfrwt>
<totfact> 0.29292534E+04</totfact>
</mgrwt>
</event>
<event>
 4    1  0.6853809E-004  0.1814291E+03  0.7818608E-02  0.1166427E+00
         -2   -1    0    0    0  501 -0.00000000000E+00  0.00000000000E+00  0.14584437032E+02  0.14584437255E+02  0.25500000000E-02 0. -1.
          2   -1    0    0  501    0  0.00000000000E+00 -0.00000000000E+00 -0.56424024473E+03  0.56424024474E+03  0.25500000000E-02 0.  1.
    5000001    1    1    2    0    0 -0.11315855418E+02  0.18823819784E+02 -0.13880681267E+03  0.16024579876E+03  0.77000000000E+02 0.  0.
   -5000001    1    1    2    0    0  0.11315855418E+02 -0.18823819784E+02 -0.41084899503E+03  0.41857888323E+03  0.77000000000E+02 0.  0.
<mgrwt>
<rscale>  0 0.18142906E+03</rscale>
<asrwt>0</asrwt>
<pdfrwt beam="1">  1        2 0.80605736E-01 0.18142906E+03</pdfrwt>
<pdfrwt beam="2">  1       -2 0.20834914E-02 0.18142906E+03</pdfrwt>
<totfact> 0.41153296E+04</totfact>
</mgrwt>
</event>
<event>
 4    1  0.6853809E-004  0.7951526E+03  0.7818608E-02  0.9567060E-01
          2   -1    0    0  501    0  0.00000000000E+00  0.00000000000E+00  0.22676000345E+03  0.22676000346E+03  0.25500000000E-02 0.  1.
         -2   -1    0    0    0  501 -0.00000000000E+00 -0.00000000000E+00 -0.69706707385E+03  0.69706707385E+03  0.25500000000E-02 0. -1.
    5000001    1    1    2    0    0  0.11226447116E+03  0.37229132807E+03 -0.19965060169E+03  0.44383950612E+03  0.77000000000E+02 0.  0.
   -5000001    1    1    2    0    0 -0.11226447116E+03 -0.37229132807E+03 -0.27065646871E+03  0.47998757119E+03  0.77000000000E+02 0.  0.
<mgrwt>
<rscale>  0 0.79515264E+03</rscale>
<asrwt>0</asrwt>
<pdfrwt beam="1">  1        2 0.32394287E-01 0.79515264E+03</pdfrwt>
<pdfrwt beam="2">  1       -2 0.99581010E-01 0.79515264E+03</pdfrwt>
<totfact> 0.13713784E+02</totfact>
</mgrwt>
</event>
<event>
 4    1  0.6853809E-004  0.2550510E+03  0.7818608E-02  0.1110154E+00
         -2   -1    0    0    0  501 -0.00000000000E+00  0.00000000000E+00  0.51326895948E+01  0.51326902283E+01  0.25500000000E-02 0. -1.
          2   -1    0    0  501    0  0.00000000000E+00 -0.00000000000E+00 -0.31684656009E+04  0.31684656009E+04  0.25500000000E-02 0.  1.
    5000001    1    1    2    0    0  0.46116179378E+02 -0.72294137639E+02 -0.90234190355E+03  0.90967194924E+03  0.77000000000E+02 0.  0.
   -5000001    1    1    2    0    0 -0.46116179378E+02  0.72294137639E+02 -0.22609910078E+04  0.22639263419E+04  0.77000000000E+02 0.  0.
<mgrwt>
<rscale>  0 0.25505099E+03</rscale>
<asrwt>0</asrwt>
<pdfrwt beam="1">  1        2 0.45263669E+00 0.25505099E+03</pdfrwt>
<pdfrwt beam="2">  1       -2 0.73324345E-03 0.25505099E+03</pdfrwt>
<totfact> 0.75403149E+03</totfact>
</mgrwt>
</event>
<event>
 4    1  0.6853809E-004  0.1937199E+03  0.7818608E-02  0.1155148E+00
          2   -1    0    0  501    0  0.00000000000E+00  0.00000000000E+00  0.81458738073E+02  0.81458738113E+02  0.25500000000E-02 0.  1.
         -2   -1    0    0    0  501 -0.00000000000E+00 -0.00000000000E+00 -0.11517301335E+03  0.11517301338E+03  0.25500000000E-02 0. -1.
    5000001    1    1    2    0    0  0.56636776036E+02 -0.14951819218E+02 -0.12143299283E+02  0.97507645932E+02  0.77000000000E+02 0.  0.
   -5000001    1    1    2    0    0 -0.56636776036E+02  0.14951819218E+02 -0.21570975994E+02  0.99124105560E+02  0.77000000000E+02 0.  0.
<mgrwt>
<rscale>  0 0.19371988E+03</rscale>
<asrwt>0</asrwt>
<pdfrwt beam="1">  1        2 0.11636963E-01 0.19371988E+03</pdfrwt>
<pdfrwt beam="2">  1       -2 0.16453288E-01 0.19371988E+03</pdfrwt>
<totfact> 0.14955830E+04</totfact>
</mgrwt>
</event>
<event>
 4    1  0.6853809E-004  0.2182210E+03  0.7818608E-02  0.1135216E+00
         -2   -1    0    0    0  501 -0.00000000000E+00  0.00000000000E+00  0.91255100567E+02  0.91255100602E+02  0.25500000000E-02 0. -1.
          2   -1    0    0  501    0  0.00000000000E+00 -0.00000000000E+00 -0.13045954438E+03  0.13045954441E+03  0.25500000000E-02 0.  1.
    5000001    1    1    2    0    0 -0.46574968746E+01 -0.68122686263E+02  0.17223138423E+02  0.10434571940E+03  0.77000000000E+02 0.  0.
   -5000001    1    1    2    0    0  0.46574968746E+01  0.68122686263E+02 -0.56427582241E+02  0.11736892561E+03  0.77000000000E+02 0.  0.
<mgrwt>
<rscale>  0 0.21822098E+03</rscale>
<asrwt>0</asrwt>
<pdfrwt beam="1">  1        2 0.18637078E-01 0.21822098E+03</pdfrwt>
<pdfrwt beam="2">  1       -2 0.13036443E-01 0.21822098E+03</pdfrwt>
<totfact> 0.12659164E+04</totfact>
</mgrwt>
</event>
<event>
 4    1  0.6853809E-004  0.2345829E+03  0.7818608E-02  0.1123455E+00
          2   -1    0    0  501    0  0.00000000000E+00  0.00000000000E+00  0.19192779990E+03  0.19192779991E+03  0.25500000000E-02 0.  1.
         -2   -1    0    0    0  501 -0.00000000000E+00 -0.00000000000E+00 -0.71679465567E+02  0.71679465613E+02  0.25500000000E-02 0. -1.
    5000001    1    1    2    0    0 -0.68995729954E+02  0.53382185811E+02  0.43524400480E+02  0.12423140485E+03  0.77000000000E+02 0.  0.
   -5000001    1    1    2    0    0  0.68995729954E+02 -0.53382185811E+02  0.76723933848E+02  0.13937586068E+03  0.77000000000E+02 0.  0.
<mgrwt>
<rscale>  0 0.23458288E+03</rscale>
<asrwt>0</asrwt>
<pdfrwt beam="1">  1        2 0.27418257E-01 0.23458288E+03</pdfrwt>
<pdfrwt beam="2">  1       -2 0.10239924E-01 0.23458288E+03</pdfrwt>
<totfact> 0.12128321E+04</totfact>
</mgrwt>
</event>
<event>
 4    1  0.6853809E-004  0.2212922E+03  0.7818608E-02  0.1132923E+00
          2   -1    0    0  501    0  0.00000000000E+00  0.00000000000E+00  0.75934662699E+03  0.75934662700E+03  0.25500000000E-02 0.  1.
         -2   -1    0    0    0  501 -0.00000000000E+00 -0.00000000000E+00 -0.16122496375E+02  0.16122496576E+02  0.25500000000E-02 0. -1.
    5000001    1    1    2    0    0 -0.50898426165E+02  0.59087380620E+02  0.31828313019E+03  0.33662311166E+03  0.77000000000E+02 0.  0.
   -5000001    1    1    2    0    0  0.50898426165E+02 -0.59087380620E+02  0.42494100042E+03  0.43884601192E+03  0.77000000000E+02 0.  0.
<mgrwt>
<rscale>  0 0.22129224E+03</rscale>
<asrwt>0</asrwt>
<pdfrwt beam="1">  1        2 0.10847808E+00 0.22129224E+03</pdfrwt>
<pdfrwt beam="2">  1       -2 0.23032141E-02 0.22129224E+03</pdfrwt>
<totfact> 0.25582209E+04</totfact>
</mgrwt>
</event>
<event>
 4    1  0.6853809E-004  0.3739836E+03  0.7818608E-02  0.1053180E+00
          2   -1    0    0  501    0  0.00000000000E+00  0.00000000000E+00  0.35535998232E+03  0.35535998233E+03  0.25500000000E-02 0.  1.
         -2   -1    0    0    0  501 -0.00000000000E+00 -0.00000000000E+00 -0.98395791362E+02  0.98395791395E+02  0.25500000000E-02 0. -1.
    5000001    1    1    2    0    0 -0.11711728475E+03  0.84804976781E+02  0.19092226555E+02  0.16492985051E+03  0.77000000000E+02 0.  0.
   -5000001    1    1    2    0    0  0.11711728475E+03 -0.84804976781E+02  0.23787196440E+03  0.28882592321E+03  0.77000000000E+02 0.  0.
<mgrwt>
<rscale>  0 0.37398356E+03</rscale>
<asrwt>0</asrwt>
<pdfrwt beam="1">  1        2 0.50765711E-01 0.37398356E+03</pdfrwt>
<pdfrwt beam="2">  1       -2 0.14056542E-01 0.37398356E+03</pdfrwt>
<totfact> 0.37793814E+03</totfact>
</mgrwt>
</event>
<event>
 4    1  0.6853809E-004  0.5093127E+03  0.7818608E-02  0.1011376E+00
         -2   -1    0    0    0  501 -0.00000000000E+00  0.00000000000E+00  0.11181156844E+03  0.11181156847E+03  0.25500000000E-02 0. -1.
          2   -1    0    0  501    0  0.00000000000E+00 -0.00000000000E+00 -0.57999240978E+03  0.57999240979E+03  0.25500000000E-02 0.  1.
    5000001    1    1    2    0    0 -0.21532864764E+03  0.65330084496E+02 -0.11044391028E+03  0.26222376656E+03  0.77000000000E+02 0.  0.
   -5000001    1    1    2    0    0  0.21532864764E+03 -0.65330084496E+02 -0.35773693107E+03  0.42958021170E+03  0.77000000000E+02 0.  0.
<mgrwt>
<rscale>  0 0.50931272E+03</rscale>
<asrwt>0</asrwt>
<pdfrwt beam="1">  1        2 0.82856057E-01 0.50931272E+03</pdfrwt>
<pdfrwt beam="2">  1       -2 0.15973082E-01 0.50931272E+03</pdfrwt>
<totfact> 0.17731833E+03</totfact>
</mgrwt>
</event>
<event>
 4    1  0.6853809E-004  0.2654278E+03  0.7818608E-02  0.1103925E+00
         -2   -1    0    0    0  501 -0.00000000000E+00  0.00000000000E+00  0.27727968060E+02  0.27727968177E+02  0.25500000000E-02 0. -1.
          2   -1    0    0  501    0  0.00000000000E+00 -0.00000000000E+00 -0.63520638018E+03  0.63520638019E+03  0.25500000000E-02 0.  1.
    5000001    1    1    2    0    0 -0.10732806269E+03 -0.43691189301E+01 -0.33387446773E+03  0.35908155403E+03  0.77000000000E+02 0.  0.
   -5000001    1    1    2    0    0  0.10732806269E+03  0.43691189301E+01 -0.27360394439E+03  0.30385279434E+03  0.77000000000E+02 0.  0.
<mgrwt>
<rscale>  0 0.26542782E+03</rscale>
<asrwt>0</asrwt>
<pdfrwt beam="1">  1        2 0.90743759E-01 0.26542782E+03</pdfrwt>
<pdfrwt beam="2">  1       -2 0.39611387E-02 0.26542782E+03</pdfrwt>
<totfact> 0.14256019E+04</totfact>
</mgrwt>
</event>
<event>
 4    1  0.6853809E-004  0.4461927E+03  0.7818608E-02  0.1028864E+00
         -2   -1    0    0    0  501 -0.00000000000E+00  0.00000000000E+00  0.30111323010E+02  0.30111323118E+02  0.25500000000E-02 0. -1.
          2   -1    0    0  501    0  0.00000000000E+00 -0.00000000000E+00 -0.16529326821E+04  0.16529326821E+04  0.25500000000E-02 0.  1.
    5000001    1    1    2    0    0 -0.15737899386E+03 -0.11616555400E+03 -0.10931879029E+04  0.11132166791E+04  0.77000000000E+02 0.  0.
   -5000001    1    1    2    0    0  0.15737899386E+03  0.11616555400E+03 -0.52963345621E+03  0.56982732611E+03  0.77000000000E+02 0.  0.
<mgrwt>
<rscale>  0 0.44619274E+03</rscale>
<asrwt>0</asrwt>
<pdfrwt beam="1">  1        2 0.23613318E+00 0.44619274E+03</pdfrwt>
<pdfrwt beam="2">  1       -2 0.43016186E-02 0.44619274E+03</pdfrwt>
<totfact> 0.32165867E+03</totfact>
</mgrwt>
</event>
<event>
 4    1  0.6853809E-004  0.1675202E+03  0.7818608E-02  0.1180459E+00
         -2   -1    0    0    0  501 -0.00000000000E+00  0.00000000000E+00  0.31502154676E+01  0.31502164997E+01  0.25500000000E-02 0. -1.
          2   -1    0    0  501    0  0.00000000000E+00 -0.00000000000E+00 -0.22270704162E+04  0.22270704162E+04  0.25500000000E-02 0.  1.
    5000001    1    1    2    0    0 -0.31582740865E+02 -0.45503149625E+01 -0.10017115454E+04  0.10051732164E+04  0.77000000000E+02 0.  0.
   -5000001    1    1    2    0    0  0.31582740865E+02  0.45503149625E+01 -0.12222086553E+04  0.12250474163E+04  0.77000000000E+02 0.  0.
<mgrwt>
<rscale>  0 0.16752018E+03</rscale>
<asrwt>0</asrwt>
<pdfrwt beam="1">  1        2 0.31815191E+00 0.16752018E+03</pdfrwt>
<pdfrwt beam="2">  1       -2 0.45003228E-03 0.16752018E+03</pdfrwt>
<totfact> 0.44998556E+04</totfact>
</mgrwt>
</event>
<event>
 4    1  0.6853809E-004  0.2505780E+03  0.7818608E-02  0.1112940E+00
         -2   -1    0    0    0  501 -0.00000000000E+00  0.00000000000E+00  0.21405719977E+02  0.21405720129E+02  0.25500000000E-02 0. -1.
          2   -1    0    0  501    0  0.00000000000E+00 -0.00000000000E+00 -0.73332397603E+03  0.73332397603E+03  0.25500000000E-02 0.  1.
    5000001    1    1    2    0    0 -0.57471598892E+02 -0.74520469224E+02 -0.26499792981E+03  0.29156335129E+03  0.77000000000E+02 0.  0.
   -5000001    1    1    2    0    0  0.57471598892E+02  0.74520469224E+02 -0.44692032624E+03  0.46316634487E+03  0.77000000000E+02 0.  0.
<mgrwt>
<rscale>  0 0.25057795E+03</rscale>
<asrwt>0</asrwt>
<pdfrwt beam="1">  1        2 0.10476055E+00 0.25057795E+03</pdfrwt>
<pdfrwt beam="2">  1       -2 0.30579605E-02 0.25057795E+03</pdfrwt>
<totfact> 0.17673736E+04</totfact>
</mgrwt>
</event>
<event>
 4    1  0.6853809E-004  0.4469875E+03  0.7818608E-02  0.1028624E+00
         -2   -1    0    0    0  501 -0.00000000000E+00  0.00000000000E+00  0.22196264222E+02  0.22196264368E+02  0.25500000000E-02 0. -1.
          2   -1    0    0  501    0  0.00000000000E+00 -0.00000000000E+00 -0.22503538307E+04  0.22503538307E+04  0.25500000000E-02 0.  1.
    5000001    1    1    2    0    0  0.19493461257E+03  0.66000680108E+02 -0.13215254139E+04  0.13396693668E+04  0.77000000000E+02 0.  0.
   -5000001    1    1    2    0    0 -0.19493461257E+03 -0.66000680108E+02 -0.90663215262E+03  0.93288072824E+03  0.77000000000E+02 0.  0.
<mgrwt>
<rscale>  0 0.44698746E+03</rscale>
<asrwt>0</asrwt>
<pdfrwt beam="1">  1        2 0.32147897E+00 0.44698746E+03</pdfrwt>
<pdfrwt beam="2">  1       -2 0.31708963E-02 0.44698746E+03</pdfrwt>
<totfact> 0.25751125E+03</totfact>
</mgrwt>
</event>
<event>
 4    1  0.6853809E-004  0.3983837E+03  0.7818608E-02  0.1044341E+00
         -2   -1    0    0    0  501 -0.00000000000E+00  0.00000000000E+00  0.13700626088E+02  0.13700626325E+02  0.25500000000E-02 0. -1.
          2   -1    0    0  501    0  0.00000000000E+00 -0.00000000000E+00 -0.28960276278E+04  0.28960276278E+04  0.25500000000E-02 0.  1.
    5000001    1    1    2    0    0 -0.79426083904E+02 -0.13618661427E+03 -0.75238854184E+03  0.77257544266E+03  0.77000000000E+02 0.  0.
   -5000001    1    1    2    0    0  0.79426083904E+02  0.13618661427E+03 -0.21299384599E+04  0.21371528115E+04  0.77000000000E+02 0.  0.
<mgrwt>
<rscale>  0 0.39838369E+03</rscale>
<asrwt>0</asrwt>
<pdfrwt beam="1">  1        2 0.41371784E+00 0.39838369E+03</pdfrwt>
<pdfrwt beam="2">  1       -2 0.19572342E-02 0.39838369E+03</pdfrwt>
<totfact> 0.24869941E+03</totfact>
</mgrwt>
</event>
<event>
 4    1  0.6853809E-004  0.3622810E+03  0.7818608E-02  0.1057684E+00
          2   -1    0    0  501    0  0.00000000000E+00  0.00000000000E+00  0.18975609739E+04  0.18975609739E+04  0.25500000000E-02 0.  1.
         -2   -1    0    0    0  501 -0.00000000000E+00 -0.00000000000E+00 -0.17291611472E+02  0.17291611660E+02  0.25500000000E-02 0. -1.
    5000001    1    1    2    0    0  0.13460444998E+03 -0.73910703297E+02  0.63642334641E+03  0.65920014098E+03  0.77000000000E+02 0.  0.
   -5000001    1    1    2    0    0 -0.13460444998E+03  0.73910703297E+02  0.12438460161E+04  0.12556524446E+04  0.77000000000E+02 0.  0.
<mgrwt>
<rscale>  0 0.36228104E+03</rscale>
<asrwt>0</asrwt>
<pdfrwt beam="1">  1        2 0.27108018E+00 0.36228104E+03</pdfrwt>
<pdfrwt beam="2">  1       -2 0.24702298E-02 0.36228104E+03</pdfrwt>
<totfact> 0.56145005E+03</totfact>
</mgrwt>
</event>
<event>
 4    1  0.6853809E-004  0.2173896E+03  0.7818608E-02  0.1135844E+00
         -2   -1    0    0    0  501 -0.00000000000E+00  0.00000000000E+00  0.47191194325E+01  0.47191201214E+01  0.25500000000E-02 0. -1.
          2   -1    0    0  501    0  0.00000000000E+00 -0.00000000000E+00 -0.25035524264E+04  0.25035524264E+04  0.25500000000E-02 0.  1.
    5000001    1    1    2    0    0  0.52472727759E+02  0.50662527773E+02 -0.15237927125E+04  0.15274793975E+04  0.77000000000E+02 0.  0.
   -5000001    1    1    2    0    0 -0.52472727759E+02 -0.50662527773E+02 -0.97504059441E+03  0.98079214905E+03  0.77000000000E+02 0.  0.
<mgrwt>
<rscale>  0 0.21738964E+03</rscale>
<asrwt>0</asrwt>
<pdfrwt beam="1">  1        2 0.35764949E+00 0.21738964E+03</pdfrwt>
<pdfrwt beam="2">  1       -2 0.67416158E-03 0.21738964E+03</pdfrwt>
<totfact> 0.18735137E+04</totfact>
</mgrwt>
</event>
<event>
 4    1  0.6853809E-004  0.1985353E+03  0.7818608E-02  0.1150981E+00
          2   -1    0    0  501    0  0.00000000000E+00  0.00000000000E+00  0.89772446864E+03  0.89772446864E+03  0.25500000000E-02 0.  1.
         -2   -1    0    0    0  501 -0.00000000000E+00 -0.00000000000E+00 -0.10976718478E+02  0.10976718774E+02  0.25500000000E-02 0. -1.
    5000001    1    1    2    0    0  0.51584591059E+02 -0.24194221589E+02  0.32413042123E+03  0.33798795890E+03  0.77000000000E+02 0.  0.
   -5000001    1    1    2    0    0 -0.51584591059E+02  0.24194221589E+02  0.56261732893E+03  0.57071322852E+03  0.77000000000E+02 0.  0.
<mgrwt>
<rscale>  0 0.19853533E+03</rscale>
<asrwt>0</asrwt>
<pdfrwt beam="1">  1        2 0.12824638E+00 0.19853533E+03</pdfrwt>
<pdfrwt beam="2">  1       -2 0.15681023E-02 0.19853533E+03</pdfrwt>
<totfact> 0.36167446E+04</totfact>
</mgrwt>
</event>
<event>
 4    1  0.6853809E-004  0.1756050E+03  0.7818608E-02  0.1172126E+00
         -2   -1    0    0    0  501 -0.00000000000E+00  0.00000000000E+00  0.34169313644E+01  0.34169323159E+01  0.25500000000E-02 0. -1.
          2   -1    0    0  501    0  0.00000000000E+00 -0.00000000000E+00 -0.22561990565E+04  0.22561990565E+04  0.25500000000E-02 0.  1.
    5000001    1    1    2    0    0  0.58186847192E+01 -0.26481450205E+02 -0.71039622302E+03  0.71507126776E+03  0.77000000000E+02 0.  0.
   -5000001    1    1    2    0    0 -0.58186847192E+01  0.26481450205E+02 -0.15423859021E+04  0.15445447210E+04  0.77000000000E+02 0.  0.
<mgrwt>
<rscale>  0 0.17560499E+03</rscale>
<asrwt>0</asrwt>
<pdfrwt beam="1">  1        2 0.32231320E+00 0.17560499E+03</pdfrwt>
<pdfrwt beam="2">  1       -2 0.48813456E-03 0.17560499E+03</pdfrwt>
<totfact> 0.38919092E+04</totfact>
</mgrwt>
</event>
<event>
 4    1  0.6853809E-004  0.2073409E+03  0.7818608E-02  0.1143689E+00
          2   -1    0    0  501    0  0.00000000000E+00  0.00000000000E+00  0.63476329425E+03  0.63476329426E+03  0.25500000000E-02 0.  1.
         -2   -1    0    0    0  501 -0.00000000000E+00 -0.00000000000E+00 -0.16931608954E+02  0.16931609146E+02  0.25500000000E-02 0. -1.
    5000001    1    1    2    0    0 -0.54508406923E+02  0.15708415942E+02  0.18316625344E+03  0.20663203323E+03  0.77000000000E+02 0.  0.
   -5000001    1    1    2    0    0  0.54508406923E+02 -0.15708415942E+02  0.43466543186E+03  0.44506287018E+03  0.77000000000E+02 0.  0.
<mgrwt>
<rscale>  0 0.20734092E+03</rscale>
<asrwt>0</asrwt>
<pdfrwt beam="1">  1        2 0.90680463E-01 0.20734092E+03</pdfrwt>
<pdfrwt beam="2">  1       -2 0.24188015E-02 0.20734092E+03</pdfrwt>
<totfact> 0.29260004E+04</totfact>
</mgrwt>
</event>
<event>
 4    1  0.6853809E-004  0.2511777E+03  0.7818608E-02  0.1112563E+00
         -2   -1    0    0    0  501 -0.00000000000E+00  0.00000000000E+00  0.17793378102E+04  0.17793378102E+04  0.25500000000E-02 0. -1.
          2   -1    0    0  501    0  0.00000000000E+00 -0.00000000000E+00 -0.88642879268E+01  0.88642882936E+01  0.25500000000E-02 0.  1.
    5000001    1    1    2    0    0  0.49057642251E+02 -0.54770945922E+02  0.41101351726E+03  0.42457934495E+03  0.77000000000E+02 0.  0.
   -5000001    1    1    2    0    0 -0.49057642251E+02  0.54770945922E+02  0.13594600050E+04  0.13636227536E+04  0.77000000000E+02 0.  0.
<mgrwt>
<rscale>  0 0.25117773E+03</rscale>
<asrwt>0</asrwt>
<pdfrwt beam="1">  1        2 0.12663262E-02 0.25117773E+03</pdfrwt>
<pdfrwt beam="2">  1       -2 0.25419125E+00 0.25117773E+03</pdfrwt>
<totfact> 0.70104259E+02</totfact>
</mgrwt>
</event>
<event>
 4    1  0.6853809E-004  0.3647672E+03  0.7818608E-02  0.1056712E+00
         -2   -1    0    0    0  501 -0.00000000000E+00  0.00000000000E+00  0.56517031032E+02  0.56517031089E+02  0.25500000000E-02 0. -1.
          2   -1    0    0  501    0  0.00000000000E+00 -0.00000000000E+00 -0.58856190952E+03  0.58856190952E+03  0.25500000000E-02 0.  1.
    5000001    1    1    2    0    0 -0.16510482017E+03  0.71529950189E+01 -0.27468698203E+03  0.32968576718E+03  0.77000000000E+02 0.  0.
   -5000001    1    1    2    0    0  0.16510482017E+03 -0.71529950189E+01 -0.25735789646E+03  0.31539317344E+03  0.77000000000E+02 0.  0.
<mgrwt>
<rscale>  0 0.36476717E+03</rscale>
<asrwt>0</asrwt>
<pdfrwt beam="1">  1        2 0.84080269E-01 0.36476717E+03</pdfrwt>
<pdfrwt beam="2">  1       -2 0.80738619E-02 0.36476717E+03</pdfrwt>
<totfact> 0.52702175E+03</totfact>
</mgrwt>
</event>
<event>
 4    1  0.6853809E-004  0.1860152E+03  0.7818608E-02  0.1162105E+00
         -2   -1    0    0    0  501 -0.00000000000E+00  0.00000000000E+00  0.21159174299E+02  0.21159174453E+02  0.25500000000E-02 0. -1.
          2   -1    0    0  501    0  0.00000000000E+00 -0.00000000000E+00 -0.40882553712E+03  0.40882553713E+03  0.25500000000E-02 0.  1.
    5000001    1    1    2    0    0 -0.20297547465E+01 -0.48708623212E+02 -0.15091278861E+03  0.17629611353E+03  0.77000000000E+02 0.  0.
   -5000001    1    1    2    0    0  0.20297547465E+01  0.48708623212E+02 -0.23675357422E+03  0.25368859806E+03  0.77000000000E+02 0.  0.
<mgrwt>
<rscale>  0 0.18601517E+03</rscale>
<asrwt>0</asrwt>
<pdfrwt beam="1">  1        2 0.58403643E-01 0.18601517E+03</pdfrwt>
<pdfrwt beam="2">  1       -2 0.30227395E-02 0.18601517E+03</pdfrwt>
<totfact> 0.33929832E+04</totfact>
</mgrwt>
</event>
<event>
 4    1  0.6853809E-004  0.2882802E+03  0.7818608E-02  0.1091250E+00
          2   -1    0    0  501    0  0.00000000000E+00  0.00000000000E+00  0.22007257327E+04  0.22007257327E+04  0.25500000000E-02 0.  1.
         -2   -1    0    0    0  501 -0.00000000000E+00 -0.00000000000E+00 -0.94406912642E+01  0.94406916086E+01  0.25500000000E-02 0. -1.
    5000001    1    1    2    0    0  0.27218355595E+02 -0.85471352463E+02  0.46337291530E+03  0.47821506627E+03  0.77000000000E+02 0.  0.
   -5000001    1    1    2    0    0 -0.27218355595E+02  0.85471352463E+02  0.17279121261E+04  0.17319513580E+04  0.77000000000E+02 0.  0.
<mgrwt>
<rscale>  0 0.28828023E+03</rscale>
<asrwt>0</asrwt>
<pdfrwt beam="1">  1        2 0.31438954E+00 0.28828023E+03</pdfrwt>
<pdfrwt beam="2">  1       -2 0.13486695E-02 0.28828023E+03</pdfrwt>
<totfact> 0.97220808E+03</totfact>
</mgrwt>
</event>
<event>
 4    1  0.6853809E-004  0.1936973E+03  0.7818608E-02  0.1155168E+00
          2   -1    0    0  501    0  0.00000000000E+00  0.00000000000E+00  0.12894883456E+04  0.12894883456E+04  0.25500000000E-02 0.  1.
         -2   -1    0    0    0  501 -0.00000000000E+00 -0.00000000000E+00 -0.72739368171E+01  0.72739372640E+01  0.25500000000E-02 0. -1.
    5000001    1    1    2    0    0 -0.32910221567E+02 -0.23332003924E+02  0.92696700907E+03  0.93103399562E+03  0.77000000000E+02 0.  0.
   -5000001    1    1    2    0    0  0.32910221567E+02  0.23332003924E+02  0.35524739967E+03  0.36572828721E+03  0.77000000000E+02 0.  0.
<mgrwt>
<rscale>  0 0.19369726E+03</rscale>
<asrwt>0</asrwt>
<pdfrwt beam="1">  1        2 0.18421257E+00 0.19369726E+03</pdfrwt>
<pdfrwt beam="2">  1       -2 0.10391341E-02 0.19369726E+03</pdfrwt>
<totfact> 0.39432541E+04</totfact>
</mgrwt>
</event>
<event>
 4    1  0.6853809E-004  0.2670920E+03  0.7818608E-02  0.1102956E+00
          2   -1    0    0  501    0  0.00000000000E+00  0.00000000000E+00  0.23725675931E+04  0.23725675931E+04  0.25500000000E-02 0.  1.
         -2   -1    0    0    0  501 -0.00000000000E+00 -0.00000000000E+00 -0.75169741932E+01  0.75169746257E+01  0.25500000000E-02 0. -1.
    5000001    1    1    2    0    0 -0.79521437281E+02 -0.58053032829E+02  0.16016046645E+04  0.16064744987E+04  0.77000000000E+02 0.  0.
   -5000001    1    1    2    0    0  0.79521437281E+02  0.58053032829E+02  0.76344595437E+03  0.77361006900E+03  0.77000000000E+02 0.  0.
<mgrwt>
<rscale>  0 0.26709197E+03</rscale>
<asrwt>0</asrwt>
<pdfrwt beam="1">  1        2 0.33893861E+00 0.26709197E+03</pdfrwt>
<pdfrwt beam="2">  1       -2 0.10738523E-02 0.26709197E+03</pdfrwt>
<totfact> 0.11145356E+04</totfact>
</mgrwt>
</event>
<event>
 4    1  0.6853809E-004  0.1804553E+03  0.7818608E-02  0.1167363E+00
         -2   -1    0    0    0  501 -0.00000000000E+00  0.00000000000E+00  0.27658522074E+02  0.27658522191E+02  0.25500000000E-02 0. -1.
          2   -1    0    0  501    0  0.00000000000E+00 -0.00000000000E+00 -0.29434072418E+03  0.29434072419E+03  0.25500000000E-02 0.  1.
    5000001    1    1    2    0    0  0.30165595055E+02  0.91004763235E+01 -0.71034916174E+02  0.10939717140E+03  0.77000000000E+02 0.  0.
   -5000001    1    1    2    0    0 -0.30165595055E+02 -0.91004763235E+01 -0.19564728593E+03  0.21260207498E+03  0.77000000000E+02 0.  0.
<mgrwt>
<rscale>  0 0.18045531E+03</rscale>
<asrwt>0</asrwt>
<pdfrwt beam="1">  1        2 0.42048673E-01 0.18045531E+03</pdfrwt>
<pdfrwt beam="2">  1       -2 0.39512176E-02 0.18045531E+03</pdfrwt>
<totfact> 0.32290383E+04</totfact>
</mgrwt>
</event>
<event>
 4    1  0.6853809E-004  0.2894024E+03  0.7818608E-02  0.1090662E+00
         -2   -1    0    0    0  501 -0.00000000000E+00  0.00000000000E+00  0.24179905728E+02  0.24179905863E+02  0.25500000000E-02 0. -1.
          2   -1    0    0  501    0  0.00000000000E+00 -0.00000000000E+00 -0.86594368386E+03  0.86594368387E+03  0.25500000000E-02 0.  1.
    5000001    1    1    2    0    0 -0.50054644064E+02  0.76880208407E+02 -0.17113332806E+03  0.20888190398E+03  0.77000000000E+02 0.  0.
   -5000001    1    1    2    0    0  0.50054644064E+02 -0.76880208407E+02 -0.67063045007E+03  0.68124168575E+03  0.77000000000E+02 0.  0.
<mgrwt>
<rscale>  0 0.28940240E+03</rscale>
<asrwt>0</asrwt>
<pdfrwt beam="1">  1        2 0.12370622E+00 0.28940240E+03</pdfrwt>
<pdfrwt beam="2">  1       -2 0.34542728E-02 0.28940240E+03</pdfrwt>
<totfact> 0.12071686E+04</totfact>
</mgrwt>
</event>
<event>
 4    1  0.6853809E-004  0.2264465E+03  0.7818608E-02  0.1129166E+00
          2   -1    0    0  501    0  0.00000000000E+00  0.00000000000E+00  0.25805451947E+03  0.25805451948E+03  0.25500000000E-02 0.  1.
         -2   -1    0    0    0  501 -0.00000000000E+00 -0.00000000000E+00 -0.49677497756E+02  0.49677497822E+02  0.25500000000E-02 0. -1.
    5000001    1    1    2    0    0 -0.51342449977E+02  0.51081698053E+02  0.15930801866E+03  0.19118951816E+03  0.77000000000E+02 0.  0.
   -5000001    1    1    2    0    0  0.51342449977E+02 -0.51081698053E+02  0.49069003054E+02  0.11654249914E+03  0.77000000000E+02 0.  0.
<mgrwt>
<rscale>  0 0.22644649E+03</rscale>
<asrwt>0</asrwt>
<pdfrwt beam="1">  1        2 0.36864931E-01 0.22644649E+03</pdfrwt>
<pdfrwt beam="2">  1       -2 0.70967854E-02 0.22644649E+03</pdfrwt>
<totfact> 0.15561874E+04</totfact>
</mgrwt>
</event>
<event>
 4    1  0.6853809E-004  0.3594728E+03  0.7818608E-02  0.1058793E+00
         -2   -1    0    0    0  501 -0.00000000000E+00  0.00000000000E+00  0.70736884426E+03  0.70736884426E+03  0.25500000000E-02 0. -1.
          2   -1    0    0  501    0  0.00000000000E+00 -0.00000000000E+00 -0.45669501009E+02  0.45669501080E+02  0.25500000000E-02 0.  1.
    5000001    1    1    2    0    0  0.15212772017E+02  0.16168725905E+03  0.33380035100E+03  0.37911195246E+03  0.77000000000E+02 0.  0.
   -5000001    1    1    2    0    0 -0.15212772017E+02 -0.16168725905E+03  0.32789899225E+03  0.37392639288E+03  0.77000000000E+02 0.  0.
<mgrwt>
<rscale>  0 0.35947285E+03</rscale>
<asrwt>0</asrwt>
<pdfrwt beam="1">  1        2 0.65242153E-02 0.35947285E+03</pdfrwt>
<pdfrwt beam="2">  1       -2 0.10105268E+00 0.35947285E+03</pdfrwt>
<totfact> 0.93259653E+02</totfact>
</mgrwt>
</event>
<event>
 4    1  0.6853809E-004  0.2953767E+03  0.7818608E-02  0.1087575E+00
          2   -1    0    0  501    0  0.00000000000E+00  0.00000000000E+00  0.11171737285E+04  0.11171737285E+04  0.25500000000E-02 0.  1.
         -2   -1    0    0    0  501 -0.00000000000E+00 -0.00000000000E+00 -0.19524135806E+02  0.19524135972E+02  0.25500000000E-02 0. -1.
    5000001    1    1    2    0    0 -0.72081249549E+02  0.88129772861E+02  0.34086391764E+03  0.36753200371E+03  0.77000000000E+02 0.  0.
   -5000001    1    1    2    0    0  0.72081249549E+02 -0.88129772861E+02  0.75678567507E+03  0.76916586078E+03  0.77000000000E+02 0.  0.
<mgrwt>
<rscale>  0 0.29537672E+03</rscale>
<asrwt>0</asrwt>
<pdfrwt beam="1">  1        2 0.15959627E+00 0.29537672E+03</pdfrwt>
<pdfrwt beam="2">  1       -2 0.27891618E-02 0.29537672E+03</pdfrwt>
<totfact> 0.11770993E+04</totfact>
</mgrwt>
</event>
<event>
 4    1  0.6853809E-004  0.2731981E+03  0.7818608E-02  0.1099463E+00
          2   -1    0    0  501    0  0.00000000000E+00  0.00000000000E+00  0.78927968800E+03  0.78927968800E+03  0.25500000000E-02 0.  1.
         -2   -1    0    0    0  501 -0.00000000000E+00 -0.00000000000E+00 -0.23640925642E+02  0.23640925780E+02  0.25500000000E-02 0. -1.
    5000001    1    1    2    0    0  0.48729151935E+01  0.92373010679E+02  0.57505569351E+03  0.58751559047E+03  0.77000000000E+02 0.  0.
   -5000001    1    1    2    0    0 -0.48729151935E+01 -0.92373010679E+02  0.19058306885E+03  0.22540502331E+03  0.77000000000E+02 0.  0.
<mgrwt>
<rscale>  0 0.27319811E+03</rscale>
<asrwt>0</asrwt>
<pdfrwt beam="1">  1        2 0.11275423E+00 0.27319811E+03</pdfrwt>
<pdfrwt beam="2">  1       -2 0.33772756E-02 0.27319811E+03</pdfrwt>
<totfact> 0.13994553E+04</totfact>
</mgrwt>
</event>
<event>
 4    1  0.6853809E-004  0.3376611E+03  0.7818608E-02  0.1067796E+00
         -2   -1    0    0    0  501 -0.00000000000E+00  0.00000000000E+00  0.30863767262E+02  0.30863767367E+02  0.25500000000E-02 0. -1.
          2   -1    0    0  501    0  0.00000000000E+00 -0.00000000000E+00 -0.92353445861E+03  0.92353445861E+03  0.25500000000E-02 0.  1.
    5000001    1    1    2    0    0  0.12587117137E+03  0.62581605693E+02 -0.59629278609E+03  0.61745776851E+03  0.77000000000E+02 0.  0.
   -5000001    1    1    2    0    0 -0.12587117137E+03 -0.62581605693E+02 -0.29637790526E+03  0.33694045747E+03  0.77000000000E+02 0.  0.
<mgrwt>
<rscale>  0 0.33766109E+03</rscale>
<asrwt>0</asrwt>
<pdfrwt beam="1">  1        2 0.13193348E+00 0.33766109E+03</pdfrwt>
<pdfrwt beam="2">  1       -2 0.44091102E-02 0.33766109E+03</pdfrwt>
<totfact> 0.77192657E+03</totfact>
</mgrwt>
</event>
<event>
 4    1  0.6853809E-004  0.1848095E+03  0.7818608E-02  0.1163228E+00
          2   -1    0    0  501    0  0.00000000000E+00  0.00000000000E+00  0.22251746210E+04  0.22251746210E+04  0.25500000000E-02 0.  1.
         -2   -1    0    0    0  501 -0.00000000000E+00 -0.00000000000E+00 -0.38372904242E+01  0.38372912714E+01  0.25500000000E-02 0. -1.
    5000001    1    1    2    0    0  0.45163729734E+02 -0.17236812924E+02  0.13098680011E+04  0.13130194402E+04  0.77000000000E+02 0.  0.
   -5000001    1    1    2    0    0 -0.45163729734E+02  0.17236812924E+02  0.91146932948E+03  0.91599247201E+03  0.77000000000E+02 0.  0.
<mgrwt>
<rscale>  0 0.18480955E+03</rscale>
<asrwt>0</asrwt>
<pdfrwt beam="1">  1        2 0.31788130E+00 0.18480955E+03</pdfrwt>
<pdfrwt beam="2">  1       -2 0.54818576E-03 0.18480955E+03</pdfrwt>
<totfact> 0.34235566E+04</totfact>
</mgrwt>
</event>
<event>
 4    1  0.6853809E-004  0.3605396E+03  0.7818608E-02  0.1058370E+00
          2   -1    0    0  501    0  0.00000000000E+00  0.00000000000E+00  0.15578975866E+02  0.15578976074E+02  0.25500000000E-02 0.  1.
         -2   -1    0    0    0  501 -0.00000000000E+00 -0.00000000000E+00 -0.20859651948E+04  0.20859651948E+04  0.25500000000E-02 0. -1.
    5000001    1    1    2    0    0 -0.16003202440E+03  0.15666494321E+01 -0.12153705991E+04  0.12282782243E+04  0.77000000000E+02 0.  0.
   -5000001    1    1    2    0    0  0.16003202440E+03 -0.15666494321E+01 -0.85501561989E+03  0.87326594659E+03  0.77000000000E+02 0.  0.
<mgrwt>
<rscale>  0 0.36053960E+03</rscale>
<asrwt>0</asrwt>
<pdfrwt beam="1">  1        2 0.22255693E-02 0.36053960E+03</pdfrwt>
<pdfrwt beam="2">  1       -2 0.29799485E+00 0.36053960E+03</pdfrwt>
<totfact> 0.17680461E+02</totfact>
</mgrwt>
</event>
<event>
 4    1  0.6853809E-004  0.4377169E+03  0.7818608E-02  0.1031450E+00
          2   -1    0    0  501    0  0.00000000000E+00  0.00000000000E+00  0.61503251690E+03  0.61503251691E+03  0.25500000000E-02 0.  1.
         -2   -1    0    0    0  501 -0.00000000000E+00 -0.00000000000E+00 -0.77880487073E+02  0.77880487114E+02  0.25500000000E-02 0. -1.
    5000001    1    1    2    0    0 -0.25241859160E+02  0.20323645652E+03  0.26022595557E+03  0.33998346528E+03  0.77000000000E+02 0.  0.
   -5000001    1    1    2    0    0  0.25241859160E+02 -0.20323645652E+03  0.27692607426E+03  0.35292953874E+03  0.77000000000E+02 0.  0.
<mgrwt>
<rscale>  0 0.43771695E+03</rscale>
<asrwt>0</asrwt>
<pdfrwt beam="1">  1        2 0.87861788E-01 0.43771695E+03</pdfrwt>
<pdfrwt beam="2">  1       -2 0.11125784E-01 0.43771695E+03</pdfrwt>
<totfact> 0.30092979E+03</totfact>
</mgrwt>
</event>
<event>
 4    1  0.6853809E-004  0.2754205E+03  0.7818608E-02  0.1098217E+00
         -2   -1    0    0    0  501 -0.00000000000E+00  0.00000000000E+00  0.49788636914E+02  0.49788636979E+02  0.25500000000E-02 0. -1.
          2   -1    0    0  501    0  0.00000000000E+00 -0.00000000000E+00 -0.38089231491E+03  0.38089231492E+03  0.25500000000E-02 0.  1.
    5000001    1    1    2    0    0 -0.90568281208E+02 -0.45419342673E+02 -0.83258190199E+02  0.15207385208E+03  0.77000000000E+02 0.  0.
   -5000001    1    1    2    0    0  0.90568281208E+02  0.45419342673E+02 -0.24784548779E+03  0.27860709982E+03  0.77000000000E+02 0.  0.
<mgrwt>
<rscale>  0 0.27542047E+03</rscale>
<asrwt>0</asrwt>
<pdfrwt beam="1">  1        2 0.54413187E-01 0.27542047E+03</pdfrwt>
<pdfrwt beam="2">  1       -2 0.71126626E-02 0.27542047E+03</pdfrwt>
<totfact> 0.10308493E+04</totfact>
</mgrwt>
</event>
<event>
 4    1  0.6853809E-004  0.4434152E+03  0.7818608E-02  0.1029704E+00
         -2   -1    0    0    0  501 -0.00000000000E+00  0.00000000000E+00  0.33024083904E+02  0.33024084002E+02  0.25500000000E-02 0. -1.
          2   -1    0    0  501    0  0.00000000000E+00 -0.00000000000E+00 -0.14884370642E+04  0.14884370642E+04  0.25500000000E-02 0.  1.
    5000001    1    1    2    0    0 -0.68364409960E+02  0.18622556303E+03 -0.51420717989E+03  0.55649948493E+03  0.77000000000E+02 0.  0.
   -5000001    1    1    2    0    0  0.68364409960E+02 -0.18622556303E+03 -0.94120580041E+03  0.96496166328E+03  0.77000000000E+02 0.  0.
<mgrwt>
<rscale>  0 0.44341525E+03</rscale>
<asrwt>0</asrwt>
<pdfrwt beam="1">  1        2 0.21263382E+00 0.44341525E+03</pdfrwt>
<pdfrwt beam="2">  1       -2 0.47177272E-02 0.44341525E+03</pdfrwt>
<totfact> 0.33874215E+03</totfact>
</mgrwt>
</event>
<event>
 4    1  0.6853809E-004  0.2349956E+03  0.7818608E-02  0.1123172E+00
         -2   -1    0    0    0  501 -0.00000000000E+00  0.00000000000E+00  0.12064414537E+02  0.12064414807E+02  0.25500000000E-02 0. -1.
          2   -1    0    0  501    0  0.00000000000E+00 -0.00000000000E+00 -0.11443347817E+04  0.11443347817E+04  0.25500000000E-02 0.  1.
    5000001    1    1    2    0    0  0.67276849706E+02 -0.12747788106E+01 -0.85090970333E+03  0.85703215971E+03  0.77000000000E+02 0.  0.
   -5000001    1    1    2    0    0 -0.67276849706E+02  0.12747788106E+01 -0.28136066388E+03  0.29936703684E+03  0.77000000000E+02 0.  0.
<mgrwt>
<rscale>  0 0.23499557E+03</rscale>
<asrwt>0</asrwt>
<pdfrwt beam="1">  1        2 0.16347633E+00 0.23499557E+03</pdfrwt>
<pdfrwt beam="2">  1       -2 0.17234885E-02 0.23499557E+03</pdfrwt>
<totfact> 0.22898295E+04</totfact>
</mgrwt>
</event>
<event>
 4    1  0.6853809E-004  0.2342245E+03  0.7818608E-02  0.1123701E+00
          2   -1    0    0  501    0  0.00000000000E+00  0.00000000000E+00  0.43857189159E+03  0.43857189159E+03  0.25500000000E-02 0.  1.
         -2   -1    0    0    0  501 -0.00000000000E+00 -0.00000000000E+00 -0.31272592246E+02  0.31272592350E+02  0.25500000000E-02 0. -1.
    5000001    1    1    2    0    0 -0.65449194722E+02  0.45066171300E+02  0.12669500305E+03  0.16821171387E+03  0.77000000000E+02 0.  0.
   -5000001    1    1    2    0    0  0.65449194722E+02 -0.45066171300E+02  0.28060429629E+03  0.30163277007E+03  0.77000000000E+02 0.  0.
<mgrwt>
<rscale>  0 0.23422451E+03</rscale>
<asrwt>0</asrwt>
<pdfrwt beam="1">  1        2 0.62653124E-01 0.23422451E+03</pdfrwt>
<pdfrwt beam="2">  1       -2 0.44675134E-02 0.23422451E+03</pdfrwt>
<totfact> 0.17859541E+04</totfact>
</mgrwt>
</event>
<event>
 4    1  0.6853809E-004  0.3437055E+03  0.7818608E-02  0.1065229E+00
         -2   -1    0    0    0  501 -0.00000000000E+00  0.00000000000E+00  0.19238822710E+02  0.19238822879E+02  0.25500000000E-02 0.  1.
          2   -1    0    0  501    0  0.00000000000E+00 -0.00000000000E+00 -0.15350919096E+04  0.15350919096E+04  0.25500000000E-02 0. -1.
    5000001    1    1    2    0    0 -0.89441164919E+02 -0.10486649094E+03 -0.10648973908E+04  0.10765371131E+04  0.77000000000E+02 0.  0.
   -5000001    1    1    2    0    0  0.89441164919E+02  0.10486649094E+03 -0.45095569608E+03  0.47779361939E+03  0.77000000000E+02 0.  0.
<mgrwt>
<rscale>  0 0.34370546E+03</rscale>
<asrwt>0</asrwt>
<pdfrwt beam="1">  1        2 0.21929877E+00 0.34370546E+03</pdfrwt>
<pdfrwt beam="2">  1       -2 0.27484042E-02 0.34370546E+03</pdfrwt>
<totfact> 0.72554380E+03</totfact>
</mgrwt>
</event>
<event>
 4    1  0.6853809E-004  0.3986443E+03  0.7818608E-02  0.1044250E+00
          2   -1    0    0  501    0  0.00000000000E+00  0.00000000000E+00  0.12582957053E+03  0.12582957055E+03  0.25500000000E-02 0.  1.
         -2   -1    0    0    0  501 -0.00000000000E+00 -0.00000000000E+00 -0.31573907996E+03  0.31573907997E+03  0.25500000000E-02 0. -1.
    5000001    1    1    2    0    0  0.84479517520E+02  0.16089512809E+03 -0.64092874040E+02  0.20751127109E+03  0.77000000000E+02 0.  0.
   -5000001    1    1    2    0    0 -0.84479517520E+02 -0.16089512809E+03 -0.12581663539E+03  0.23405737943E+03  0.77000000000E+02 0.  0.
<mgrwt>
<rscale>  0 0.39864427E+03</rscale>
<asrwt>0</asrwt>
<pdfrwt beam="1">  1        2 0.17975653E-01 0.39864427E+03</pdfrwt>
<pdfrwt beam="2">  1       -2 0.45105582E-01 0.39864427E+03</pdfrwt>
<totfact> 0.14943326E+03</totfact>
</mgrwt>
</event>
<event>
 4    1  0.6853809E-004  0.2410646E+03  0.7818608E-02  0.1119086E+00
          2   -1    0    0  501    0  0.00000000000E+00  0.00000000000E+00  0.70051641809E+02  0.70051641855E+02  0.25500000000E-02 0.  1.
         -2   -1    0    0    0  501 -0.00000000000E+00 -0.00000000000E+00 -0.20739043946E+03  0.20739043947E+03  0.25500000000E-02 0. -1.
    5000001    1    1    2    0    0 -0.69398647313E+02  0.46047331571E+02 -0.21742572861E+02  0.11549142162E+03  0.77000000000E+02 0.  0.
   -5000001    1    1    2    0    0  0.69398647313E+02 -0.46047331571E+02 -0.11559622479E+03  0.16195065970E+03  0.77000000000E+02 0.  0.
<mgrwt>
<rscale>  0 0.24106465E+03</rscale>
<asrwt>0</asrwt>
<pdfrwt beam="1">  1        2 0.10007378E-01 0.24106465E+03</pdfrwt>
<pdfrwt beam="2">  1       -2 0.29627205E-01 0.24106465E+03</pdfrwt>
<totfact> 0.65958549E+03</totfact>
</mgrwt>
</event>
<event>
 4    1  0.6853809E-004  0.1890378E+03  0.7818608E-02  0.1159332E+00
         -2   -1    0    0    0  501 -0.00000000000E+00  0.00000000000E+00  0.64419303992E+01  0.64419309039E+01  0.25500000000E-02 0. -1.
          2   -1    0    0  501    0  0.00000000000E+00 -0.00000000000E+00 -0.13868243503E+04  0.13868243503E+04  0.25500000000E-02 0.  1.
    5000001    1    1    2    0    0  0.19548598510E+02 -0.38625747559E+02 -0.44235493214E+03  0.45108866320E+03  0.77000000000E+02 0.  0.
   -5000001    1    1    2    0    0 -0.19548598510E+02  0.38625747559E+02 -0.93802748772E+03  0.94217761796E+03  0.77000000000E+02 0.  0.
<mgrwt>
<rscale>  0 0.18903784E+03</rscale>
<asrwt>0</asrwt>
<pdfrwt beam="1">  1        2 0.19811757E+00 0.18903784E+03</pdfrwt>
<pdfrwt beam="2">  1       -2 0.92027669E-03 0.18903784E+03</pdfrwt>
<totfact> 0.41777798E+04</totfact>
</mgrwt>
</event>
<event>
 4    1  0.6853809E-004  0.3638919E+03  0.7818608E-02  0.1057053E+00
          2   -1    0    0  501    0  0.00000000000E+00  0.00000000000E+00  0.81249615605E+03  0.81249615606E+03  0.25500000000E-02 0.  1.
         -2   -1    0    0    0  501 -0.00000000000E+00 -0.00000000000E+00 -0.40743983321E+02  0.40743983401E+02  0.25500000000E-02 0. -1.
    5000001    1    1    2    0    0 -0.13704878321E+02  0.13244056963E+03  0.15797527123E+03  0.22048472621E+03  0.77000000000E+02 0.  0.
   -5000001    1    1    2    0    0  0.13704878321E+02 -0.13244056963E+03  0.61377690151E+03  0.63275541325E+03  0.77000000000E+02 0.  0.
<mgrwt>
<rscale>  0 0.36389191E+03</rscale>
<asrwt>0</asrwt>
<pdfrwt beam="1">  1        2 0.11607087E+00 0.36389191E+03</pdfrwt>
<pdfrwt beam="2">  1       -2 0.58205695E-02 0.36389191E+03</pdfrwt>
<totfact> 0.59619190E+03</totfact>
</mgrwt>
</event>
<event>
 4    1  0.6853809E-004  0.2041302E+03  0.7818608E-02  0.1146300E+00
          2   -1    0    0  501    0  0.00000000000E+00  0.00000000000E+00  0.37031596705E+02  0.37031596793E+02  0.25500000000E-02 0.  1.
         -2   -1    0    0    0  501 -0.00000000000E+00 -0.00000000000E+00 -0.28130790587E+03  0.28130790588E+03  0.25500000000E-02 0. -1.
    5000001    1    1    2    0    0  0.87513659888E+01 -0.64256718207E+02 -0.14836215923E+03  0.17929261706E+03  0.77000000000E+02 0.  0.
   -5000001    1    1    2    0    0 -0.87513659888E+01  0.64256718207E+02 -0.95914149938E+02  0.13904688562E+03  0.77000000000E+02 0.  0.
<mgrwt>
<rscale>  0 0.20413016E+03</rscale>
<asrwt>0</asrwt>
<pdfrwt beam="1">  1        2 0.52902283E-02 0.20413016E+03</pdfrwt>
<pdfrwt beam="2">  1       -2 0.40186843E-01 0.20413016E+03</pdfrwt>
<totfact> 0.83759185E+03</totfact>
</mgrwt>
</event>
<event>
 4    1  0.6853809E-004  0.2102743E+03  0.7818608E-02  0.1141349E+00
         -2   -1    0    0    0  501 -0.00000000000E+00  0.00000000000E+00  0.11009735922E+04  0.11009735922E+04  0.25500000000E-02 0. -1.
          2   -1    0    0  501    0  0.00000000000E+00 -0.00000000000E+00 -0.10040044973E+02  0.10040045297E+02  0.25500000000E-02 0.  1.
    5000001    1    1    2    0    0  0.45875319604E+02  0.47274028594E+02  0.39738853820E+03  0.41010490002E+03  0.77000000000E+02 0.  0.
   -5000001    1    1    2    0    0 -0.45875319604E+02 -0.47274028594E+02  0.69354500900E+03  0.70090873746E+03  0.77000000000E+02 0.  0.
<mgrwt>
<rscale>  0 0.21027434E+03</rscale>
<asrwt>0</asrwt>
<pdfrwt beam="1">  1        2 0.14342926E-02 0.21027434E+03</pdfrwt>
<pdfrwt beam="2">  1       -2 0.15728189E+00 0.21027434E+03</pdfrwt>
<totfact> 0.24029561E+03</totfact>
</mgrwt>
</event>
<event>
 4    1  0.6853809E-004  0.2128108E+03  0.7818608E-02  0.1139359E+00
          2   -1    0    0  501    0  0.00000000000E+00  0.00000000000E+00  0.10664999464E+04  0.10664999464E+04  0.25500000000E-02 0.  1.
         -2   -1    0    0    0  501 -0.00000000000E+00 -0.00000000000E+00 -0.10616139557E+02  0.10616139863E+02  0.25500000000E-02 0. -1.
    5000001    1    1    2    0    0  0.37906027311E+02 -0.37338657091E+02  0.27175065005E+03  0.28741687150E+03  0.77000000000E+02 0.  0.
   -5000001    1    1    2    0    0 -0.37906027311E+02  0.37338657091E+02  0.78413315682E+03  0.78969921479E+03  0.77000000000E+02 0.  0.
<mgrwt>
<rscale>  0 0.21281083E+03</rscale>
<asrwt>0</asrwt>
<pdfrwt beam="1">  1        2 0.15235713E+00 0.21281083E+03</pdfrwt>
<pdfrwt beam="2">  1       -2 0.15165915E-02 0.21281083E+03</pdfrwt>
<totfact> 0.30319595E+04</totfact>
</mgrwt>
</event>
<event>
 4    1  0.6853809E-004  0.1666670E+03  0.7818608E-02  0.1181369E+00
         -2   -1    0    0    0  501 -0.00000000000E+00  0.00000000000E+00  0.92032817017E+01  0.92032820550E+01  0.25500000000E-02 0. -1.
          2   -1    0    0  501    0  0.00000000000E+00 -0.00000000000E+00 -0.75456439310E+03  0.75456439310E+03  0.25500000000E-02 0.  1.
    5000001    1    1    2    0    0  0.13643033382E+02  0.20610888361E+02 -0.28051133600E+03  0.29193586745E+03  0.77000000000E+02 0.  0.
   -5000001    1    1    2    0    0 -0.13643033382E+02 -0.20610888361E+02 -0.46484977540E+03  0.47183180771E+03  0.77000000000E+02 0.  0.
<mgrwt>
<rscale>  0 0.16666696E+03</rscale>
<asrwt>0</asrwt>
<pdfrwt beam="1">  1        2 0.10779487E+00 0.16666696E+03</pdfrwt>
<pdfrwt beam="2">  1       -2 0.13147550E-02 0.16666696E+03</pdfrwt>
<totfact> 0.57002785E+04</totfact>
</mgrwt>
</event>
<event>
 4    1  0.6853809E-004  0.2318175E+03  0.7818608E-02  0.1125367E+00
          2   -1    0    0  501    0  0.00000000000E+00  0.00000000000E+00  0.69625280587E+01  0.69625285257E+01  0.25500000000E-02 0.  1.
         -2   -1    0    0    0  501 -0.00000000000E+00 -0.00000000000E+00 -0.19295926315E+04  0.19295926315E+04  0.25500000000E-02 0. -1.
    5000001    1    1    2    0    0  0.16237227587E+02 -0.48991238660E+02 -0.15426124776E+04  0.15453951097E+04  0.77000000000E+02 0.  0.
   -5000001    1    1    2    0    0 -0.16237227587E+02  0.48991238660E+02 -0.38001762584E+03  0.39116005033E+03  0.77000000000E+02 0.  0.
<mgrwt>
<rscale>  0 0.23181754E+03</rscale>
<asrwt>0</asrwt>
<pdfrwt beam="1">  1        2 0.99464814E-03 0.23181754E+03</pdfrwt>
<pdfrwt beam="2">  1       -2 0.27565575E+00 0.23181754E+03</pdfrwt>
<totfact> 0.73578231E+02</totfact>
</mgrwt>
</event>
<event>
 4    1  0.6853809E-004  0.2666032E+03  0.7818608E-02  0.1103240E+00
          2   -1    0    0  501    0  0.00000000000E+00  0.00000000000E+00  0.60045118534E+03  0.60045118534E+03  0.25500000000E-02 0.  1.
         -2   -1    0    0    0  501 -0.00000000000E+00 -0.00000000000E+00 -0.29593275560E+02  0.29593275670E+02  0.25500000000E-02 0. -1.
    5000001    1    1    2    0    0  0.21477324612E+02 -0.10326833971E+03  0.34860686843E+03  0.37226519335E+03  0.77000000000E+02 0.  0.
   -5000001    1    1    2    0    0 -0.21477324612E+02  0.10326833971E+03  0.22225104134E+03  0.25777926766E+03  0.77000000000E+02 0.  0.
<mgrwt>
<rscale>  0 0.26660321E+03</rscale>
<asrwt>0</asrwt>
<pdfrwt beam="1">  1        2 0.85778732E-01 0.26660321E+03</pdfrwt>
<pdfrwt beam="2">  1       -2 0.42276112E-02 0.26660321E+03</pdfrwt>
<totfact> 0.13791150E+04</totfact>
</mgrwt>
</event>
<event>
 4    1  0.6853809E-004  0.2087784E+03  0.7818608E-02  0.1142537E+00
          2   -1    0    0  501    0  0.00000000000E+00  0.00000000000E+00  0.12933440592E+03  0.12933440594E+03  0.25500000000E-02 0.  1.
         -2   -1    0    0    0  501 -0.00000000000E+00 -0.00000000000E+00 -0.84255253469E+02  0.84255253507E+02  0.25500000000E-02 0. -1.
    5000001    1    1    2    0    0 -0.60455373734E+02 -0.10907028204E+02  0.57894440394E+02  0.11425664841E+03  0.77000000000E+02 0.  0.
   -5000001    1    1    2    0    0  0.60455373734E+02  0.10907028204E+02 -0.12815287943E+02  0.99333011042E+02  0.77000000000E+02 0.  0.
<mgrwt>
<rscale>  0 0.20877838E+03</rscale>
<asrwt>0</asrwt>
<pdfrwt beam="1">  1        2 0.18476344E-01 0.20877838E+03</pdfrwt>
<pdfrwt beam="2">  1       -2 0.12036465E-01 0.20877838E+03</pdfrwt>
<totfact> 0.14502480E+04</totfact>
</mgrwt>
</event>
<event>
 4    1  0.6853809E-004  0.1734533E+03  0.7818608E-02  0.1174294E+00
          2   -1    0    0  501    0  0.00000000000E+00  0.00000000000E+00  0.19334290371E+03  0.19334290373E+03  0.25500000000E-02 0.  1.
         -2   -1    0    0    0  501 -0.00000000000E+00 -0.00000000000E+00 -0.38902435945E+02  0.38902436029E+02  0.25500000000E-02 0. -1.
    5000001    1    1    2    0    0 -0.28674035250E+02  0.19202565752E+02  0.10405178169E+03  0.13396533918E+03  0.77000000000E+02 0.  0.
   -5000001    1    1    2    0    0  0.28674035250E+02 -0.19202565752E+02  0.50388686081E+02  0.98280000579E+02  0.77000000000E+02 0.  0.
<mgrwt>
<rscale>  0 0.17345328E+03</rscale>
<asrwt>0</asrwt>
<pdfrwt beam="1">  1        2 0.27620415E-01 0.17345328E+03</pdfrwt>
<pdfrwt beam="2">  1       -2 0.55574908E-02 0.17345328E+03</pdfrwt>
<totfact> 0.30322443E+04</totfact>
</mgrwt>
</event>
<event>
 4    1  0.6853809E-004  0.2044857E+03  0.7818608E-02  0.1146009E+00
          2   -1    0    0  501    0  0.00000000000E+00  0.00000000000E+00  0.32443392399E+04  0.32443392399E+04  0.25500000000E-02 0.  1.
         -2   -1    0    0    0  501 -0.00000000000E+00 -0.00000000000E+00 -0.32221046087E+01  0.32221056178E+01  0.25500000000E-02 0. -1.
    5000001    1    1    2    0    0 -0.56026387635E+02 -0.27568077615E+02  0.20178041571E+04  0.20202379987E+04  0.77000000000E+02 0.  0.
   -5000001    1    1    2    0    0  0.56026387635E+02  0.27568077615E+02  0.12233129782E+04  0.12273233468E+04  0.77000000000E+02 0.  0.
<mgrwt>
<rscale>  0 0.20448572E+03</rscale>
<asrwt>0</asrwt>
<pdfrwt beam="1">  1        2 0.46347697E+00 0.20448572E+03</pdfrwt>
<pdfrwt beam="2">  1       -2 0.46030079E-03 0.20448572E+03</pdfrwt>
<totfact> 0.13369553E+04</totfact>
</mgrwt>
</event>
<event>
 4    1  0.6853809E-004  0.1718939E+03  0.7818608E-02  0.1175887E+00
         -2   -1    0    0    0  501 -0.00000000000E+00  0.00000000000E+00  0.34570365684E+03  0.34570365685E+03  0.25500000000E-02 0. -1.
          2   -1    0    0  501    0  0.00000000000E+00 -0.00000000000E+00 -0.21367663145E+02  0.21367663297E+02  0.25500000000E-02 0.  1.
    5000001    1    1    2    0    0 -0.37183121938E+02 -0.62851606930E+01  0.17494355834E+03  0.19482385995E+03  0.77000000000E+02 0.  0.
   -5000001    1    1    2    0    0  0.37183121938E+02  0.62851606930E+01  0.14939243536E+03  0.17224746020E+03  0.77000000000E+02 0.  0.
<mgrwt>
<rscale>  0 0.17189391E+03</rscale>
<asrwt>0</asrwt>
<pdfrwt beam="1">  1        2 0.30525233E-02 0.17189391E+03</pdfrwt>
<pdfrwt beam="2">  1       -2 0.49386237E-01 0.17189391E+03</pdfrwt>
<totfact> 0.11520360E+04</totfact>
</mgrwt>
</event>
<event>
 4    1  0.6853809E-004  0.2064170E+03  0.7818608E-02  0.1144435E+00
          2   -1    0    0  501    0  0.00000000000E+00  0.00000000000E+00  0.45010325383E+04  0.45010325383E+04  0.25500000000E-02 0.  1.
         -2   -1    0    0    0  501 -0.00000000000E+00 -0.00000000000E+00 -0.23665657725E+01  0.23665671463E+01  0.25500000000E-02 0. -1.
    5000001    1    1    2    0    0  0.44770090659E+02 -0.46438034511E+02  0.27666032099E+04  0.27684261184E+04  0.77000000000E+02 0.  0.
   -5000001    1    1    2    0    0 -0.44770090659E+02  0.46438034511E+02  0.17320627627E+04  0.17349729871E+04  0.77000000000E+02 0.  0.
<mgrwt>
<rscale>  0 0.20641698E+03</rscale>
<asrwt>0</asrwt>
<pdfrwt beam="1">  1        2 0.64299561E+00 0.20641698E+03</pdfrwt>
<pdfrwt beam="2">  1       -2 0.33808567E-03 0.20641698E+03</pdfrwt>
<totfact> 0.33242455E+03</totfact>
</mgrwt>
</event>
<event>
 4    1  0.6853809E-004  0.3795790E+03  0.7818608E-02  0.1051089E+00
         -2   -1    0    0    0  501 -0.00000000000E+00  0.00000000000E+00  0.63377916303E+02  0.63377916355E+02  0.25500000000E-02 0. -1.
          2   -1    0    0  501    0  0.00000000000E+00 -0.00000000000E+00 -0.56833768534E+03  0.56833768534E+03  0.25500000000E-02 0.  1.
    5000001    1    1    2    0    0 -0.12763275167E+03 -0.56439382146E+02 -0.42395075295E+03  0.45292247028E+03  0.77000000000E+02 0.  0.
   -5000001    1    1    2    0    0  0.12763275167E+03  0.56439382146E+02 -0.81009016087E+02  0.17879313142E+03  0.77000000000E+02 0.  0.
<mgrwt>
<rscale>  0 0.37957902E+03</rscale>
<asrwt>0</asrwt>
<pdfrwt beam="1">  1        2 0.81191095E-01 0.37957902E+03</pdfrwt>
<pdfrwt beam="2">  1       -2 0.90539884E-02 0.37957902E+03</pdfrwt>
<totfact> 0.45802359E+03</totfact>
</mgrwt>
</event>
<event>
 4    1  0.6853809E-004  0.4688453E+03  0.7818608E-02  0.1022247E+00
          2   -1    0    0  501    0  0.00000000000E+00  0.00000000000E+00  0.93453651262E+02  0.93453651297E+02  0.25500000000E-02 0.  1.
         -2   -1    0    0    0  501 -0.00000000000E+00 -0.00000000000E+00 -0.58803462959E+03  0.58803462959E+03  0.25500000000E-02 0. -1.
    5000001    1    1    2    0    0 -0.89586822625E+02  0.15153835328E+03 -0.52085624362E+02  0.19907682831E+03  0.77000000000E+02 0.  0.
   -5000001    1    1    2    0    0  0.89586822625E+02 -0.15153835328E+03 -0.44249535396E+03  0.48241145258E+03  0.77000000000E+02 0.  0.
<mgrwt>
<rscale>  0 0.46884532E+03</rscale>
<asrwt>0</asrwt>
<pdfrwt beam="1">  1        2 0.13350522E-01 0.46884532E+03</pdfrwt>
<pdfrwt beam="2">  1       -2 0.84004945E-01 0.46884532E+03</pdfrwt>
<totfact> 0.57673182E+02</totfact>
</mgrwt>
</event>
<event>
 4    1  0.6853809E-004  0.2336317E+03  0.7818608E-02  0.1124109E+00
          2   -1    0    0  501    0  0.00000000000E+00  0.00000000000E+00  0.77698403682E+03  0.77698403682E+03  0.25500000000E-02 0.  1.
         -2   -1    0    0    0  501 -0.00000000000E+00 -0.00000000000E+00 -0.17562712390E+02  0.17562712575E+02  0.25500000000E-02 0. -1.
    5000001    1    1    2    0    0  0.59591314981E+02  0.64514347029E+02  0.38627126595E+03  0.40354394642E+03  0.77000000000E+02 0.  0.
   -5000001    1    1    2    0    0 -0.59591314981E+02 -0.64514347029E+02  0.37315005847E+03  0.39100280297E+03  0.77000000000E+02 0.  0.
<mgrwt>
<rscale>  0 0.23363174E+03</rscale>
<asrwt>0</asrwt>
<pdfrwt beam="1">  1        2 0.11099775E+00 0.23363174E+03</pdfrwt>
<pdfrwt beam="2">  1       -2 0.25089583E-02 0.23363174E+03</pdfrwt>
<totfact> 0.22007104E+04</totfact>
</mgrwt>
</event>
<event>
 4    1  0.6853809E-004  0.2791978E+03  0.7818608E-02  0.1096128E+00
          2   -1    0    0  501    0  0.00000000000E+00  0.00000000000E+00  0.58883012365E+02  0.58883012420E+02  0.25500000000E-02 0.  1.
         -2   -1    0    0    0  501 -0.00000000000E+00 -0.00000000000E+00 -0.33095877214E+03  0.33095877215E+03  0.25500000000E-02 0. -1.
    5000001    1    1    2    0    0 -0.99546676443E+02  0.50748025053E+02 -0.18179595910E+03  0.22685606358E+03  0.77000000000E+02 0.  0.
   -5000001    1    1    2    0    0  0.99546676443E+02 -0.50748025053E+02 -0.90279800677E+02  0.16298572099E+03  0.77000000000E+02 0.  0.
<mgrwt>
<rscale>  0 0.27919778E+03</rscale>
<asrwt>0</asrwt>
<pdfrwt beam="1">  1        2 0.84118591E-02 0.27919778E+03</pdfrwt>
<pdfrwt beam="2">  1       -2 0.47279824E-01 0.27919778E+03</pdfrwt>
<totfact> 0.34140204E+03</totfact>
</mgrwt>
</event>
<event>
 4    1  0.6853809E-004  0.7060569E+03  0.7818608E-02  0.9706930E-01
          2   -1    0    0  501    0  0.00000000000E+00  0.00000000000E+00  0.13878178444E+04  0.13878178444E+04  0.25500000000E-02 0.  1.
         -2   -1    0    0    0  501 -0.00000000000E+00 -0.00000000000E+00 -0.89802205338E+02  0.89802205374E+02  0.25500000000E-02 0. -1.
    5000001    1    1    2    0    0 -0.46268249116E+02 -0.25712655682E+03  0.17896941967E+03  0.32590469508E+03  0.77000000000E+02 0.  0.
   -5000001    1    1    2    0    0  0.46268249116E+02  0.25712655682E+03  0.11190462194E+04  0.11517153547E+04  0.77000000000E+02 0.  0.
<mgrwt>
<rscale>  0 0.70605695E+03</rscale>
<asrwt>0</asrwt>
<pdfrwt beam="1">  1        2 0.19825969E+00 0.70605695E+03</pdfrwt>
<pdfrwt beam="2">  1       -2 0.12828887E-01 0.70605695E+03</pdfrwt>
<totfact> 0.77247012E+02</totfact>
</mgrwt>
</event>
<event>
 4    1  0.6853809E-004  0.1951456E+03  0.7818608E-02  0.1153901E+00
          2   -1    0    0  501    0  0.00000000000E+00  0.00000000000E+00  0.16598738507E+03  0.16598738509E+03  0.25500000000E-02 0.  1.
         -2   -1    0    0    0  501 -0.00000000000E+00 -0.00000000000E+00 -0.57356467350E+02  0.57356467407E+02  0.25500000000E-02 0. -1.
    5000001    1    1    2    0    0  0.44229314408E+02 -0.40432205724E+02  0.53543852648E+02  0.11129662919E+03  0.77000000000E+02 0.  0.
   -5000001    1    1    2    0    0 -0.44229314408E+02  0.40432205724E+02  0.55087065074E+02  0.11204722331E+03  0.77000000000E+02 0.  0.
<mgrwt>
<rscale>  0 0.19514559E+03</rscale>
<asrwt>0</asrwt>
<pdfrwt beam="1">  1        2 0.23712484E-01 0.19514559E+03</pdfrwt>
<pdfrwt beam="2">  1       -2 0.81937810E-02 0.19514559E+03</pdfrwt>
<totfact> 0.19981302E+04</totfact>
</mgrwt>
</event>
<event>
 4    1  0.6853809E-004  0.3766609E+03  0.7818608E-02  0.1052175E+00
         -2   -1    0    0    0  501 -0.00000000000E+00  0.00000000000E+00  0.17066179518E+02  0.17066179709E+02  0.25500000000E-02 0. -1.
          2   -1    0    0  501    0  0.00000000000E+00 -0.00000000000E+00 -0.20782829037E+04  0.20782829037E+04  0.25500000000E-02 0.  1.
    5000001    1    1    2    0    0  0.37813564989E+02 -0.14373660924E+03 -0.55047400600E+03  0.57536137324E+03  0.77000000000E+02 0.  0.
   -5000001    1    1    2    0    0 -0.37813564989E+02  0.14373660924E+03 -0.15107427182E+04  0.15199877102E+04  0.77000000000E+02 0.  0.
<mgrwt>
<rscale>  0 0.37666085E+03</rscale>
<asrwt>0</asrwt>
<pdfrwt beam="1">  1        2 0.29689739E+00 0.37666085E+03</pdfrwt>
<pdfrwt beam="2">  1       -2 0.24380270E-02 0.37666085E+03</pdfrwt>
<totfact> 0.46626410E+03</totfact>
</mgrwt>
</event>
<event>
 4    1  0.6853809E-004  0.1788921E+03  0.7818608E-02  0.1168880E+00
          2   -1    0    0  501    0  0.00000000000E+00  0.00000000000E+00  0.64270775142E+03  0.64270775142E+03  0.25500000000E-02 0.  1.
         -2   -1    0    0    0  501 -0.00000000000E+00 -0.00000000000E+00 -0.12448267607E+02  0.12448267869E+02  0.25500000000E-02 0. -1.
    5000001    1    1    2    0    0 -0.34367635745E+02  0.29343861978E+02  0.33498788368E+03  0.34668152364E+03  0.77000000000E+02 0.  0.
   -5000001    1    1    2    0    0  0.34367635745E+02 -0.29343861978E+02  0.29527160013E+03  0.30847449565E+03  0.77000000000E+02 0.  0.
<mgrwt>
<rscale>  0 0.17889213E+03</rscale>
<asrwt>0</asrwt>
<pdfrwt beam="1">  1        2 0.91815418E-01 0.17889213E+03</pdfrwt>
<pdfrwt beam="2">  1       -2 0.17783235E-02 0.17889213E+03</pdfrwt>
<totfact> 0.44690807E+04</totfact>
</mgrwt>
</event>
<event>
 4    1  0.6853809E-004  0.2677471E+03  0.7818608E-02  0.1102576E+00
          2   -1    0    0  501    0  0.00000000000E+00  0.00000000000E+00  0.22976995287E+03  0.22976995288E+03  0.25500000000E-02 0.  1.
         -2   -1    0    0    0  501 -0.00000000000E+00 -0.00000000000E+00 -0.78000333502E+02  0.78000333543E+02  0.25500000000E-02 0. -1.
    5000001    1    1    2    0    0 -0.13018744699E+02  0.74312760547E+02  0.16713116081E+03  0.19888111778E+03  0.77000000000E+02 0.  0.
   -5000001    1    1    2    0    0  0.13018744699E+02 -0.74312760547E+02 -0.15361541445E+02  0.10888916865E+03  0.77000000000E+02 0.  0.
<mgrwt>
<rscale>  0 0.26774714E+03</rscale>
<asrwt>0</asrwt>
<pdfrwt beam="1">  1        2 0.32824279E-01 0.26774714E+03</pdfrwt>
<pdfrwt beam="2">  1       -2 0.11142905E-01 0.26774714E+03</pdfrwt>
<totfact> 0.87589401E+03</totfact>
</mgrwt>
</event>
<event>
 4    1  0.6853809E-004  0.6258830E+03  0.7818608E-02  0.9853116E-01
          2   -1    0    0  501    0  0.00000000000E+00  0.00000000000E+00  0.21570103479E+03  0.21570103480E+03  0.25500000000E-02 0.  1.
         -2   -1    0    0    0  501 -0.00000000000E+00 -0.00000000000E+00 -0.45401903425E+03  0.45401903426E+03  0.25500000000E-02 0. -1.
    5000001    1    1    2    0    0 -0.62121087371E+01  0.99957177614E+02 -0.42552213777E+03  0.44387849395E+03  0.77000000000E+02 0.  0.
   -5000001    1    1    2    0    0  0.62121087371E+01 -0.99957177614E+02  0.18720413831E+03  0.22584157512E+03  0.77000000000E+02 0.  0.
<mgrwt>
<rscale>  0 0.62588298E+03</rscale>
<asrwt>0</asrwt>
<pdfrwt beam="1">  1        2 0.30814434E-01 0.62588298E+03</pdfrwt>
<pdfrwt beam="2">  1       -2 0.64859862E-01 0.62588298E+03</pdfrwt>
<totfact> 0.38220152E+02</totfact>
</mgrwt>
</event>
<event>
 4    1  0.6853809E-004  0.3376536E+03  0.7818608E-02  0.1067800E+00
         -2   -1    0    0    0  501 -0.00000000000E+00  0.00000000000E+00  0.24298568750E+03  0.24298568751E+03  0.25500000000E-02 0. -1.
          2   -1    0    0  501    0  0.00000000000E+00 -0.00000000000E+00 -0.11730112001E+03  0.11730112004E+03  0.25500000000E-02 0.  1.
    5000001    1    1    2    0    0 -0.11098768914E+03 -0.99559774384E+02  0.82606201776E+02  0.18703796510E+03  0.77000000000E+02 0.  0.
   -5000001    1    1    2    0    0  0.11098768914E+03  0.99559774384E+02  0.43078365710E+02  0.17324884245E+03  0.77000000000E+02 0.  0.
<mgrwt>
<rscale>  0 0.33765363E+03</rscale>
<asrwt>0</asrwt>
<pdfrwt beam="1">  1        2 0.16757303E-01 0.33765363E+03</pdfrwt>
<pdfrwt beam="2">  1       -2 0.34712241E-01 0.33765363E+03</pdfrwt>
<totfact> 0.26748927E+03</totfact>
</mgrwt>
</event>
<event>
 4    1  0.6853809E-004  0.3570629E+03  0.7818608E-02  0.1059753E+00
         -2   -1    0    0    0  501 -0.00000000000E+00  0.00000000000E+00  0.30961412198E+02  0.30961412303E+02  0.25500000000E-02 0. -1.
          2   -1    0    0  501    0  0.00000000000E+00 -0.00000000000E+00 -0.10294582315E+04  0.10294582315E+04  0.25500000000E-02 0.  1.
    5000001    1    1    2    0    0  0.24701586060E+01  0.10419670068E+03 -0.86396392119E+03  0.87362790205E+03  0.77000000000E+02 0.  0.
   -5000001    1    1    2    0    0 -0.24701586060E+01 -0.10419670068E+03 -0.13453289812E+03  0.18679174177E+03  0.77000000000E+02 0.  0.
<mgrwt>
<rscale>  0 0.35706291E+03</rscale>
<asrwt>0</asrwt>
<pdfrwt beam="1">  1        2 0.14706544E+00 0.35706291E+03</pdfrwt>
<pdfrwt beam="2">  1       -2 0.44230595E-02 0.35706291E+03</pdfrwt>
<totfact> 0.66378280E+03</totfact>
</mgrwt>
</event>
<event>
 4    1  0.6853809E-004  0.2246608E+03  0.7818608E-02  0.1130455E+00
          2   -1    0    0  501    0  0.00000000000E+00  0.00000000000E+00  0.80466667575E+02  0.80466667615E+02  0.25500000000E-02 0.  1.
         -2   -1    0    0    0  501 -0.00000000000E+00 -0.00000000000E+00 -0.15681172425E+03  0.15681172427E+03  0.25500000000E-02 0. -1.
    5000001    1    1    2    0    0  0.54454345710E+02 -0.60799558886E+02 -0.32658713788E+02  0.11686510905E+03  0.77000000000E+02 0.  0.
   -5000001    1    1    2    0    0 -0.54454345710E+02  0.60799558886E+02 -0.43686342883E+02  0.12041328283E+03  0.77000000000E+02 0.  0.
<mgrwt>
<rscale>  0 0.22466078E+03</rscale>
<asrwt>0</asrwt>
<pdfrwt beam="1">  1        2 0.11495238E-01 0.22466078E+03</pdfrwt>
<pdfrwt beam="2">  1       -2 0.22401675E-01 0.22466078E+03</pdfrwt>
<totfact> 0.90864125E+03</totfact>
</mgrwt>
</event>
<event>
 4    1  0.6853809E-004  0.3003871E+03  0.7818608E-02  0.1085047E+00
          2   -1    0    0  501    0  0.00000000000E+00  0.00000000000E+00  0.14313557618E+04  0.14313557618E+04  0.25500000000E-02 0.  1.
         -2   -1    0    0    0  501 -0.00000000000E+00 -0.00000000000E+00 -0.15759953771E+02  0.15759953977E+02  0.25500000000E-02 0. -1.
    5000001    1    1    2    0    0  0.92838925412E+02  0.83760170209E+02  0.85970353051E+03  0.87215479850E+03  0.77000000000E+02 0.  0.
   -5000001    1    1    2    0    0 -0.92838925412E+02 -0.83760170209E+02  0.55589227748E+03  0.57496091723E+03  0.77000000000E+02 0.  0.
<mgrwt>
<rscale>  0 0.30038709E+03</rscale>
<asrwt>0</asrwt>
<pdfrwt beam="1">  1        2 0.20447953E+00 0.30038709E+03</pdfrwt>
<pdfrwt beam="2">  1       -2 0.22514204E-02 0.30038709E+03</pdfrwt>
<totfact> 0.10996761E+04</totfact>
</mgrwt>
</event>
<event>
 4    1  0.6853809E-004  0.5812521E+03  0.7818608E-02  0.9945084E-01
          2   -1    0    0  501    0  0.00000000000E+00  0.00000000000E+00  0.20634315374E+04  0.20634315374E+04  0.25500000000E-02 0.  1.
         -2   -1    0    0    0  501 -0.00000000000E+00 -0.00000000000E+00 -0.40933510008E+02  0.40933510088E+02  0.25500000000E-02 0. -1.
    5000001    1    1    2    0    0  0.27227681591E+03 -0.47318775659E+02  0.11795397781E+04  0.12139262000E+04  0.77000000000E+02 0.  0.
   -5000001    1    1    2    0    0 -0.27227681591E+03  0.47318775659E+02  0.84295824938E+03  0.89043884754E+03  0.77000000000E+02 0.  0.
<mgrwt>
<rscale>  0 0.58125208E+03</rscale>
<asrwt>0</asrwt>
<pdfrwt beam="1">  1        2 0.29477587E+00 0.58125208E+03</pdfrwt>
<pdfrwt beam="2">  1       -2 0.58476455E-02 0.58125208E+03</pdfrwt>
<totfact> 0.12392021E+03</totfact>
</mgrwt>
</event>
<event>
 4    1  0.6853809E-004  0.2409131E+03  0.7818608E-02  0.1119186E+00
          2   -1    0    0  501    0  0.00000000000E+00  0.00000000000E+00  0.37868662066E+03  0.37868662067E+03  0.25500000000E-02 0.  1.
         -2   -1    0    0    0  501 -0.00000000000E+00 -0.00000000000E+00 -0.38316061391E+02  0.38316061476E+02  0.25500000000E-02 0. -1.
    5000001    1    1    2    0    0  0.26059497627E+02 -0.81640432445E+02  0.23105192972E+03  0.25818259402E+03  0.77000000000E+02 0.  0.
   -5000001    1    1    2    0    0 -0.26059497627E+02  0.81640432445E+02  0.10931862955E+03  0.15882008813E+03  0.77000000000E+02 0.  0.
<mgrwt>
<rscale>  0 0.24091309E+03</rscale>
<asrwt>0</asrwt>
<pdfrwt beam="1">  1        2 0.54098088E-01 0.24091309E+03</pdfrwt>
<pdfrwt beam="2">  1       -2 0.54737231E-02 0.24091309E+03</pdfrwt>
<totfact> 0.15408843E+04</totfact>
</mgrwt>
</event>
<event>
 4    1  0.6853809E-004  0.2566361E+03  0.7818608E-02  0.1109181E+00
         -2   -1    0    0    0  501 -0.00000000000E+00  0.00000000000E+00  0.58060879866E+02  0.58060879922E+02  0.25500000000E-02 0. -1.
          2   -1    0    0  501    0  0.00000000000E+00 -0.00000000000E+00 -0.28359065377E+03  0.28359065379E+03  0.25500000000E-02 0.  1.
    5000001    1    1    2    0    0  0.60274263085E+02  0.66001526442E+02 -0.45574272383E+02  0.12647214154E+03  0.77000000000E+02 0.  0.
   -5000001    1    1    2    0    0 -0.60274263085E+02 -0.66001526442E+02 -0.17995550153E+03  0.21517939217E+03  0.77000000000E+02 0.  0.
<mgrwt>
<rscale>  0 0.25663611E+03</rscale>
<asrwt>0</asrwt>
<pdfrwt beam="1">  1        2 0.40512950E-01 0.25663611E+03</pdfrwt>
<pdfrwt beam="2">  1       -2 0.82944116E-02 0.25663611E+03</pdfrwt>
<totfact> 0.11108106E+04</totfact>
</mgrwt>
</event>
<event>
 4    1  0.6853809E-004  0.2636172E+03  0.7818608E-02  0.1104989E+00
         -2   -1    0    0    0  501 -0.00000000000E+00  0.00000000000E+00  0.12096569537E+04  0.12096569537E+04  0.25500000000E-02 0. -1.
          2   -1    0    0  501    0  0.00000000000E+00 -0.00000000000E+00 -0.14362339808E+02  0.14362340034E+02  0.25500000000E-02 0.  1.
    5000001    1    1    2    0    0  0.75702135321E+02 -0.75586893253E+02  0.59505112976E+03  0.60947439549E+03  0.77000000000E+02 0.  0.
   -5000001    1    1    2    0    0 -0.75702135321E+02  0.75586893253E+02  0.60024348413E+03  0.61454489825E+03  0.77000000000E+02 0.  0.
<mgrwt>
<rscale>  0 0.26361718E+03</rscale>
<asrwt>0</asrwt>
<pdfrwt beam="1">  1        2 0.20517617E-02 0.26361718E+03</pdfrwt>
<pdfrwt beam="2">  1       -2 0.17280823E+00 0.26361718E+03</pdfrwt>
<totfact> 0.11498609E+03</totfact>
</mgrwt>
</event>
<event>
 4    1  0.6853809E-004  0.4368900E+03  0.7818608E-02  0.1031705E+00
          2   -1    0    0  501    0  0.00000000000E+00  0.00000000000E+00  0.58682488412E+03  0.58682488412E+03  0.25500000000E-02 0.  1.
         -2   -1    0    0    0  501 -0.00000000000E+00 -0.00000000000E+00 -0.81315924286E+02  0.81315924325E+02  0.25500000000E-02 0. -1.
    5000001    1    1    2    0    0  0.19587490536E+03  0.36163792334E+02  0.18243259804E+03  0.28086553946E+03  0.77000000000E+02 0.  0.
   -5000001    1    1    2    0    0 -0.19587490536E+03 -0.36163792334E+02  0.32307636179E+03  0.38727526899E+03  0.77000000000E+02 0.  0.
<mgrwt>
<rscale>  0 0.43688995E+03</rscale>
<asrwt>0</asrwt>
<pdfrwt beam="1">  1        2 0.83832128E-01 0.43688995E+03</pdfrwt>
<pdfrwt beam="2">  1       -2 0.11616560E-01 0.43688995E+03</pdfrwt>
<totfact> 0.29627511E+03</totfact>
</mgrwt>
</event>
<event>
 4    1  0.6853809E-004  0.2954841E+03  0.7818608E-02  0.1087520E+00
          2   -1    0    0  501    0  0.00000000000E+00  0.00000000000E+00  0.10047194300E+04  0.10047194300E+04  0.25500000000E-02 0.  1.
         -2   -1    0    0    0  501 -0.00000000000E+00 -0.00000000000E+00 -0.21725185142E+02  0.21725185292E+02  0.25500000000E-02 0. -1.
    5000001    1    1    2    0    0  0.85233409936E+02 -0.30264457816E+02  0.79667637815E+03  0.80548303712E+03  0.77000000000E+02 0.  0.
   -5000001    1    1    2    0    0 -0.85233409936E+02  0.30264457816E+02  0.18631786668E+03  0.22096157816E+03  0.77000000000E+02 0.  0.
<mgrwt>
<rscale>  0 0.29548412E+03</rscale>
<asrwt>0</asrwt>
<pdfrwt beam="1">  1        2 0.14353137E+00 0.29548412E+03</pdfrwt>
<pdfrwt beam="2">  1       -2 0.31035973E-02 0.29548412E+03</pdfrwt>
<totfact> 0.11650737E+04</totfact>
</mgrwt>
</event>
<event>
 4    1  0.6853809E-004  0.2664869E+03  0.7818608E-02  0.1103307E+00
         -2   -1    0    0    0  501 -0.00000000000E+00  0.00000000000E+00  0.92553075320E+01  0.92553078833E+01  0.25500000000E-02 0. -1.
          2   -1    0    0  501    0  0.00000000000E+00 -0.00000000000E+00 -0.19182305359E+04  0.19182305359E+04  0.25500000000E-02 0.  1.
    5000001    1    1    2    0    0  0.34946433544E+02 -0.65734621704E+02 -0.15277881078E+04  0.15315377227E+04  0.77000000000E+02 0.  0.
   -5000001    1    1    2    0    0 -0.34946433544E+02  0.65734621704E+02 -0.38118712063E+03  0.39594812115E+03  0.77000000000E+02 0.  0.
<mgrwt>
<rscale>  0 0.26648688E+03</rscale>
<asrwt>0</asrwt>
<pdfrwt beam="1">  1        2 0.27403268E+00 0.26648688E+03</pdfrwt>
<pdfrwt beam="2">  1       -2 0.13221880E-02 0.26648688E+03</pdfrwt>
<totfact> 0.13729274E+04</totfact>
</mgrwt>
</event>
<event>
 4    1  0.6853809E-004  0.2434315E+03  0.7818608E-02  0.1117528E+00
          2   -1    0    0  501    0  0.00000000000E+00  0.00000000000E+00  0.27014881067E+03  0.27014881068E+03  0.25500000000E-02 0. -1.
         -2   -1    0    0    0  501 -0.00000000000E+00 -0.00000000000E+00 -0.54839109387E+02  0.54839109447E+02  0.25500000000E-02 0.  1.
    5000001    1    1    2    0    0 -0.60181983876E+02  0.66162088432E+02  0.67907151010E+02  0.13616047256E+03  0.77000000000E+02 0.  0.
   -5000001    1    1    2    0    0  0.60181983876E+02 -0.66162088432E+02  0.14740255027E+03  0.18882744757E+03  0.77000000000E+02 0.  0.
<mgrwt>
<rscale>  0 0.24343147E+03</rscale>
<asrwt>0</asrwt>
<pdfrwt beam="1">  1        2 0.38592687E-01 0.24343147E+03</pdfrwt>
<pdfrwt beam="2">  1       -2 0.78341585E-02 0.24343147E+03</pdfrwt>
<totfact> 0.12760327E+04</totfact>
</mgrwt>
</event>
<event>
 4    1  0.6853809E-004  0.5338310E+03  0.7818608E-02  0.1005307E+00
         -2   -1    0    0    0  501 -0.00000000000E+00  0.00000000000E+00  0.61189917492E+02  0.61189917545E+02  0.25500000000E-02 0. -1.
          2   -1    0    0  501    0  0.00000000000E+00 -0.00000000000E+00 -0.11643075476E+04  0.11643075476E+04  0.25500000000E-02 0.  1.
    5000001    1    1    2    0    0 -0.17330943217E+03 -0.15751151207E+03 -0.31667231341E+03  0.40131831480E+03  0.77000000000E+02 0.  0.
   -5000001    1    1    2    0    0  0.17330943217E+03  0.15751151207E+03 -0.78644531672E+03  0.82417915037E+03  0.77000000000E+02 0.  0.
<mgrwt>
<rscale>  0 0.53383100E+03</rscale>
<asrwt>0</asrwt>
<pdfrwt beam="1">  1        2 0.16632964E+00 0.53383100E+03</pdfrwt>
<pdfrwt beam="2">  1       -2 0.87414175E-02 0.53383100E+03</pdfrwt>
<totfact> 0.19245960E+03</totfact>
</mgrwt>
</event>
<event>
 4    1  0.6853809E-004  0.4329071E+03  0.7818608E-02  0.1032946E+00
          2   -1    0    0  501    0  0.00000000000E+00  0.00000000000E+00  0.65335372885E+03  0.65335372885E+03  0.25500000000E-02 0.  1.
         -2   -1    0    0    0  501 -0.00000000000E+00 -0.00000000000E+00 -0.71710227960E+02  0.71710228006E+02  0.25500000000E-02 0. -1.
    5000001    1    1    2    0    0 -0.18772852654E+03 -0.57459506916E+02  0.37252306074E+03  0.42807245344E+03  0.77000000000E+02 0.  0.
   -5000001    1    1    2    0    0  0.18772852654E+03  0.57459506916E+02  0.20912044015E+03  0.29699150342E+03  0.77000000000E+02 0.  0.
<mgrwt>
<rscale>  0 0.43290713E+03</rscale>
<asrwt>0</asrwt>
<pdfrwt beam="1">  1        2 0.93336257E-01 0.43290713E+03</pdfrwt>
<pdfrwt beam="2">  1       -2 0.10244317E-01 0.43290713E+03</pdfrwt>
<totfact> 0.32022973E+03</totfact>
</mgrwt>
</event>
<event>
 4    1  0.6853809E-004  0.2462228E+03  0.7818608E-02  0.1115715E+00
         -2   -1    0    0    0  501 -0.00000000000E+00  0.00000000000E+00  0.56331255955E+02  0.56331256012E+02  0.25500000000E-02 0. -1.
          2   -1    0    0  501    0  0.00000000000E+00 -0.00000000000E+00 -0.26905873003E+03  0.26905873004E+03  0.25500000000E-02 0.  1.
    5000001    1    1    2    0    0  0.67791701577E+02  0.64124297241E+02 -0.76234787093E+02  0.14299784286E+03  0.77000000000E+02 0.  0.
   -5000001    1    1    2    0    0 -0.67791701577E+02 -0.64124297241E+02 -0.13649268698E+03  0.18239214319E+03  0.77000000000E+02 0.  0.
<mgrwt>
<rscale>  0 0.24622280E+03</rscale>
<asrwt>0</asrwt>
<pdfrwt beam="1">  1        2 0.38436961E-01 0.24622280E+03</pdfrwt>
<pdfrwt beam="2">  1       -2 0.80473224E-02 0.24622280E+03</pdfrwt>
<totfact> 0.12298397E+04</totfact>
</mgrwt>
</event>
<event>
 4    1  0.6853809E-004  0.2538799E+03  0.7818608E-02  0.1110877E+00
          2   -1    0    0  501    0  0.00000000000E+00  0.00000000000E+00  0.80976645798E+03  0.80976645799E+03  0.25500000000E-02 0.  1.
         -2   -1    0    0    0  501 -0.00000000000E+00 -0.00000000000E+00 -0.19899259382E+02  0.19899259546E+02  0.25500000000E-02 0. -1.
    5000001    1    1    2    0    0 -0.62628765539E+02  0.43056059510E+02  0.17795170840E+03  0.20825944650E+03  0.77000000000E+02 0.  0.
   -5000001    1    1    2    0    0  0.62628765539E+02 -0.43056059510E+02  0.61191549020E+03  0.62140627104E+03  0.77000000000E+02 0.  0.
<mgrwt>
<rscale>  0 0.25387992E+03</rscale>
<asrwt>0</asrwt>
<pdfrwt beam="1">  1        2 0.11568091E+00 0.25387992E+03</pdfrwt>
<pdfrwt beam="2">  1       -2 0.28427516E-02 0.25387992E+03</pdfrwt>
<totfact> 0.17464434E+04</totfact>
</mgrwt>
</event>
<event>
 4    1  0.6853809E-004  0.3569106E+03  0.7818608E-02  0.1059814E+00
          2   -1    0    0  501    0  0.00000000000E+00  0.00000000000E+00  0.17533872696E+04  0.17533872696E+04  0.25500000000E-02 0.  1.
         -2   -1    0    0    0  501 -0.00000000000E+00 -0.00000000000E+00 -0.18162727422E+02  0.18162727601E+02  0.25500000000E-02 0. -1.
    5000001    1    1    2    0    0  0.51712017998E+01 -0.15038458448E+03  0.58355779158E+03  0.60754502771E+03  0.77000000000E+02 0.  0.
   -5000001    1    1    2    0    0 -0.51712017998E+01  0.15038458448E+03  0.11516667506E+04  0.11640049695E+04  0.77000000000E+02 0.  0.
<mgrwt>
<rscale>  0 0.35691061E+03</rscale>
<asrwt>0</asrwt>
<pdfrwt beam="1">  1        2 0.25048407E+00 0.35691061E+03</pdfrwt>
<pdfrwt beam="2">  1       -2 0.25946736E-02 0.35691061E+03</pdfrwt>
<totfact> 0.61483967E+03</totfact>
</mgrwt>
</event>
<event>
 4    1  0.6853809E-004  0.2131157E+03  0.7818608E-02  0.1139122E+00
          2   -1    0    0  501    0  0.00000000000E+00  0.00000000000E+00  0.48337621313E+03  0.48337621313E+03  0.25500000000E-02 0.  1.
         -2   -1    0    0    0  501 -0.00000000000E+00 -0.00000000000E+00 -0.23490147040E+02  0.23490147178E+02  0.25500000000E-02 0. -1.
    5000001    1    1    2    0    0  0.59748393902E+02 -0.41247996717E+02  0.20039859191E+03  0.22662714632E+03  0.77000000000E+02 0.  0.
   -5000001    1    1    2    0    0 -0.59748393902E+02  0.41247996717E+02  0.25948747417E+03  0.28023921399E+03  0.77000000000E+02 0.  0.
<mgrwt>
<rscale>  0 0.21311573E+03</rscale>
<asrwt>0</asrwt>
<pdfrwt beam="1">  1        2 0.69053748E-01 0.21311573E+03</pdfrwt>
<pdfrwt beam="2">  1       -2 0.33557352E-02 0.21311573E+03</pdfrwt>
<totfact> 0.24500678E+04</totfact>
</mgrwt>
</event>
<event>
 4    1  0.6853809E-004  0.3177215E+03  0.7818608E-02  0.1076703E+00
         -2   -1    0    0    0  501 -0.00000000000E+00  0.00000000000E+00  0.54587794895E+03  0.54587794895E+03  0.25500000000E-02 0. -1.
          2   -1    0    0  501    0  0.00000000000E+00 -0.00000000000E+00 -0.46231463878E+02  0.46231463949E+02  0.25500000000E-02 0.  1.
    5000001    1    1    2    0    0  0.12762157276E+03  0.83081885876E+01  0.14857844669E+03  0.21062014779E+03  0.77000000000E+02 0.  0.
   -5000001    1    1    2    0    0 -0.12762157276E+03 -0.83081885876E+01  0.35106803838E+03  0.38148926512E+03  0.77000000000E+02 0.  0.
<mgrwt>
<rscale>  0 0.31772149E+03</rscale>
<asrwt>0</asrwt>
<pdfrwt beam="1">  1        2 0.66044954E-02 0.31772149E+03</pdfrwt>
<pdfrwt beam="2">  1       -2 0.77982557E-01 0.31772149E+03</pdfrwt>
<totfact> 0.16482392E+03</totfact>
</mgrwt>
</event>
<event>
 4    1  0.6853809E-004  0.4273113E+03  0.7818608E-02  0.1034713E+00
          2   -1    0    0  501    0  0.00000000000E+00  0.00000000000E+00  0.15616276783E+04  0.15616276783E+04  0.25500000000E-02 0. -1.
         -2   -1    0    0    0  501 -0.00000000000E+00 -0.00000000000E+00 -0.29231513277E+02  0.29231513388E+02  0.25500000000E-02 0.  1.
    5000001    1    1    2    0    0  0.79578825886E+02 -0.88709459840E+02  0.13609106430E+04  0.13682868617E+04  0.77000000000E+02 0.  0.
   -5000001    1    1    2    0    0 -0.79578825886E+02  0.88709459840E+02  0.17148552203E+03  0.22257232995E+03  0.77000000000E+02 0.  0.
<mgrwt>
<rscale>  0 0.42731132E+03</rscale>
<asrwt>0</asrwt>
<pdfrwt beam="1">  1        2 0.22308971E+00 0.42731132E+03</pdfrwt>
<pdfrwt beam="2">  1       -2 0.41759296E-02 0.42731132E+03</pdfrwt>
<totfact> 0.37451752E+03</totfact>
</mgrwt>
</event>
<event>
 4    1  0.6853809E-004  0.1782453E+03  0.7818608E-02  0.1169512E+00
          2   -1    0    0  501    0  0.00000000000E+00  0.00000000000E+00  0.43076671039E+02  0.43076671114E+02  0.25500000000E-02 0.  1.
         -2   -1    0    0    0  501 -0.00000000000E+00 -0.00000000000E+00 -0.18438854516E+03  0.18438854518E+03  0.25500000000E-02 0. -1.
    5000001    1    1    2    0    0 -0.13846571903E+01  0.39656915564E+02 -0.43910108641E+02  0.97116867064E+02  0.77000000000E+02 0.  0.
   -5000001    1    1    2    0    0  0.13846571903E+01 -0.39656915564E+02 -0.97401765481E+02  0.13034834923E+03  0.77000000000E+02 0.  0.
<mgrwt>
<rscale>  0 0.17824528E+03</rscale>
<asrwt>0</asrwt>
<pdfrwt beam="1">  1        2 0.61538102E-02 0.17824528E+03</pdfrwt>
<pdfrwt beam="2">  1       -2 0.26341220E-01 0.17824528E+03</pdfrwt>
<totfact> 0.14772085E+04</totfact>
</mgrwt>
</event>
<event>
 4    1  0.6853809E-004  0.3437252E+03  0.7818608E-02  0.1065220E+00
          2   -1    0    0  501    0  0.00000000000E+00  0.00000000000E+00  0.10170593625E+04  0.10170593625E+04  0.25500000000E-02 0.  1.
         -2   -1    0    0    0  501 -0.00000000000E+00 -0.00000000000E+00 -0.29041318854E+02  0.29041318965E+02  0.25500000000E-02 0. -1.
    5000001    1    1    2    0    0  0.11299678763E+03 -0.10399583031E+03  0.47899456450E+03  0.50886953098E+03  0.77000000000E+02 0.  0.
   -5000001    1    1    2    0    0 -0.11299678763E+03  0.10399583031E+03  0.50902347917E+03  0.53723115051E+03  0.77000000000E+02 0.  0.
<mgrwt>
<rscale>  0 0.34372515E+03</rscale>
<asrwt>0</asrwt>
<pdfrwt beam="1">  1        2 0.14529417E+00 0.34372515E+03</pdfrwt>
<pdfrwt beam="2">  1       -2 0.41487605E-02 0.34372515E+03</pdfrwt>
<totfact> 0.74342928E+03</totfact>
</mgrwt>
</event>
<event>
 4    1  0.6853809E-004  0.1632521E+03  0.7818608E-02  0.1185073E+00
          2   -1    0    0  501    0  0.00000000000E+00  0.00000000000E+00  0.23055324996E+03  0.23055324997E+03  0.25500000000E-02 0.  1.
         -2   -1    0    0    0  501 -0.00000000000E+00 -0.00000000000E+00 -0.28899247307E+02  0.28899247419E+02  0.25500000000E-02 0. -1.
    5000001    1    1    2    0    0  0.90662102213E+01 -0.23979030723E+02  0.11473885900E+03  0.14053894780E+03  0.77000000000E+02 0.  0.
   -5000001    1    1    2    0    0 -0.90662102213E+01  0.23979030723E+02  0.86915143649E+02  0.11891354960E+03  0.77000000000E+02 0.  0.
<mgrwt>
<rscale>  0 0.16325214E+03</rscale>
<asrwt>0</asrwt>
<pdfrwt beam="1">  1        2 0.32936177E-01 0.16325214E+03</pdfrwt>
<pdfrwt beam="2">  1       -2 0.41284641E-02 0.16325214E+03</pdfrwt>
<totfact> 0.38929801E+04</totfact>
</mgrwt>
</event>
<event>
 4    1  0.6853809E-004  0.3317363E+03  0.7818608E-02  0.1070371E+00
          2   -1    0    0  501    0  0.00000000000E+00  0.00000000000E+00  0.71583906047E+03  0.71583906047E+03  0.25500000000E-02 0.  1.
         -2   -1    0    0    0  501 -0.00000000000E+00 -0.00000000000E+00 -0.38433562655E+02  0.38433562739E+02  0.25500000000E-02 0. -1.
    5000001    1    1    2    0    0  0.78476905306E+02  0.11951458379E+03  0.26190362465E+03  0.30816370489E+03  0.77000000000E+02 0.  0.
   -5000001    1    1    2    0    0 -0.78476905306E+02 -0.11951458379E+03  0.41550187316E+03  0.44610891832E+03  0.77000000000E+02 0.  0.
<mgrwt>
<rscale>  0 0.33173631E+03</rscale>
<asrwt>0</asrwt>
<pdfrwt beam="1">  1        2 0.10226271E+00 0.33173631E+03</pdfrwt>
<pdfrwt beam="2">  1       -2 0.54905096E-02 0.33173631E+03</pdfrwt>
<totfact> 0.76054038E+03</totfact>
</mgrwt>
</event>
<event>
 4    1  0.6853809E-004  0.2712721E+03  0.7818608E-02  0.1100554E+00
         -2   -1    0    0    0  501 -0.00000000000E+00  0.00000000000E+00  0.14049817739E+02  0.14049817971E+02  0.25500000000E-02 0. -1.
          2   -1    0    0  501    0  0.00000000000E+00 -0.00000000000E+00 -0.13094221716E+04  0.13094221716E+04  0.25500000000E-02 0.  1.
    5000001    1    1    2    0    0 -0.51596162644E+02 -0.53204288796E+01 -0.11301083933E+04  0.11339155399E+04  0.77000000000E+02 0.  0.
   -5000001    1    1    2    0    0  0.51596162644E+02  0.53204288796E+01 -0.16526396059E+03  0.18955644972E+03  0.77000000000E+02 0.  0.
<mgrwt>
<rscale>  0 0.27127214E+03</rscale>
<asrwt>0</asrwt>
<pdfrwt beam="1">  1        2 0.18706023E+00 0.27127214E+03</pdfrwt>
<pdfrwt beam="2">  1       -2 0.20071177E-02 0.27127214E+03</pdfrwt>
<totfact> 0.15025749E+04</totfact>
</mgrwt>
</event>
<event>
 4    1  0.6853809E-004  0.2344402E+03  0.7818608E-02  0.1123553E+00
         -2   -1    0    0    0  501 -0.00000000000E+00  0.00000000000E+00  0.13376345931E+02  0.13376346174E+02  0.25500000000E-02 0. -1.
          2   -1    0    0  501    0  0.00000000000E+00 -0.00000000000E+00 -0.10272272782E+04  0.10272272782E+04  0.25500000000E-02 0.  1.
    5000001    1    1    2    0    0 -0.70810768392E+02  0.41942434216E+02 -0.36390541286E+03  0.38095863583E+03  0.77000000000E+02 0.  0.
   -5000001    1    1    2    0    0  0.70810768392E+02 -0.41942434216E+02 -0.64994551936E+03  0.65964498850E+03  0.77000000000E+02 0.  0.
<mgrwt>
<rscale>  0 0.23444016E+03</rscale>
<asrwt>0</asrwt>
<pdfrwt beam="1">  1        2 0.14674670E+00 0.23444016E+03</pdfrwt>
<pdfrwt beam="2">  1       -2 0.19109072E-02 0.23444016E+03</pdfrwt>
<totfact> 0.22920553E+04</totfact>
</mgrwt>
</event>
<event>
 4    1  0.6853809E-004  0.2213200E+03  0.7818608E-02  0.1132903E+00
         -2   -1    0    0    0  501 -0.00000000000E+00  0.00000000000E+00  0.63622072878E+02  0.63622072929E+02  0.25500000000E-02 0. -1.
          2   -1    0    0  501    0  0.00000000000E+00 -0.00000000000E+00 -0.19247464328E+03  0.19247464330E+03  0.25500000000E-02 0.  1.
    5000001    1    1    2    0    0  0.71996355578E+02 -0.68529974271E+01 -0.26290065188E+02  0.10886049016E+03  0.77000000000E+02 0.  0.
   -5000001    1    1    2    0    0 -0.71996355578E+02  0.68529974271E+01 -0.10256250522E+03  0.14723622607E+03  0.77000000000E+02 0.  0.
<mgrwt>
<rscale>  0 0.22132000E+03</rscale>
<asrwt>0</asrwt>
<pdfrwt beam="1">  1        2 0.27496377E-01 0.22132000E+03</pdfrwt>
<pdfrwt beam="2">  1       -2 0.90888677E-02 0.22132000E+03</pdfrwt>
<totfact> 0.14544973E+04</totfact>
</mgrwt>
</event>
<event>
 4    1  0.6853809E-004  0.3304789E+03  0.7818608E-02  0.1070925E+00
         -2   -1    0    0    0  501 -0.00000000000E+00  0.00000000000E+00  0.60271281324E+03  0.60271281324E+03  0.25500000000E-02 0. -1.
          2   -1    0    0  501    0  0.00000000000E+00 -0.00000000000E+00 -0.45301977501E+02  0.45301977573E+02  0.25500000000E-02 0.  1.
    5000001    1    1    2    0    0  0.12386389775E+03  0.60971507883E+02  0.37305588458E+03  0.40516599433E+03  0.77000000000E+02 0.  0.
   -5000001    1    1    2    0    0 -0.12386389775E+03 -0.60971507883E+02  0.18435495115E+03  0.24284879649E+03  0.77000000000E+02 0.  0.
<mgrwt>
<rscale>  0 0.33047894E+03</rscale>
<asrwt>0</asrwt>
<pdfrwt beam="1">  1        2 0.64717115E-02 0.33047894E+03</pdfrwt>
<pdfrwt beam="2">  1       -2 0.86101824E-01 0.33047894E+03</pdfrwt>
<totfact> 0.13588809E+03</totfact>
</mgrwt>
</event>
<event>
 4    1  0.6853809E-004  0.4279809E+03  0.7818608E-02  0.1034500E+00
         -2   -1    0    0    0  501 -0.00000000000E+00  0.00000000000E+00  0.40863034779E+02  0.40863034858E+02  0.25500000000E-02 0. -1.
          2   -1    0    0  501    0  0.00000000000E+00 -0.00000000000E+00 -0.11206192809E+04  0.11206192809E+04  0.25500000000E-02 0.  1.
    5000001    1    1    2    0    0 -0.48685259556E+02  0.19252665977E+03 -0.59590057304E+03  0.63282166696E+03  0.77000000000E+02 0.  0.
   -5000001    1    1    2    0    0  0.48685259556E+02 -0.19252665977E+03 -0.48385567306E+03  0.52866064878E+03  0.77000000000E+02 0.  0.
<mgrwt>
<rscale>  0 0.42798086E+03</rscale>
<asrwt>0</asrwt>
<pdfrwt beam="1">  1        2 0.16008845E+00 0.42798086E+03</pdfrwt>
<pdfrwt beam="2">  1       -2 0.58375771E-02 0.42798086E+03</pdfrwt>
<totfact> 0.38478315E+03</totfact>
</mgrwt>
</event>
<event>
 4    1  0.6853809E-004  0.2820212E+03  0.7818608E-02  0.1094590E+00
         -2   -1    0    0    0  501 -0.00000000000E+00  0.00000000000E+00  0.65665049949E+01  0.65665054900E+01  0.25500000000E-02 0. -1.
          2   -1    0    0  501    0  0.00000000000E+00 -0.00000000000E+00 -0.30280940757E+04  0.30280940757E+04  0.25500000000E-02 0.  1.
    5000001    1    1    2    0    0  0.52796051450E+02 -0.98391388650E+02 -0.19256614814E+04  0.19304324462E+04  0.77000000000E+02 0.  0.
   -5000001    1    1    2    0    0 -0.52796051450E+02  0.98391388650E+02 -0.10958660894E+04  0.11042281351E+04  0.77000000000E+02 0.  0.
<mgrwt>
<rscale>  0 0.28202124E+03</rscale>
<asrwt>0</asrwt>
<pdfrwt beam="1">  1        2 0.43258397E+00 0.28202124E+03</pdfrwt>
<pdfrwt beam="2">  1       -2 0.93807412E-03 0.28202124E+03</pdfrwt>
<totfact> 0.62750091E+03</totfact>
</mgrwt>
</event>
<event>
 4    1  0.6853809E-004  0.2641656E+03  0.7818608E-02  0.1104666E+00
         -2   -1    0    0    0  501 -0.00000000000E+00  0.00000000000E+00  0.20913605294E+02  0.20913605449E+02  0.25500000000E-02 0. -1.
          2   -1    0    0  501    0  0.00000000000E+00 -0.00000000000E+00 -0.83418765648E+03  0.83418765648E+03  0.25500000000E-02 0.  1.
    5000001    1    1    2    0    0  0.91905449117E+02  0.42201068606E+02 -0.29040569517E+03  0.31700474690E+03  0.77000000000E+02 0.  0.
   -5000001    1    1    2    0    0 -0.91905449117E+02 -0.42201068606E+02 -0.52286835601E+03  0.53809651503E+03  0.77000000000E+02 0.  0.
<mgrwt>
<rscale>  0 0.26416564E+03</rscale>
<asrwt>0</asrwt>
<pdfrwt beam="1">  1        2 0.11916964E+00 0.26416564E+03</pdfrwt>
<pdfrwt beam="2">  1       -2 0.29876584E-02 0.26416564E+03</pdfrwt>
<totfact> 0.15659865E+04</totfact>
</mgrwt>
</event>
<event>
 4    1  0.6853809E-004  0.3804699E+03  0.7818608E-02  0.1050760E+00
          2   -1    0    0  501    0  0.00000000000E+00  0.00000000000E+00  0.65967275670E+03  0.65967275671E+03  0.25500000000E-02 0.  1.
         -2   -1    0    0    0  501 -0.00000000000E+00 -0.00000000000E+00 -0.54859523160E+02  0.54859523219E+02  0.25500000000E-02 0. -1.
    5000001    1    1    2    0    0  0.40754467482E+02 -0.16760263428E+03  0.34476695696E+03  0.39312189490E+03  0.77000000000E+02 0.  0.
   -5000001    1    1    2    0    0 -0.40754467482E+02  0.16760263428E+03  0.26004627658E+03  0.32141038503E+03  0.77000000000E+02 0.  0.
<mgrwt>
<rscale>  0 0.38046988E+03</rscale>
<asrwt>0</asrwt>
<pdfrwt beam="1">  1        2 0.94238956E-01 0.38046988E+03</pdfrwt>
<pdfrwt beam="2">  1       -2 0.78370755E-02 0.38046988E+03</pdfrwt>
<totfact> 0.48396092E+03</totfact>
</mgrwt>
</event>
<event>
 4    1  0.6853809E-004  0.1935724E+03  0.7818608E-02  0.1155278E+00
         -2   -1    0    0    0  501 -0.00000000000E+00  0.00000000000E+00  0.12039999303E+03  0.12039999305E+03  0.25500000000E-02 0. -1.
          2   -1    0    0  501    0  0.00000000000E+00 -0.00000000000E+00 -0.77803721918E+02  0.77803721960E+02  0.25500000000E-02 0.  1.
    5000001    1    1    2    0    0  0.52566556661E+02 -0.32735771344E+00 -0.53085168037E+01  0.93383780138E+02  0.77000000000E+02 0.  0.
   -5000001    1    1    2    0    0 -0.52566556661E+02  0.32735771344E+00  0.47904787911E+02  0.10481993487E+03  0.77000000000E+02 0.  0.
<mgrwt>
<rscale>  0 0.19357239E+03</rscale>
<asrwt>0</asrwt>
<pdfrwt beam="1">  1        2 0.11114817E-01 0.19357239E+03</pdfrwt>
<pdfrwt beam="2">  1       -2 0.17199999E-01 0.19357239E+03</pdfrwt>
<totfact> 0.14688408E+04</totfact>
</mgrwt>
</event>
<event>
 4    1  0.6853809E-004  0.2257051E+03  0.7818608E-02  0.1129700E+00
          2   -1    0    0  501    0  0.00000000000E+00  0.00000000000E+00  0.58247399825E+02  0.58247399880E+02  0.25500000000E-02 0.  1.
         -2   -1    0    0    0  501 -0.00000000000E+00 -0.00000000000E+00 -0.21864834392E+03  0.21864834394E+03  0.25500000000E-02 0. -1.
    5000001    1    1    2    0    0 -0.67061357362E+02  0.47152613064E+02 -0.91584184838E+02  0.14504226102E+03  0.77000000000E+02 0.  0.
   -5000001    1    1    2    0    0  0.67061357362E+02 -0.47152613064E+02 -0.68816759258E+02  0.13185348279E+03  0.77000000000E+02 0.  0.
<mgrwt>
<rscale>  0 0.22570510E+03</rscale>
<asrwt>0</asrwt>
<pdfrwt beam="1">  1        2 0.83210572E-02 0.22570510E+03</pdfrwt>
<pdfrwt beam="2">  1       -2 0.31235477E-01 0.22570510E+03</pdfrwt>
<totfact> 0.75220491E+03</totfact>
</mgrwt>
</event>
<event>
 4    1  0.6853809E-004  0.6729143E+03  0.7818608E-02  0.9764707E-01
         -2   -1    0    0    0  501 -0.00000000000E+00  0.00000000000E+00  0.35759020604E+03  0.35759020605E+03  0.25500000000E-02 0.  1.
          2   -1    0    0  501    0  0.00000000000E+00 -0.00000000000E+00 -0.31657299257E+03  0.31657299258E+03  0.25500000000E-02 0. -1.
    5000001    1    1    2    0    0  0.66893561208E+02  0.31944157309E+03 -0.70512574440E+01  0.33540481121E+03  0.77000000000E+02 0.  0.
   -5000001    1    1    2    0    0 -0.66893561208E+02 -0.31944157309E+03  0.48068470916E+02  0.33875838742E+03  0.77000000000E+02 0.  0.
<mgrwt>
<rscale>  0 0.67291426E+03</rscale>
<asrwt>0</asrwt>
<pdfrwt beam="1">  1        2 0.45224713E-01 0.67291426E+03</pdfrwt>
<pdfrwt beam="2">  1       -2 0.51084315E-01 0.67291426E+03</pdfrwt>
<totfact> 0.41017376E+02</totfact>
</mgrwt>
</event>
<event>
 4    1  0.6853809E-004  0.3984214E+03  0.7818608E-02  0.1044328E+00
          2   -1    0    0  501    0  0.00000000000E+00  0.00000000000E+00  0.13322030465E+04  0.13322030465E+04  0.25500000000E-02 0.  1.
         -2   -1    0    0    0  501 -0.00000000000E+00 -0.00000000000E+00 -0.29788934118E+02  0.29788934227E+02  0.25500000000E-02 0. -1.
    5000001    1    1    2    0    0 -0.62718035080E+02 -0.75657344827E+02  0.11818779557E+04  0.11884536541E+04  0.77000000000E+02 0.  0.
   -5000001    1    1    2    0    0  0.62718035080E+02  0.75657344827E+02  0.12053615674E+03  0.17353832669E+03  0.77000000000E+02 0.  0.
<mgrwt>
<rscale>  0 0.39842143E+03</rscale>
<asrwt>0</asrwt>
<pdfrwt beam="1">  1        2 0.19031481E+00 0.39842143E+03</pdfrwt>
<pdfrwt beam="2">  1       -2 0.42555600E-02 0.39842143E+03</pdfrwt>
<totfact> 0.47860089E+03</totfact>
</mgrwt>
</event>
<event>
 4    1  0.6853809E-004  0.2453871E+03  0.7818608E-02  0.1116255E+00
          2   -1    0    0  501    0  0.00000000000E+00  0.00000000000E+00  0.10104636266E+03  0.10104636269E+03  0.25500000000E-02 0.  1.
         -2   -1    0    0    0  501 -0.00000000000E+00 -0.00000000000E+00 -0.14897821914E+03  0.14897821917E+03  0.25500000000E-02 0. -1.
    5000001    1    1    2    0    0  0.45373218256E+01  0.89373612770E+02  0.10079273723E+02  0.11848553375E+03  0.77000000000E+02 0.  0.
   -5000001    1    1    2    0    0 -0.45373218256E+01 -0.89373612770E+02 -0.58011130208E+02  0.13153904811E+03  0.77000000000E+02 0.  0.
<mgrwt>
<rscale>  0 0.24538710E+03</rscale>
<asrwt>0</asrwt>
<pdfrwt beam="1">  1        2 0.14435195E-01 0.24538710E+03</pdfrwt>
<pdfrwt beam="2">  1       -2 0.21282603E-01 0.24538710E+03</pdfrwt>
<totfact> 0.75818046E+03</totfact>
</mgrwt>
</event>
<event>
 4    1  0.6853809E-004  0.1880154E+03  0.7818608E-02  0.1160264E+00
         -2   -1    0    0    0  501 -0.00000000000E+00  0.00000000000E+00  0.31040571002E+03  0.31040571004E+03  0.25500000000E-02 0. -1.
          2   -1    0    0  501    0  0.00000000000E+00 -0.00000000000E+00 -0.28470635067E+02  0.28470635181E+02  0.25500000000E-02 0.  1.
    5000001    1    1    2    0    0  0.50229730448E+02  0.96578721473E+01  0.11016057767E+03  0.14380769517E+03  0.77000000000E+02 0.  0.
   -5000001    1    1    2    0    0 -0.50229730448E+02 -0.96578721473E+01  0.17177449728E+03  0.19506865005E+03  0.77000000000E+02 0.  0.
<mgrwt>
<rscale>  0 0.18801540E+03</rscale>
<asrwt>0</asrwt>
<pdfrwt beam="1">  1        2 0.40672335E-02 0.18801540E+03</pdfrwt>
<pdfrwt beam="2">  1       -2 0.44343674E-01 0.18801540E+03</pdfrwt>
<totfact> 0.97541810E+03</totfact>
</mgrwt>
</event>
<event>
 4    1  0.6853809E-004  0.3435914E+03  0.7818608E-02  0.1065277E+00
          2   -1    0    0  501    0  0.00000000000E+00  0.00000000000E+00  0.13723490874E+04  0.13723490874E+04  0.25500000000E-02 0.  1.
         -2   -1    0    0    0  501 -0.00000000000E+00 -0.00000000000E+00 -0.21506020868E+02  0.21506021019E+02  0.25500000000E-02 0. -1.
    5000001    1    1    2    0    0  0.13963943642E+03 -0.12773291798E+02  0.92949154351E+03  0.94315738806E+03  0.77000000000E+02 0.  0.
   -5000001    1    1    2    0    0 -0.13963943642E+03  0.12773291798E+02  0.42135152298E+03  0.45069772032E+03  0.77000000000E+02 0.  0.
<mgrwt>
<rscale>  0 0.34359143E+03</rscale>
<asrwt>0</asrwt>
<pdfrwt beam="1">  1        2 0.19604987E+00 0.34359143E+03</pdfrwt>
<pdfrwt beam="2">  1       -2 0.30722888E-02 0.34359143E+03</pdfrwt>
<totfact> 0.74463172E+03</totfact>
</mgrwt>
</event>
<event>
 4    1  0.6853809E-004  0.1776656E+03  0.7818608E-02  0.1170082E+00
          2   -1    0    0  501    0  0.00000000000E+00  0.00000000000E+00  0.12046988228E+04  0.12046988228E+04  0.25500000000E-02 0.  1.
         -2   -1    0    0    0  501 -0.00000000000E+00 -0.00000000000E+00 -0.65504038511E+01  0.65504043474E+01  0.25500000000E-02 0. -1.
    5000001    1    1    2    0    0  0.41590361002E+02  0.17119018415E+01  0.70237243917E+03  0.70780557503E+03  0.77000000000E+02 0.  0.
   -5000001    1    1    2    0    0 -0.41590361002E+02 -0.17119018415E+01  0.49577597982E+03  0.50344365216E+03  0.77000000000E+02 0.  0.
<mgrwt>
<rscale>  0 0.17766557E+03</rscale>
<asrwt>0</asrwt>
<pdfrwt beam="1">  1        2 0.17209986E+00 0.17766557E+03</pdfrwt>
<pdfrwt beam="2">  1       -2 0.93577185E-03 0.17766557E+03</pdfrwt>
<totfact> 0.50489375E+04</totfact>
</mgrwt>
</event>
<event>
 4    1  0.6853809E-004  0.2201229E+03  0.7818608E-02  0.1133791E+00
          2   -1    0    0  501    0  0.00000000000E+00  0.00000000000E+00  0.35265832539E+04  0.35265832539E+04  0.25500000000E-02 0.  1.
         -2   -1    0    0    0  501 -0.00000000000E+00 -0.00000000000E+00 -0.34349170794E+01  0.34349180260E+01  0.25500000000E-02 0. -1.
    5000001    1    1    2    0    0 -0.24313044155E+02  0.56947090275E+02  0.98410146954E+03  0.98904944142E+03  0.77000000000E+02 0.  0.
   -5000001    1    1    2    0    0  0.24313044155E+02 -0.56947090275E+02  0.25390468673E+04  0.25409687306E+04  0.77000000000E+02 0.  0.
<mgrwt>
<rscale>  0 0.22012290E+03</rscale>
<asrwt>0</asrwt>
<pdfrwt beam="1">  1        2 0.50379788E+00 0.22012290E+03</pdfrwt>
<pdfrwt beam="2">  1       -2 0.49070224E-03 0.22012290E+03</pdfrwt>
<totfact> 0.84699132E+03</totfact>
</mgrwt>
</event>
<event>
 4    1  0.6853809E-004  0.2797280E+03  0.7818608E-02  0.1095838E+00
          2   -1    0    0  501    0  0.00000000000E+00  0.00000000000E+00  0.17029491932E+03  0.17029491934E+03  0.25500000000E-02 0.  1.
         -2   -1    0    0    0  501 -0.00000000000E+00 -0.00000000000E+00 -0.11487093859E+03  0.11487093862E+03  0.25500000000E-02 0. -1.
    5000001    1    1    2    0    0 -0.88545631004E+02  0.30312714670E+02 -0.43457380525E+02  0.12875066354E+03  0.77000000000E+02 0.  0.
   -5000001    1    1    2    0    0  0.88545631004E+02 -0.30312714670E+02  0.98881361256E+02  0.15641519442E+03  0.77000000000E+02 0.  0.
<mgrwt>
<rscale>  0 0.27972799E+03</rscale>
<asrwt>0</asrwt>
<pdfrwt beam="1">  1        2 0.24327845E-01 0.27972799E+03</pdfrwt>
<pdfrwt beam="2">  1       -2 0.16410134E-01 0.27972799E+03</pdfrwt>
<totfact> 0.64872098E+03</totfact>
</mgrwt>
</event>
<event>
 4    1  0.6853809E-004  0.5192794E+03  0.7818608E-02  0.1008866E+00
          2   -1    0    0  501    0  0.00000000000E+00  0.00000000000E+00  0.52433694237E+03  0.52433694238E+03  0.25500000000E-02 0.  1.
         -2   -1    0    0    0  501 -0.00000000000E+00 -0.00000000000E+00 -0.12856767061E+03  0.12856767063E+03  0.25500000000E-02 0. -1.
    5000001    1    1    2    0    0  0.16634324620E+03  0.17147037737E+03  0.11437293091E+03  0.27583026157E+03  0.77000000000E+02 0.  0.
   -5000001    1    1    2    0    0 -0.16634324620E+03 -0.17147037737E+03  0.28139634085E+03  0.37707435144E+03  0.77000000000E+02 0.  0.
<mgrwt>
<rscale>  0 0.51927942E+03</rscale>
<asrwt>0</asrwt>
<pdfrwt beam="1">  1        2 0.74905279E-01 0.51927942E+03</pdfrwt>
<pdfrwt beam="2">  1       -2 0.18366810E-01 0.51927942E+03</pdfrwt>
<totfact> 0.15701491E+03</totfact>
</mgrwt>
</event>
<event>
 4    1  0.6853809E-004  0.3527344E+03  0.7818608E-02  0.1061498E+00
          2   -1    0    0  501    0  0.00000000000E+00  0.00000000000E+00  0.78139429303E+02  0.78139429344E+02  0.25500000000E-02 0.  1.
         -2   -1    0    0    0  501 -0.00000000000E+00 -0.00000000000E+00 -0.39807553053E+03  0.39807553054E+03  0.25500000000E-02 0. -1.
    5000001    1    1    2    0    0 -0.12609414752E+03  0.75361386227E+02 -0.78994189288E+02  0.18370670786E+03  0.77000000000E+02 0.  0.
   -5000001    1    1    2    0    0  0.12609414752E+03 -0.75361386227E+02 -0.24094191194E+03  0.29250825202E+03  0.77000000000E+02 0.  0.
<mgrwt>
<rscale>  0 0.35273443E+03</rscale>
<asrwt>0</asrwt>
<pdfrwt beam="1">  1        2 0.11162776E-01 0.35273443E+03</pdfrwt>
<pdfrwt beam="2">  1       -2 0.56867932E-01 0.35273443E+03</pdfrwt>
<totfact> 0.16608713E+03</totfact>
</mgrwt>
</event>
<event>
 4    1  0.6853809E-004  0.4643391E+03  0.7818608E-02  0.1023530E+00
          2   -1    0    0  501    0  0.00000000000E+00  0.00000000000E+00  0.45131126175E+03  0.45131126176E+03  0.25500000000E-02 0.  1.
         -2   -1    0    0    0  501 -0.00000000000E+00 -0.00000000000E+00 -0.11943574440E+03  0.11943574443E+03  0.25500000000E-02 0. -1.
    5000001    1    1    2    0    0 -0.80652604624E+02  0.18405155561E+03  0.58825240332E+02  0.22309017606E+03  0.77000000000E+02 0.  0.
   -5000001    1    1    2    0    0  0.80652604624E+02 -0.18405155561E+03  0.27305027702E+03  0.34765683013E+03  0.77000000000E+02 0.  0.
<mgrwt>
<rscale>  0 0.46433909E+03</rscale>
<asrwt>0</asrwt>
<pdfrwt beam="1">  1        2 0.64473038E-01 0.46433909E+03</pdfrwt>
<pdfrwt beam="2">  1       -2 0.17062249E-01 0.46433909E+03</pdfrwt>
<totfact> 0.21071791E+03</totfact>
</mgrwt>
</event>
<event>
 4    1  0.6853809E-004  0.2439932E+03  0.7818608E-02  0.1117161E+00
         -2   -1    0    0    0  501 -0.00000000000E+00  0.00000000000E+00  0.87627059458E+01  0.87627063169E+01  0.25500000000E-02 0. -1.
          2   -1    0    0  501    0  0.00000000000E+00 -0.00000000000E+00 -0.16984674639E+04  0.16984674639E+04  0.25500000000E-02 0.  1.
    5000001    1    1    2    0    0 -0.43440603319E+02  0.48481149202E+02 -0.36430989968E+03  0.37800556987E+03  0.77000000000E+02 0.  0.
   -5000001    1    1    2    0    0  0.43440603319E+02 -0.48481149202E+02 -0.13253948583E+04  0.13292246004E+04  0.77000000000E+02 0.  0.
<mgrwt>
<rscale>  0 0.24399321E+03</rscale>
<asrwt>0</asrwt>
<pdfrwt beam="1">  1        2 0.24263800E+00 0.24399321E+03</pdfrwt>
<pdfrwt beam="2">  1       -2 0.12518162E-02 0.24399321E+03</pdfrwt>
<totfact> 0.18986213E+04</totfact>
</mgrwt>
</event>
<event>
 4    1  0.6853809E-004  0.1674218E+03  0.7818608E-02  0.1180564E+00
          2   -1    0    0  501    0  0.00000000000E+00  0.00000000000E+00  0.24468486668E+04  0.24468486668E+04  0.25500000000E-02 0.  1.
         -2   -1    0    0    0  501 -0.00000000000E+00 -0.00000000000E+00 -0.28638915584E+01  0.28638926937E+01  0.25500000000E-02 0. -1.
    5000001    1    1    2    0    0  0.16717584413E+02  0.22825965246E+02  0.97802479331E+03  0.98145911716E+03  0.77000000000E+02 0.  0.
   -5000001    1    1    2    0    0 -0.16717584413E+02 -0.22825965246E+02  0.14659599819E+04  0.14682534423E+04  0.77000000000E+02 0.  0.
<mgrwt>
<rscale>  0 0.16742175E+03</rscale>
<asrwt>0</asrwt>
<pdfrwt beam="1">  1        2 0.34954813E+00 0.16742175E+03</pdfrwt>
<pdfrwt beam="2">  1       -2 0.40912941E-03 0.16742175E+03</pdfrwt>
<totfact> 0.40324331E+04</totfact>
</mgrwt>
</event>
<event>
 4    1  0.6853809E-004  0.2349606E+03  0.7818608E-02  0.1123196E+00
          2   -1    0    0  501    0  0.00000000000E+00  0.00000000000E+00  0.60488941465E+03  0.60488941466E+03  0.25500000000E-02 0.  1.
         -2   -1    0    0    0  501 -0.00000000000E+00 -0.00000000000E+00 -0.22816770025E+02  0.22816770168E+02  0.25500000000E-02 0. -1.
    5000001    1    1    2    0    0 -0.88407738399E+02 -0.70947037352E+01  0.28429912880E+03  0.30760568536E+03  0.77000000000E+02 0.  0.
   -5000001    1    1    2    0    0  0.88407738399E+02  0.70947037352E+01  0.29777351583E+03  0.32010049946E+03  0.77000000000E+02 0.  0.
<mgrwt>
<rscale>  0 0.23496062E+03</rscale>
<asrwt>0</asrwt>
<pdfrwt beam="1">  1        2 0.86412774E-01 0.23496062E+03</pdfrwt>
<pdfrwt beam="2">  1       -2 0.32595386E-02 0.23496062E+03</pdfrwt>
<totfact> 0.20053693E+04</totfact>
</mgrwt>
</event>
<event>
 4    1  0.6853809E-004  0.2680686E+03  0.7818608E-02  0.1102390E+00
          2   -1    0    0  501    0  0.00000000000E+00  0.00000000000E+00  0.36471412677E+03  0.36471412678E+03  0.25500000000E-02 0.  1.
         -2   -1    0    0    0  501 -0.00000000000E+00 -0.00000000000E+00 -0.49258300702E+02  0.49258300768E+02  0.25500000000E-02 0. -1.
    5000001    1    1    2    0    0  0.11660053703E+02  0.94473191969E+02  0.24195913113E+03  0.27117219989E+03  0.77000000000E+02 0.  0.
   -5000001    1    1    2    0    0 -0.11660053703E+02 -0.94473191969E+02  0.73496694934E+02  0.14280022766E+03  0.77000000000E+02 0.  0.
<mgrwt>
<rscale>  0 0.26806863E+03</rscale>
<asrwt>0</asrwt>
<pdfrwt beam="1">  1        2 0.52102018E-01 0.26806863E+03</pdfrwt>
<pdfrwt beam="2">  1       -2 0.70369001E-02 0.26806863E+03</pdfrwt>
<totfact> 0.10970003E+04</totfact>
</mgrwt>
</event>
<event>
 4    1  0.6853809E-004  0.3366549E+03  0.7818608E-02  0.1068230E+00
         -2   -1    0    0    0  501 -0.00000000000E+00  0.00000000000E+00  0.42463936922E+03  0.42463936923E+03  0.25500000000E-02 0. -1.
          2   -1    0    0  501    0  0.00000000000E+00 -0.00000000000E+00 -0.66725167781E+02  0.66725167829E+02  0.25500000000E-02 0.  1.
    5000001    1    1    2    0    0 -0.12779479131E+03 -0.75905972570E+02  0.20473407726E+03  0.26445844238E+03  0.77000000000E+02 0.  0.
   -5000001    1    1    2    0    0  0.12779479131E+03  0.75905972570E+02  0.15318012419E+03  0.22690609468E+03  0.77000000000E+02 0.  0.
<mgrwt>
<rscale>  0 0.33665492E+03</rscale>
<asrwt>0</asrwt>
<pdfrwt beam="1">  1        2 0.95321667E-02 0.33665492E+03</pdfrwt>
<pdfrwt beam="2">  1       -2 0.60662768E-01 0.33665492E+03</pdfrwt>
<totfact> 0.17675020E+03</totfact>
</mgrwt>
</event>
<event>
 4    1  0.6853809E-004  0.5102999E+03  0.7818608E-02  0.1011125E+00
          2   -1    0    0  501    0  0.00000000000E+00  0.00000000000E+00  0.96556768242E+03  0.96556768243E+03  0.25500000000E-02 0.  1.
         -2   -1    0    0    0  501 -0.00000000000E+00 -0.00000000000E+00 -0.67423030445E+02  0.67423030493E+02  0.25500000000E-02 0. -1.
    5000001    1    1    2    0    0  0.69823843109E+02 -0.18751736858E+03  0.16905946921E+03  0.27303522980E+03  0.77000000000E+02 0.  0.
   -5000001    1    1    2    0    0 -0.69823843109E+02  0.18751736858E+03  0.72908518277E+03  0.75995548312E+03  0.77000000000E+02 0.  0.
<mgrwt>
<rscale>  0 0.51029991E+03</rscale>
<asrwt>0</asrwt>
<pdfrwt beam="1">  1        2 0.13793823E+00 0.51029991E+03</pdfrwt>
<pdfrwt beam="2">  1       -2 0.96318622E-02 0.51029991E+03</pdfrwt>
<totfact> 0.21568669E+03</totfact>
</mgrwt>
</event>
<event>
 4    1  0.6853809E-004  0.2113765E+03  0.7818608E-02  0.1140481E+00
         -2   -1    0    0    0  501 -0.00000000000E+00  0.00000000000E+00  0.22162272997E+02  0.22162273143E+02  0.25500000000E-02 0. -1.
          2   -1    0    0  501    0  0.00000000000E+00 -0.00000000000E+00 -0.50400975692E+03  0.50400975693E+03  0.25500000000E-02 0.  1.
    5000001    1    1    2    0    0  0.63105987122E+01 -0.69575182099E+02 -0.28818519351E+03  0.30636617859E+03  0.77000000000E+02 0.  0.
   -5000001    1    1    2    0    0 -0.63105987122E+01  0.69575182099E+02 -0.19366229041E+03  0.21980585148E+03  0.77000000000E+02 0.  0.
<mgrwt>
<rscale>  0 0.21137646E+03</rscale>
<asrwt>0</asrwt>
<pdfrwt beam="1">  1        2 0.72001387E-01 0.21137646E+03</pdfrwt>
<pdfrwt beam="2">  1       -2 0.31660393E-02 0.21137646E+03</pdfrwt>
<totfact> 0.25500782E+04</totfact>
</mgrwt>
</event>
<event>
 4    1  0.6853809E-004  0.6461101E+03  0.7818608E-02  0.9814106E-01
          2   -1    0    0  501    0  0.00000000000E+00  0.00000000000E+00  0.10384832335E+04  0.10384832335E+04  0.25500000000E-02 0.  1.
         -2   -1    0    0    0  501 -0.00000000000E+00 -0.00000000000E+00 -0.10049711160E+03  0.10049711164E+03  0.25500000000E-02 0. -1.
    5000001    1    1    2    0    0 -0.42000812802E+01 -0.29707622418E+03  0.29127385079E+03  0.42313281580E+03  0.77000000000E+02 0.  0.
   -5000001    1    1    2    0    0  0.42000812802E+01  0.29707622418E+03  0.64671227109E+03  0.71584752932E+03  0.77000000000E+02 0.  0.
<mgrwt>
<rscale>  0 0.64611010E+03</rscale>
<asrwt>0</asrwt>
<pdfrwt beam="1">  1        2 0.14835475E+00 0.64611010E+03</pdfrwt>
<pdfrwt beam="2">  1       -2 0.14356730E-01 0.64611010E+03</pdfrwt>
<totfact> 0.10087015E+03</totfact>
</mgrwt>
</event>
<event>
 4    1  0.6853809E-004  0.1871436E+03  0.7818608E-02  0.1161063E+00
         -2   -1    0    0    0  501 -0.00000000000E+00  0.00000000000E+00  0.27479504029E+02  0.27479504148E+02  0.25500000000E-02 0. -1.
          2   -1    0    0  501    0  0.00000000000E+00 -0.00000000000E+00 -0.31862587294E+03  0.31862587295E+03  0.25500000000E-02 0.  1.
    5000001    1    1    2    0    0  0.13256584065E+02 -0.51076054729E+02 -0.13356189230E+03  0.16294870194E+03  0.77000000000E+02 0.  0.
   -5000001    1    1    2    0    0 -0.13256584065E+02  0.51076054729E+02 -0.15758447661E+03  0.18315667516E+03  0.77000000000E+02 0.  0.
<mgrwt>
<rscale>  0 0.18714359E+03</rscale>
<asrwt>0</asrwt>
<pdfrwt beam="1">  1        2 0.45517980E-01 0.18714359E+03</pdfrwt>
<pdfrwt beam="2">  1       -2 0.39256436E-02 0.18714359E+03</pdfrwt>
<totfact> 0.30057414E+04</totfact>
</mgrwt>
</event>
<event>
 4    1  0.6853809E-004  0.1932832E+03  0.7818608E-02  0.1155533E+00
          2   -1    0    0  501    0  0.00000000000E+00  0.00000000000E+00  0.23854421980E+03  0.23854421981E+03  0.25500000000E-02 0.  1.
         -2   -1    0    0    0  501 -0.00000000000E+00 -0.00000000000E+00 -0.39152465307E+02  0.39152465390E+02  0.25500000000E-02 0. -1.
    5000001    1    1    2    0    0  0.51631238600E+02  0.23662869352E+02  0.11923114867E+03  0.15287505682E+03  0.77000000000E+02 0.  0.
   -5000001    1    1    2    0    0 -0.51631238600E+02 -0.23662869352E+02  0.80160605818E+02  0.12482162838E+03  0.77000000000E+02 0.  0.
<mgrwt>
<rscale>  0 0.19328315E+03</rscale>
<asrwt>0</asrwt>
<pdfrwt beam="1">  1        2 0.34077746E-01 0.19328315E+03</pdfrwt>
<pdfrwt beam="2">  1       -2 0.55932094E-02 0.19328315E+03</pdfrwt>
<totfact> 0.24121997E+04</totfact>
</mgrwt>
</event>
<event>
 4    1  0.6853809E-004  0.4657999E+03  0.7818608E-02  0.1023112E+00
         -2   -1    0    0    0  501 -0.00000000000E+00  0.00000000000E+00  0.34362311295E+02  0.34362311389E+02  0.25500000000E-02 0. -1.
          2   -1    0    0  501    0  0.00000000000E+00 -0.00000000000E+00 -0.15785428898E+04  0.15785428898E+04  0.25500000000E-02 0.  1.
    5000001    1    1    2    0    0 -0.69211034600E+01  0.18216231283E+03 -0.34684031242E+03  0.39932219098E+03  0.77000000000E+02 0.  0.
   -5000001    1    1    2    0    0  0.69211034600E+01 -0.18216231283E+03 -0.11973402661E+04  0.12135830102E+04  0.77000000000E+02 0.  0.
<mgrwt>
<rscale>  0 0.46579988E+03</rscale>
<asrwt>0</asrwt>
<pdfrwt beam="1">  1        2 0.22550608E+00 0.46579988E+03</pdfrwt>
<pdfrwt beam="2">  1       -2 0.49089026E-02 0.46579988E+03</pdfrwt>
<totfact> 0.28640940E+03</totfact>
</mgrwt>
</event>
<event>
 4    1  0.6853809E-004  0.2183463E+03  0.7818608E-02  0.1135122E+00
         -2   -1    0    0    0  501 -0.00000000000E+00  0.00000000000E+00  0.94981007670E+02  0.94981007704E+02  0.25500000000E-02 0. -1.
          2   -1    0    0  501    0  0.00000000000E+00 -0.00000000000E+00 -0.12548587590E+03  0.12548587593E+03  0.25500000000E-02 0.  1.
    5000001    1    1    2    0    0  0.44687000368E+02  0.11096141183E+02 -0.78063689653E+02  0.11892431204E+03  0.77000000000E+02 0.  0.
   -5000001    1    1    2    0    0 -0.44687000368E+02 -0.11096141183E+02  0.47558821422E+02  0.10154257159E+03  0.77000000000E+02 0.  0.
<mgrwt>
<rscale>  0 0.21834628E+03</rscale>
<asrwt>0</asrwt>
<pdfrwt beam="1">  1        2 0.17926554E-01 0.21834628E+03</pdfrwt>
<pdfrwt beam="2">  1       -2 0.13568715E-01 0.21834628E+03</pdfrwt>
<totfact> 0.12406081E+04</totfact>
</mgrwt>
</event>
<event>
 4    1  0.6853809E-004  0.2213214E+03  0.7818608E-02  0.1132902E+00
         -2   -1    0    0    0  501 -0.00000000000E+00  0.00000000000E+00  0.20687296715E+04  0.20687296715E+04  0.25500000000E-02 0. -1.
          2   -1    0    0  501    0  0.00000000000E+00 -0.00000000000E+00 -0.59194754183E+01  0.59194759676E+01  0.25500000000E-02 0.  1.
    5000001    1    1    2    0    0  0.59175460520E+02  0.52398004108E+02  0.11095574117E+04  0.11150309125E+04  0.77000000000E+02 0.  0.
   -5000001    1    1    2    0    0 -0.59175460520E+02 -0.52398004108E+02  0.95325278438E+03  0.95961823497E+03  0.77000000000E+02 0.  0.
<mgrwt>
<rscale>  0 0.22132144E+03</rscale>
<asrwt>0</asrwt>
<pdfrwt beam="1">  1        2 0.84563818E-03 0.22132144E+03</pdfrwt>
<pdfrwt beam="2">  1       -2 0.29553323E+00 0.22132144E+03</pdfrwt>
<totfact> 0.70756214E+02</totfact>
</mgrwt>
</event>
<event>
 4    1  0.6853809E-004  0.1837134E+03  0.7818608E-02  0.1164257E+00
          2   -1    0    0  501    0  0.00000000000E+00  0.00000000000E+00  0.86172538422E+03  0.86172538422E+03  0.25500000000E-02 0.  1.
         -2   -1    0    0    0  501 -0.00000000000E+00 -0.00000000000E+00 -0.97915788075E+01  0.97915791395E+01  0.25500000000E-02 0. -1.
    5000001    1    1    2    0    0 -0.41335418917E+02 -0.26522226760E+02  0.37933975394E+03  0.39017905414E+03  0.77000000000E+02 0.  0.
   -5000001    1    1    2    0    0  0.41335418917E+02  0.26522226760E+02  0.47259405147E+03  0.48133790922E+03  0.77000000000E+02 0.  0.
<mgrwt>
<rscale>  0 0.18371339E+03</rscale>
<asrwt>0</asrwt>
<pdfrwt beam="1">  1        2 0.12310357E+00 0.18371339E+03</pdfrwt>
<pdfrwt beam="2">  1       -2 0.13987976E-02 0.18371339E+03</pdfrwt>
<totfact> 0.44686577E+04</totfact>
</mgrwt>
</event>
<event>
 4    1  0.6853809E-004  0.1882221E+03  0.7818608E-02  0.1160075E+00
          2   -1    0    0  501    0  0.00000000000E+00  0.00000000000E+00  0.17164057904E+04  0.17164057904E+04  0.25500000000E-02 0.  1.
         -2   -1    0    0    0  501 -0.00000000000E+00 -0.00000000000E+00 -0.51601367305E+01  0.51601373605E+01  0.25500000000E-02 0. -1.
    5000001    1    1    2    0    0 -0.99027961302E+01  0.49987925651E+02  0.68920976585E+03  0.69536749955E+03  0.77000000000E+02 0.  0.
   -5000001    1    1    2    0    0  0.99027961302E+01 -0.49987925651E+02  0.10220358878E+04  0.10261984282E+04  0.77000000000E+02 0.  0.
<mgrwt>
<rscale>  0 0.18822209E+03</rscale>
<asrwt>0</asrwt>
<pdfrwt beam="1">  1        2 0.24520073E+00 0.18822209E+03</pdfrwt>
<pdfrwt beam="2">  1       -2 0.73716273E-03 0.18822209E+03</pdfrwt>
<totfact> 0.39441890E+04</totfact>
</mgrwt>
</event>
<event>
 4    1  0.6853809E-004  0.5821736E+03  0.7818608E-02  0.9943096E-01
          2   -1    0    0  501    0  0.00000000000E+00  0.00000000000E+00  0.10007127525E+04  0.10007127525E+04  0.25500000000E-02 0.  1.
         -2   -1    0    0    0  501 -0.00000000000E+00 -0.00000000000E+00 -0.84671176447E+02  0.84671176485E+02  0.25500000000E-02 0. -1.
    5000001    1    1    2    0    0 -0.12872183550E+02  0.28034164627E+03  0.44545957387E+03  0.53209055968E+03  0.77000000000E+02 0.  0.
   -5000001    1    1    2    0    0  0.12872183550E+02 -0.28034164627E+03  0.47058200218E+03  0.55329336931E+03  0.77000000000E+02 0.  0.
<mgrwt>
<rscale>  0 0.58217360E+03</rscale>
<asrwt>0</asrwt>
<pdfrwt beam="1">  1        2 0.14295896E+00 0.58217360E+03</pdfrwt>
<pdfrwt beam="2">  1       -2 0.12095883E-01 0.58217360E+03</pdfrwt>
<totfact> 0.14154932E+03</totfact>
</mgrwt>
</event>
<event>
 4    1  0.6853809E-004  0.4341886E+03  0.7818608E-02  0.1032545E+00
          2   -1    0    0  501    0  0.00000000000E+00  0.00000000000E+00  0.24306771320E+04  0.24306771320E+04  0.25500000000E-02 0.  1.
         -2   -1    0    0    0  501 -0.00000000000E+00 -0.00000000000E+00 -0.19389627470E+02  0.19389627637E+02  0.25500000000E-02 0. -1.
    5000001    1    1    2    0    0  0.22944998060E+01 -0.19239293717E+03  0.15704982949E+04  0.15841130645E+04  0.77000000000E+02 0.  0.
   -5000001    1    1    2    0    0 -0.22944998060E+01  0.19239293717E+03  0.84078920963E+03  0.86595369509E+03  0.77000000000E+02 0.  0.
<mgrwt>
<rscale>  0 0.43418855E+03</rscale>
<asrwt>0</asrwt>
<pdfrwt beam="1">  1        2 0.34723948E+00 0.43418855E+03</pdfrwt>
<pdfrwt beam="2">  1       -2 0.27699477E-02 0.43418855E+03</pdfrwt>
<totfact> 0.25650630E+03</totfact>
</mgrwt>
</event>
<event>
 4    1  0.6853809E-004  0.2490328E+03  0.7818608E-02  0.1113918E+00
         -2   -1    0    0    0  501 -0.00000000000E+00  0.00000000000E+00  0.23263762112E+02  0.23263762251E+02  0.25500000000E-02 0. -1.
          2   -1    0    0  501    0  0.00000000000E+00 -0.00000000000E+00 -0.66645857824E+03  0.66645857824E+03  0.25500000000E-02 0.  1.
    5000001    1    1    2    0    0  0.73600095366E+02  0.59396048221E+02 -0.25205500243E+03  0.28000997988E+03  0.77000000000E+02 0.  0.
   -5000001    1    1    2    0    0 -0.73600095366E+02 -0.59396048221E+02 -0.39113981370E+03  0.40971236062E+03  0.77000000000E+02 0.  0.
<mgrwt>
<rscale>  0 0.24903280E+03</rscale>
<asrwt>0</asrwt>
<pdfrwt beam="1">  1        2 0.95208357E-01 0.24903280E+03</pdfrwt>
<pdfrwt beam="2">  1       -2 0.33233950E-02 0.24903280E+03</pdfrwt>
<totfact> 0.17478580E+04</totfact>
</mgrwt>
</event>
<event>
 4    1  0.6853809E-004  0.1923463E+03  0.7818608E-02  0.1156362E+00
         -2   -1    0    0    0  501 -0.00000000000E+00  0.00000000000E+00  0.31658352589E+03  0.31658352590E+03  0.25500000000E-02 0. -1.
          2   -1    0    0  501    0  0.00000000000E+00 -0.00000000000E+00 -0.29215901152E+02  0.29215901264E+02  0.25500000000E-02 0.  1.
    5000001    1    1    2    0    0 -0.34268711652E+02 -0.41665260696E+02  0.10728412154E+03  0.14265069675E+03  0.77000000000E+02 0.  0.
   -5000001    1    1    2    0    0  0.34268711652E+02  0.41665260696E+02  0.18008350320E+03  0.20314873042E+03  0.77000000000E+02 0.  0.
<mgrwt>
<rscale>  0 0.19234628E+03</rscale>
<asrwt>0</asrwt>
<pdfrwt beam="1">  1        2 0.41737000E-02 0.19234628E+03</pdfrwt>
<pdfrwt beam="2">  1       -2 0.45226219E-01 0.19234628E+03</pdfrwt>
<totfact> 0.90864215E+03</totfact>
</mgrwt>
</event>
<event>
 4    1  0.6853809E-004  0.2569061E+03  0.7818608E-02  0.1109016E+00
         -2   -1    0    0    0  501 -0.00000000000E+00  0.00000000000E+00  0.22534958547E+02  0.22534958691E+02  0.25500000000E-02 0. -1.
          2   -1    0    0  501    0  0.00000000000E+00 -0.00000000000E+00 -0.73220391153E+03  0.73220391154E+03  0.25500000000E-02 0.  1.
    5000001    1    1    2    0    0 -0.48151908378E+00 -0.10239811467E+03 -0.32765718461E+03  0.35181505990E+03  0.77000000000E+02 0.  0.
   -5000001    1    1    2    0    0  0.48151908378E+00  0.10239811467E+03 -0.38201176838E+03  0.40292381033E+03  0.77000000000E+02 0.  0.
<mgrwt>
<rscale>  0 0.25690609E+03</rscale>
<asrwt>0</asrwt>
<pdfrwt beam="1">  1        2 0.10460054E+00 0.25690609E+03</pdfrwt>
<pdfrwt beam="2">  1       -2 0.32192803E-02 0.25690609E+03</pdfrwt>
<totfact> 0.16422249E+04</totfact>
</mgrwt>
</event>
<event>
 4    1  0.6853809E-004  0.2252478E+03  0.7818608E-02  0.1130030E+00
         -2   -1    0    0    0  501 -0.00000000000E+00  0.00000000000E+00  0.58052207504E+01  0.58052213105E+01  0.25500000000E-02 0. -1.
          2   -1    0    0  501    0  0.00000000000E+00 -0.00000000000E+00 -0.21849550158E+04  0.21849550158E+04  0.25500000000E-02 0.  1.
    5000001    1    1    2    0    0  0.51143357853E+01  0.50993586332E+02 -0.17145143901E+04  0.17170075993E+04  0.77000000000E+02 0.  0.
   -5000001    1    1    2    0    0 -0.51143357853E+01 -0.50993586332E+02 -0.46463540492E+03  0.47375263775E+03  0.77000000000E+02 0.  0.
<mgrwt>
<rscale>  0 0.22524784E+03</rscale>
<asrwt>0</asrwt>
<pdfrwt beam="1">  1        2 0.31213590E+00 0.22524784E+03</pdfrwt>
<pdfrwt beam="2">  1       -2 0.82931869E-03 0.22524784E+03</pdfrwt>
<totfact> 0.19936746E+04</totfact>
</mgrwt>
</event>
<event>
 4    1  0.6853809E-004  0.2427266E+03  0.7818608E-02  0.1117990E+00
         -2   -1    0    0    0  501 -0.00000000000E+00  0.00000000000E+00  0.33573640493E+02  0.33573640590E+02  0.25500000000E-02 0. -1.
          2   -1    0    0  501    0  0.00000000000E+00 -0.00000000000E+00 -0.43870871910E+03  0.43870871911E+03  0.25500000000E-02 0.  1.
    5000001    1    1    2    0    0  0.92123248573E+02  0.17628152459E+02 -0.19942762539E+03  0.23344768676E+03  0.77000000000E+02 0.  0.
   -5000001    1    1    2    0    0 -0.92123248573E+02 -0.17628152459E+02 -0.20570745322E+03  0.23883467294E+03  0.77000000000E+02 0.  0.
<mgrwt>
<rscale>  0 0.24272659E+03</rscale>
<asrwt>0</asrwt>
<pdfrwt beam="1">  1        2 0.62672671E-01 0.24272659E+03</pdfrwt>
<pdfrwt beam="2">  1       -2 0.47962346E-02 0.24272659E+03</pdfrwt>
<totfact> 0.16070811E+04</totfact>
</mgrwt>
</event>
<event>
 4    1  0.6853809E-004  0.2520110E+03  0.7818608E-02  0.1112040E+00
          2   -1    0    0  501    0  0.00000000000E+00  0.00000000000E+00  0.10419571047E+03  0.10419571050E+03  0.25500000000E-02 0.  1.
         -2   -1    0    0    0  501 -0.00000000000E+00 -0.00000000000E+00 -0.15238046012E+03  0.15238046015E+03  0.25500000000E-02 0. -1.
    5000001    1    1    2    0    0 -0.58032862636E+02 -0.73109523728E+02  0.11695117449E+02  0.12156722987E+03  0.77000000000E+02 0.  0.
   -5000001    1    1    2    0    0  0.58032862636E+02  0.73109523728E+02 -0.59879867104E+02  0.13500894078E+03  0.77000000000E+02 0.  0.
<mgrwt>
<rscale>  0 0.25201103E+03</rscale>
<asrwt>0</asrwt>
<pdfrwt beam="1">  1        2 0.14885101E-01 0.25201103E+03</pdfrwt>
<pdfrwt beam="2">  1       -2 0.21768637E-01 0.25201103E+03</pdfrwt>
<totfact> 0.70401594E+03</totfact>
</mgrwt>
</event>
<event>
 4    1  0.6853809E-004  0.4108470E+03  0.7818608E-02  0.1040087E+00
          2   -1    0    0  501    0  0.00000000000E+00  0.00000000000E+00  0.74270279133E+03  0.74270279133E+03  0.25500000000E-02 0.  1.
         -2   -1    0    0    0  501 -0.00000000000E+00 -0.00000000000E+00 -0.56817893399E+02  0.56817893456E+02  0.25500000000E-02 0. -1.
    5000001    1    1    2    0    0  0.14977915640E+03 -0.10718001062E+03  0.43724880969E+03  0.48066295046E+03  0.77000000000E+02 0.  0.
   -5000001    1    1    2    0    0 -0.14977915640E+03  0.10718001062E+03  0.24863608824E+03  0.31885773433E+03  0.77000000000E+02 0.  0.
<mgrwt>
<rscale>  0 0.41084697E+03</rscale>
<asrwt>0</asrwt>
<pdfrwt beam="1">  1        2 0.10610040E+00 0.41084697E+03</pdfrwt>
<pdfrwt beam="2">  1       -2 0.81168420E-02 0.41084697E+03</pdfrwt>
<totfact> 0.39749203E+03</totfact>
</mgrwt>
</event>
<event>
 4    1  0.6853809E-004  0.3864176E+03  0.7818608E-02  0.1048587E+00
         -2   -1    0    0    0  501 -0.00000000000E+00  0.00000000000E+00  0.33897948678E+02  0.33897948774E+02  0.25500000000E-02 0. -1.
          2   -1    0    0  501    0  0.00000000000E+00 -0.00000000000E+00 -0.11012360305E+04  0.11012360305E+04  0.25500000000E-02 0.  1.
    5000001    1    1    2    0    0 -0.15552928613E+03  0.68898306239E+02 -0.67949593400E+03  0.70468436889E+03  0.77000000000E+02 0.  0.
   -5000001    1    1    2    0    0  0.15552928613E+03 -0.68898306239E+02 -0.38784214779E+03  0.43044961035E+03  0.77000000000E+02 0.  0.
<mgrwt>
<rscale>  0 0.38641761E+03</rscale>
<asrwt>0</asrwt>
<pdfrwt beam="1">  1        2 0.15731941E+00 0.38641761E+03</pdfrwt>
<pdfrwt beam="2">  1       -2 0.48425648E-02 0.38641761E+03</pdfrwt>
<totfact> 0.52589318E+03</totfact>
</mgrwt>
</event>
<event>
 4    1  0.6853809E-004  0.1613838E+03  0.7818608E-02  0.1187143E+00
         -2   -1    0    0    0  501 -0.00000000000E+00  0.00000000000E+00  0.35606521619E+02  0.35606521710E+02  0.25500000000E-02 0. -1.
          2   -1    0    0  501    0  0.00000000000E+00 -0.00000000000E+00 -0.18286489518E+03  0.18286489520E+03  0.25500000000E-02 0.  1.
    5000001    1    1    2    0    0 -0.16385841517E+02  0.17708887165E+02 -0.74017708518E+02  0.10949758747E+03  0.77000000000E+02 0.  0.
   -5000001    1    1    2    0    0  0.16385841517E+02 -0.17708887165E+02 -0.73240665041E+02  0.10897382944E+03  0.77000000000E+02 0.  0.
<mgrwt>
<rscale>  0 0.16138380E+03</rscale>
<asrwt>0</asrwt>
<pdfrwt beam="1">  1        2 0.26123556E-01 0.16138380E+03</pdfrwt>
<pdfrwt beam="2">  1       -2 0.50866461E-02 0.16138380E+03</pdfrwt>
<totfact> 0.36599429E+04</totfact>
</mgrwt>
</event>
<event>
 4    1  0.6853809E-004  0.1709389E+03  0.7818608E-02  0.1176872E+00
         -2   -1    0    0    0  501 -0.00000000000E+00  0.00000000000E+00  0.27043540664E+03  0.27043540665E+03  0.25500000000E-02 0. -1.
          2   -1    0    0  501    0  0.00000000000E+00 -0.00000000000E+00 -0.27012108514E+02  0.27012108634E+02  0.25500000000E-02 0.  1.
    5000001    1    1    2    0    0  0.29845194941E+02  0.51291919841E+01  0.15899107290E+03  0.17923226699E+03  0.77000000000E+02 0.  0.
   -5000001    1    1    2    0    0 -0.29845194941E+02 -0.51291919841E+01  0.84432225233E+02  0.11821524829E+03  0.77000000000E+02 0.  0.
<mgrwt>
<rscale>  0 0.17093894E+03</rscale>
<asrwt>0</asrwt>
<pdfrwt beam="1">  1        2 0.38588725E-02 0.17093894E+03</pdfrwt>
<pdfrwt beam="2">  1       -2 0.38633631E-01 0.17093894E+03</pdfrwt>
<totfact> 0.13509841E+04</totfact>
</mgrwt>
</event>
<event>
 4    1  0.6853809E-004  0.2101349E+03  0.7818608E-02  0.1141459E+00
         -2   -1    0    0    0  501 -0.00000000000E+00  0.00000000000E+00  0.20038974320E+02  0.20038974482E+02  0.25500000000E-02 0. -1.
          2   -1    0    0  501    0  0.00000000000E+00 -0.00000000000E+00 -0.55088509857E+03  0.55088509858E+03  0.25500000000E-02 0.  1.
    5000001    1    1    2    0    0  0.48740356656E+02 -0.46762591654E+02 -0.20183214358E+03  0.22633509787E+03  0.77000000000E+02 0.  0.
   -5000001    1    1    2    0    0 -0.48740356656E+02  0.46762591654E+02 -0.32901398067E+03  0.34458897519E+03  0.77000000000E+02 0.  0.
<mgrwt>
<rscale>  0 0.21013493E+03</rscale>
<asrwt>0</asrwt>
<pdfrwt beam="1">  1        2 0.78697862E-01 0.21013493E+03</pdfrwt>
<pdfrwt beam="2">  1       -2 0.28627110E-02 0.21013493E+03</pdfrwt>
<totfact> 0.26815414E+04</totfact>
</mgrwt>
</event>
<event>
 4    1  0.6853809E-004  0.1757631E+03  0.7818608E-02  0.1171968E+00
         -2   -1    0    0    0  501 -0.00000000000E+00  0.00000000000E+00  0.62982945869E+02  0.62982945920E+02  0.25500000000E-02 0. -1.
          2   -1    0    0  501    0  0.00000000000E+00 -0.00000000000E+00 -0.12262316149E+03  0.12262316152E+03  0.25500000000E-02 0.  1.
    5000001    1    1    2    0    0 -0.10739663880E+02 -0.34042630501E+02 -0.53898953415E+02  0.10054023200E+03  0.77000000000E+02 0.  0.
   -5000001    1    1    2    0    0  0.10739663880E+02  0.34042630501E+02 -0.57412622057E+01  0.85065875434E+02  0.77000000000E+02 0.  0.
<mgrwt>
<rscale>  0 0.17576311E+03</rscale>
<asrwt>0</asrwt>
<pdfrwt beam="1">  1        2 0.17517594E-01 0.17576311E+03</pdfrwt>
<pdfrwt beam="2">  1       -2 0.89975638E-02 0.17576311E+03</pdfrwt>
<totfact> 0.24135333E+04</totfact>
</mgrwt>
</event>
<event>
 4    1  0.6853809E-004  0.2265009E+03  0.7818608E-02  0.1129127E+00
         -2   -1    0    0    0  501 -0.00000000000E+00  0.00000000000E+00  0.97727041210E+01  0.97727044537E+01  0.25500000000E-02 0. -1.
          2   -1    0    0  501    0  0.00000000000E+00 -0.00000000000E+00 -0.13123966276E+04  0.13123966276E+04  0.25500000000E-02 0.  1.
    5000001    1    1    2    0    0  0.33268074832E+01  0.55794463844E+02 -0.29277325020E+03  0.30784617243E+03  0.77000000000E+02 0.  0.
   -5000001    1    1    2    0    0 -0.33268074832E+01 -0.55794463844E+02 -0.10098506733E+04  0.10143231597E+04  0.77000000000E+02 0.  0.
<mgrwt>
<rscale>  0 0.22650090E+03</rscale>
<asrwt>0</asrwt>
<pdfrwt beam="1">  1        2 0.18748512E+00 0.22650090E+03</pdfrwt>
<pdfrwt beam="2">  1       -2 0.13961015E-02 0.22650090E+03</pdfrwt>
<totfact> 0.25258852E+04</totfact>
</mgrwt>
</event>
<event>
 4    1  0.6853809E-004  0.2412137E+03  0.7818608E-02  0.1118987E+00
         -2   -1    0    0    0  501 -0.00000000000E+00  0.00000000000E+00  0.10803800763E+02  0.10803801064E+02  0.25500000000E-02 0. -1.
          2   -1    0    0  501    0  0.00000000000E+00 -0.00000000000E+00 -0.13463793154E+04  0.13463793154E+04  0.25500000000E-02 0.  1.
    5000001    1    1    2    0    0  0.12529574872E+02 -0.91915046493E+02 -0.68699050162E+03  0.69748857721E+03  0.77000000000E+02 0.  0.
   -5000001    1    1    2    0    0 -0.12529574872E+02  0.91915046493E+02 -0.64858501302E+03  0.65969453926E+03  0.77000000000E+02 0.  0.
<mgrwt>
<rscale>  0 0.24121372E+03</rscale>
<asrwt>0</asrwt>
<pdfrwt beam="1">  1        2 0.19233979E+00 0.24121372E+03</pdfrwt>
<pdfrwt beam="2">  1       -2 0.15434010E-02 0.24121372E+03</pdfrwt>
<totfact> 0.21020570E+04</totfact>
</mgrwt>
</event>
<event>
 4    1  0.6853809E-004  0.2487875E+03  0.7818608E-02  0.1114074E+00
         -2   -1    0    0    0  501 -0.00000000000E+00  0.00000000000E+00  0.39628078924E+02  0.39628079006E+02  0.25500000000E-02 0. -1.
          2   -1    0    0  501    0  0.00000000000E+00 -0.00000000000E+00 -0.39047569289E+03  0.39047569290E+03  0.25500000000E-02 0.  1.
    5000001    1    1    2    0    0 -0.45350610201E+02 -0.82727183772E+02 -0.13154031119E+03  0.17925489742E+03  0.77000000000E+02 0.  0.
   -5000001    1    1    2    0    0  0.45350610201E+02  0.82727183772E+02 -0.21930730278E+03  0.25084887449E+03  0.77000000000E+02 0.  0.
<mgrwt>
<rscale>  0 0.24878747E+03</rscale>
<asrwt>0</asrwt>
<pdfrwt beam="1">  1        2 0.55782240E-01 0.24878747E+03</pdfrwt>
<pdfrwt beam="2">  1       -2 0.56611544E-02 0.24878747E+03</pdfrwt>
<totfact> 0.14186818E+04</totfact>
</mgrwt>
</event>
<event>
 4    1  0.6853809E-004  0.2376341E+03  0.7818608E-02  0.1121379E+00
         -2   -1    0    0    0  501 -0.00000000000E+00  0.00000000000E+00  0.85977987916E+01  0.85977991697E+01  0.25500000000E-02 0. -1.
          2   -1    0    0  501    0  0.00000000000E+00 -0.00000000000E+00 -0.16419887349E+04  0.16419887349E+04  0.25500000000E-02 0.  1.
    5000001    1    1    2    0    0 -0.25387696353E+02 -0.74220486939E+02 -0.50333736031E+03  0.51519968371E+03  0.77000000000E+02 0.  0.
   -5000001    1    1    2    0    0  0.25387696353E+02  0.74220486939E+02 -0.11300535758E+04  0.11353868504E+04  0.77000000000E+02 0.  0.
<mgrwt>
<rscale>  0 0.23763408E+03</rscale>
<asrwt>0</asrwt>
<pdfrwt beam="1">  1        2 0.23456962E+00 0.23763408E+03</pdfrwt>
<pdfrwt beam="2">  1       -2 0.12282580E-02 0.23763408E+03</pdfrwt>
<totfact> 0.20785935E+04</totfact>
</mgrwt>
</event>
<event>
 4    1  0.6853809E-004  0.2749226E+03  0.7818608E-02  0.1098495E+00
         -2   -1    0    0    0  501 -0.00000000000E+00  0.00000000000E+00  0.92575417730E+02  0.92575417766E+02  0.25500000000E-02 0. -1.
          2   -1    0    0  501    0  0.00000000000E+00 -0.00000000000E+00 -0.20411045050E+03  0.20411045052E+03  0.25500000000E-02 0.  1.
    5000001    1    1    2    0    0  0.82563039716E+01  0.11277963697E+03 -0.41321371678E+02  0.14291210175E+03  0.77000000000E+02 0.  0.
   -5000001    1    1    2    0    0 -0.82563039716E+01 -0.11277963697E+03 -0.70213661091E+02  0.15377376653E+03  0.77000000000E+02 0.  0.
<mgrwt>
<rscale>  0 0.27492261E+03</rscale>
<asrwt>0</asrwt>
<pdfrwt beam="1">  1        2 0.29158636E-01 0.27492261E+03</pdfrwt>
<pdfrwt beam="2">  1       -2 0.13225060E-01 0.27492261E+03</pdfrwt>
<totfact> 0.75680374E+03</totfact>
</mgrwt>
</event>
<event>
 4    1  0.6853809E-004  0.2643891E+03  0.7818608E-02  0.1104534E+00
          2   -1    0    0  501    0  0.00000000000E+00  0.00000000000E+00  0.47870213943E+02  0.47870214011E+02  0.25500000000E-02 0.  1.
         -2   -1    0    0    0  501 -0.00000000000E+00 -0.00000000000E+00 -0.36505786434E+03  0.36505786434E+03  0.25500000000E-02 0. -1.
    5000001    1    1    2    0    0 -0.50188338772E+02  0.89230318439E+02 -0.10761341459E+03  0.16730381370E+03  0.77000000000E+02 0.  0.
   -5000001    1    1    2    0    0  0.50188338772E+02 -0.89230318439E+02 -0.20957423580E+03  0.24562426466E+03  0.77000000000E+02 0.  0.
<mgrwt>
<rscale>  0 0.26438909E+03</rscale>
<asrwt>0</asrwt>
<pdfrwt beam="1">  1        2 0.68386022E-02 0.26438909E+03</pdfrwt>
<pdfrwt beam="2">  1       -2 0.52151122E-01 0.26438909E+03</pdfrwt>
<totfact> 0.36514004E+03</totfact>
</mgrwt>
</event>
<event>
 4    1  0.6853809E-004  0.2199350E+03  0.7818608E-02  0.1133932E+00
         -2   -1    0    0    0  501 -0.00000000000E+00  0.00000000000E+00  0.39551734663E+02  0.39551734745E+02  0.25500000000E-02 0. -1.
          2   -1    0    0  501    0  0.00000000000E+00 -0.00000000000E+00 -0.30574771368E+03  0.30574771369E+03  0.25500000000E-02 0.  1.
    5000001    1    1    2    0    0 -0.53323421186E+02 -0.50758846064E+02 -0.17592220039E+03  0.20566348313E+03  0.77000000000E+02 0.  0.
   -5000001    1    1    2    0    0  0.53323421186E+02  0.50758846064E+02 -0.90273778624E+02  0.13963596531E+03  0.77000000000E+02 0.  0.
<mgrwt>
<rscale>  0 0.21993501E+03</rscale>
<asrwt>0</asrwt>
<pdfrwt beam="1">  1        2 0.43678243E-01 0.21993501E+03</pdfrwt>
<pdfrwt beam="2">  1       -2 0.56502480E-02 0.21993501E+03</pdfrwt>
<totfact> 0.18364310E+04</totfact>
</mgrwt>
</event>
<event>
 4    1  0.6853809E-004  0.4516784E+03  0.7818608E-02  0.1027223E+00
          2   -1    0    0  501    0  0.00000000000E+00  0.00000000000E+00  0.19079163418E+04  0.19079163418E+04  0.25500000000E-02 0.  1.
         -2   -1    0    0    0  501 -0.00000000000E+00 -0.00000000000E+00 -0.26732484281E+02  0.26732484402E+02  0.25500000000E-02 0. -1.
    5000001    1    1    2    0    0  0.16724429027E+02  0.94676033872E+02  0.17513715208E+04  0.17556977136E+04  0.77000000000E+02 0.  0.
   -5000001    1    1    2    0    0 -0.16724429027E+02 -0.94676033872E+02  0.12981233675E+03  0.17895111257E+03  0.77000000000E+02 0.  0.
<mgrwt>
<rscale>  0 0.45167840E+03</rscale>
<asrwt>0</asrwt>
<pdfrwt beam="1">  1        2 0.27255958E+00 0.45167840E+03</pdfrwt>
<pdfrwt beam="2">  1       -2 0.38189249E-02 0.45167840E+03</pdfrwt>
<totfact> 0.28746530E+03</totfact>
</mgrwt>
</event>
<event>
 4    1  0.6853809E-004  0.2594992E+03  0.7818608E-02  0.1107444E+00
         -2   -1    0    0    0  501 -0.00000000000E+00  0.00000000000E+00  0.23282050778E+02  0.23282050918E+02  0.25500000000E-02 0. -1.
          2   -1    0    0  501    0  0.00000000000E+00 -0.00000000000E+00 -0.72308768482E+03  0.72308768482E+03  0.25500000000E-02 0.  1.
    5000001    1    1    2    0    0  0.95681582072E+02 -0.32070490273E+01 -0.46990292297E+03  0.48569847367E+03  0.77000000000E+02 0.  0.
   -5000001    1    1    2    0    0 -0.95681582072E+02  0.32070490273E+01 -0.22990271108E+03  0.26067126207E+03  0.77000000000E+02 0.  0.
<mgrwt>
<rscale>  0 0.25949924E+03</rscale>
<asrwt>0</asrwt>
<pdfrwt beam="1">  1        2 0.10329823E+00 0.25949924E+03</pdfrwt>
<pdfrwt beam="2">  1       -2 0.33260077E-02 0.25949924E+03</pdfrwt>
<totfact> 0.15887018E+04</totfact>
</mgrwt>
</event>
<event>
 4    1  0.6853809E-004  0.3756977E+03  0.7818608E-02  0.1052535E+00
         -2   -1    0    0    0  501 -0.00000000000E+00  0.00000000000E+00  0.81278523764E+02  0.81278523804E+02  0.25500000000E-02 0. -1.
          2   -1    0    0  501    0  0.00000000000E+00 -0.00000000000E+00 -0.43415157628E+03  0.43415157628E+03  0.25500000000E-02 0.  1.
    5000001    1    1    2    0    0  0.87430770355E+02  0.36493991640E+02 -0.37230170325E+03  0.39180800053E+03  0.77000000000E+02 0.  0.
   -5000001    1    1    2    0    0 -0.87430770355E+02 -0.36493991640E+02  0.19428650741E+02  0.12362209956E+03  0.77000000000E+02 0.  0.
<mgrwt>
<rscale>  0 0.37569775E+03</rscale>
<asrwt>0</asrwt>
<pdfrwt beam="1">  1        2 0.62021653E-01 0.37569775E+03</pdfrwt>
<pdfrwt beam="2">  1       -2 0.11611218E-01 0.37569775E+03</pdfrwt>
<totfact> 0.41520022E+03</totfact>
</mgrwt>
</event>
<event>
 4    1  0.6853809E-004  0.3229090E+03  0.7818608E-02  0.1074318E+00
          2   -1    0    0  501    0  0.00000000000E+00  0.00000000000E+00  0.31227844086E+03  0.31227844087E+03  0.25500000000E-02 0.  1.
         -2   -1    0    0    0  501 -0.00000000000E+00 -0.00000000000E+00 -0.83475356228E+02  0.83475356267E+02  0.25500000000E-02 0. -1.
    5000001    1    1    2    0    0  0.10485939029E+03 -0.92666326808E+02  0.14330088156E+03  0.21458490746E+03  0.77000000000E+02 0.  0.
   -5000001    1    1    2    0    0 -0.10485939029E+03  0.92666326808E+02  0.85502203077E+02  0.18116888968E+03  0.77000000000E+02 0.  0.
<mgrwt>
<rscale>  0 0.32290899E+03</rscale>
<asrwt>0</asrwt>
<pdfrwt beam="1">  1        2 0.44611207E-01 0.32290899E+03</pdfrwt>
<pdfrwt beam="2">  1       -2 0.11925051E-01 0.32290899E+03</pdfrwt>
<totfact> 0.56694760E+03</totfact>
</mgrwt>
</event>
<event>
 4    1  0.6853809E-004  0.2666906E+03  0.7818608E-02  0.1103189E+00
         -2   -1    0    0    0  501 -0.00000000000E+00  0.00000000000E+00  0.14560602648E+02  0.14560602872E+02  0.25500000000E-02 0. -1.
          2   -1    0    0  501    0  0.00000000000E+00 -0.00000000000E+00 -0.12211695452E+04  0.12211695452E+04  0.25500000000E-02 0.  1.
    5000001    1    1    2    0    0  0.44167158818E+02 -0.97364956263E+02 -0.50819853896E+03  0.52500040726E+03  0.77000000000E+02 0.  0.
   -5000001    1    1    2    0    0 -0.44167158818E+02  0.97364956263E+02 -0.69841040355E+03  0.71072974077E+03  0.77000000000E+02 0.  0.
<mgrwt>
<rscale>  0 0.26669057E+03</rscale>
<asrwt>0</asrwt>
<pdfrwt beam="1">  1        2 0.17445273E+00 0.26669057E+03</pdfrwt>
<pdfrwt beam="2">  1       -2 0.20800869E-02 0.26669057E+03</pdfrwt>
<totfact> 0.15873010E+04</totfact>
</mgrwt>
</event>
<event>
 4    1  0.6853809E-004  0.2344381E+03  0.7818608E-02  0.1123554E+00
         -2   -1    0    0    0  501 -0.00000000000E+00  0.00000000000E+00  0.17584150597E+02  0.17584150782E+02  0.25500000000E-02 0.  1.
          2   -1    0    0  501    0  0.00000000000E+00 -0.00000000000E+00 -0.78140289472E+03  0.78140289473E+03  0.25500000000E-02 0. -1.
    5000001    1    1    2    0    0 -0.75789092200E+02  0.17020855114E+02 -0.23821829222E+03  0.26212716523E+03  0.77000000000E+02 0.  0.
   -5000001    1    1    2    0    0  0.75789092200E+02 -0.17020855114E+02 -0.52560045191E+03  0.53685988028E+03  0.77000000000E+02 0.  0.
<mgrwt>
<rscale>  0 0.23443810E+03</rscale>
<asrwt>0</asrwt>
<pdfrwt beam="1">  1        2 0.11162896E+00 0.23443810E+03</pdfrwt>
<pdfrwt beam="2">  1       -2 0.25120220E-02 0.23443810E+03</pdfrwt>
<totfact> 0.21820211E+04</totfact>
</mgrwt>
</event>
<event>
 4    1  0.6853809E-004  0.2341960E+03  0.7818608E-02  0.1123721E+00
         -2   -1    0    0    0  501 -0.00000000000E+00  0.00000000000E+00  0.57842103226E+01  0.57842108847E+01  0.25500000000E-02 0. -1.
          2   -1    0    0  501    0  0.00000000000E+00 -0.00000000000E+00 -0.23705818774E+04  0.23705818774E+04  0.25500000000E-02 0.  1.
    5000001    1    1    2    0    0  0.11824715159E+02 -0.58154106753E+02 -0.18447691195E+04  0.18473288360E+04  0.77000000000E+02 0.  0.
   -5000001    1    1    2    0    0 -0.11824715159E+02  0.58154106753E+02 -0.52002854756E+03  0.52903725228E+03  0.77000000000E+02 0.  0.
<mgrwt>
<rscale>  0 0.23419603E+03</rscale>
<asrwt>0</asrwt>
<pdfrwt beam="1">  1        2 0.33865393E+00 0.23419603E+03</pdfrwt>
<pdfrwt beam="2">  1       -2 0.82631732E-03 0.23419603E+03</pdfrwt>
<totfact> 0.16284994E+04</totfact>
</mgrwt>
</event>
<event>
 4    1  0.6853809E-004  0.2304096E+03  0.7818608E-02  0.1126352E+00
          2   -1    0    0  501    0  0.00000000000E+00  0.00000000000E+00  0.16350741333E+04  0.16350741333E+04  0.25500000000E-02 0.  1.
         -2   -1    0    0    0  501 -0.00000000000E+00 -0.00000000000E+00 -0.81171522998E+01  0.81171527003E+01  0.25500000000E-02 0. -1.
    5000001    1    1    2    0    0  0.28748338167E+02  0.80329171609E+02  0.75646871817E+03  0.76514911248E+03  0.77000000000E+02 0.  0.
   -5000001    1    1    2    0    0 -0.28748338167E+02 -0.80329171609E+02  0.87048826282E+03  0.87804217351E+03  0.77000000000E+02 0.  0.
<mgrwt>
<rscale>  0 0.23040960E+03</rscale>
<asrwt>0</asrwt>
<pdfrwt beam="1">  1        2 0.23358185E+00 0.23040960E+03</pdfrwt>
<pdfrwt beam="2">  1       -2 0.11595940E-02 0.23040960E+03</pdfrwt>
<totfact> 0.22743557E+04</totfact>
</mgrwt>
</event>
<event>
 4    1  0.6853809E-004  0.3097748E+03  0.7818608E-02  0.1080454E+00
         -2   -1    0    0    0  501 -0.00000000000E+00  0.00000000000E+00  0.21173682809E+02  0.21173682963E+02  0.25500000000E-02 0. -1.
          2   -1    0    0  501    0  0.00000000000E+00 -0.00000000000E+00 -0.11330156604E+04  0.11330156604E+04  0.25500000000E-02 0.  1.
    5000001    1    1    2    0    0 -0.45361108677E+00 -0.12569471229E+03 -0.73311661515E+03  0.74778896613E+03  0.77000000000E+02 0.  0.
   -5000001    1    1    2    0    0  0.45361108677E+00  0.12569471229E+03 -0.37872536244E+03  0.40640037723E+03  0.77000000000E+02 0.  0.
<mgrwt>
<rscale>  0 0.30977485E+03</rscale>
<asrwt>0</asrwt>
<pdfrwt beam="1">  1        2 0.16185934E+00 0.30977485E+03</pdfrwt>
<pdfrwt beam="2">  1       -2 0.30248126E-02 0.30977485E+03</pdfrwt>
<totfact> 0.10233487E+04</totfact>
</mgrwt>
</event>
<event>
 4    1  0.6853809E-004  0.2148240E+03  0.7818608E-02  0.1137802E+00
         -2   -1    0    0    0  501 -0.00000000000E+00  0.00000000000E+00  0.79781518673E+01  0.79781522748E+01  0.25500000000E-02 0. -1.
          2   -1    0    0  501    0  0.00000000000E+00 -0.00000000000E+00 -0.14461167669E+04  0.14461167669E+04  0.25500000000E-02 0.  1.
    5000001    1    1    2    0    0 -0.85721451291E+01 -0.62850107010E+02 -0.44961418168E+03  0.46054916132E+03  0.77000000000E+02 0.  0.
   -5000001    1    1    2    0    0  0.85721451291E+01  0.62850107010E+02 -0.98852443332E+03  0.99354575783E+03  0.77000000000E+02 0.  0.
<mgrwt>
<rscale>  0 0.21482402E+03</rscale>
<asrwt>0</asrwt>
<pdfrwt beam="1">  1        2 0.20658794E+00 0.21482402E+03</pdfrwt>
<pdfrwt beam="2">  1       -2 0.11397369E-02 0.21482402E+03</pdfrwt>
<totfact> 0.28865986E+04</totfact>
</mgrwt>
</event>
<event>
 4    1  0.6853809E-004  0.2678958E+03  0.7818608E-02  0.1102490E+00
         -2   -1    0    0    0  501 -0.00000000000E+00  0.00000000000E+00  0.74631664964E+01  0.74631669320E+01  0.25500000000E-02 0. -1.
          2   -1    0    0  501    0  0.00000000000E+00 -0.00000000000E+00 -0.24040783363E+04  0.24040783363E+04  0.25500000000E-02 0.  1.
    5000001    1    1    2    0    0  0.84345087815E+02 -0.68881214047E+02 -0.13101335603E+04  0.13169045756E+04  0.77000000000E+02 0.  0.
   -5000001    1    1    2    0    0 -0.84345087815E+02  0.68881214047E+02 -0.10864816096E+04  0.10946369277E+04  0.77000000000E+02 0.  0.
<mgrwt>
<rscale>  0 0.26789578E+03</rscale>
<asrwt>0</asrwt>
<pdfrwt beam="1">  1        2 0.34343927E+00 0.26789578E+03</pdfrwt>
<pdfrwt beam="2">  1       -2 0.10661682E-02 0.26789578E+03</pdfrwt>
<totfact> 0.10866066E+04</totfact>
</mgrwt>
</event>
<event>
 4    1  0.6853809E-004  0.2322445E+03  0.7818608E-02  0.1125070E+00
         -2   -1    0    0    0  501 -0.00000000000E+00  0.00000000000E+00  0.13038952529E+03  0.13038952532E+03  0.25500000000E-02 0. -1.
          2   -1    0    0  501    0  0.00000000000E+00 -0.00000000000E+00 -0.10341612997E+03  0.10341613000E+03  0.25500000000E-02 0.  1.
    5000001    1    1    2    0    0  0.63550219415E+02  0.25960689260E+02  0.67162938180E+02  0.12309528033E+03  0.77000000000E+02 0.  0.
   -5000001    1    1    2    0    0 -0.63550219415E+02 -0.25960689260E+02 -0.40189542860E+02  0.11071037499E+03  0.77000000000E+02 0.  0.
<mgrwt>
<rscale>  0 0.23224453E+03</rscale>
<asrwt>0</asrwt>
<pdfrwt beam="1">  1        2 0.14773733E-01 0.23224453E+03</pdfrwt>
<pdfrwt beam="2">  1       -2 0.18627075E-01 0.23224453E+03</pdfrwt>
<totfact> 0.92332853E+03</totfact>
</mgrwt>
</event>
<event>
 4    1  0.6853809E-004  0.2084346E+03  0.7818608E-02  0.1142812E+00
          2   -1    0    0  501    0  0.00000000000E+00  0.00000000000E+00  0.12454520343E+04  0.12454520343E+04  0.25500000000E-02 0.  1.
         -2   -1    0    0    0  501 -0.00000000000E+00 -0.00000000000E+00 -0.87207269451E+01  0.87207273179E+01  0.25500000000E-02 0. -1.
    5000001    1    1    2    0    0 -0.31985901508E+01 -0.67502470248E+02  0.73339041152E+03  0.74051151928E+03  0.77000000000E+02 0.  0.
   -5000001    1    1    2    0    0  0.31985901508E+01  0.67502470248E+02  0.50334089583E+03  0.51366124234E+03  0.77000000000E+02 0.  0.
<mgrwt>
<rscale>  0 0.20843462E+03</rscale>
<asrwt>0</asrwt>
<pdfrwt beam="1">  1        2 0.17792183E+00 0.20843462E+03</pdfrwt>
<pdfrwt beam="2">  1       -2 0.12458174E-02 0.20843462E+03</pdfrwt>
<totfact> 0.32156583E+04</totfact>
</mgrwt>
</event>
<event>
 4    1  0.6853809E-004  0.2865788E+03  0.7818608E-02  0.1092149E+00
          2   -1    0    0  501    0  0.00000000000E+00  0.00000000000E+00  0.40370719492E+03  0.40370719493E+03  0.25500000000E-02 0.  1.
         -2   -1    0    0    0  501 -0.00000000000E+00 -0.00000000000E+00 -0.50858284484E+02  0.50858284548E+02  0.25500000000E-02 0. -1.
    5000001    1    1    2    0    0  0.66687150511E+02  0.47550038848E+02  0.35489268688E+02  0.11788413986E+03  0.77000000000E+02 0.  0.
   -5000001    1    1    2    0    0 -0.66687150511E+02 -0.47550038848E+02  0.31735964175E+03  0.33668133962E+03  0.77000000000E+02 0.  0.
<mgrwt>
<rscale>  0 0.28657882E+03</rscale>
<asrwt>0</asrwt>
<pdfrwt beam="1">  1        2 0.57672457E-01 0.28657882E+03</pdfrwt>
<pdfrwt beam="2">  1       -2 0.72654692E-02 0.28657882E+03</pdfrwt>
<totfact> 0.93806803E+03</totfact>
</mgrwt>
</event>
<event>
 4    1  0.6853809E-004  0.2715809E+03  0.7818608E-02  0.1100378E+00
          2   -1    0    0  501    0  0.00000000000E+00  0.00000000000E+00  0.17515013406E+04  0.17515013406E+04  0.25500000000E-02 0.  1.
         -2   -1    0    0    0  501 -0.00000000000E+00 -0.00000000000E+00 -0.10527566246E+02  0.10527566555E+02  0.25500000000E-02 0. -1.
    5000001    1    1    2    0    0  0.25966791911E+02 -0.10747122106E+03  0.98015384168E+03  0.98937095723E+03  0.77000000000E+02 0.  0.
   -5000001    1    1    2    0    0 -0.25966791911E+02  0.10747122106E+03  0.76081993262E+03  0.77265794988E+03  0.77000000000E+02 0.  0.
<mgrwt>
<rscale>  0 0.27158090E+03</rscale>
<asrwt>0</asrwt>
<pdfrwt beam="1">  1        2 0.25021424E+00 0.27158090E+03</pdfrwt>
<pdfrwt beam="2">  1       -2 0.15039395E-02 0.27158090E+03</pdfrwt>
<totfact> 0.13730346E+04</totfact>
</mgrwt>
</event>
<event>
 4    1  0.6853809E-004  0.2452981E+03  0.7818608E-02  0.1116313E+00
          2   -1    0    0  501    0  0.00000000000E+00  0.00000000000E+00  0.88293271429E+03  0.88293271429E+03  0.25500000000E-02 0.  1.
         -2   -1    0    0    0  501 -0.00000000000E+00 -0.00000000000E+00 -0.17037296635E+02  0.17037296826E+02  0.25500000000E-02 0. -1.
    5000001    1    1    2    0    0 -0.55253776010E+02  0.66066784538E+02  0.28185443309E+03  0.30461241149E+03  0.77000000000E+02 0.  0.
   -5000001    1    1    2    0    0  0.55253776010E+02 -0.66066784538E+02  0.58404098457E+03  0.59535759963E+03  0.77000000000E+02 0.  0.
<mgrwt>
<rscale>  0 0.24529808E+03</rscale>
<asrwt>0</asrwt>
<pdfrwt beam="1">  1        2 0.12613324E+00 0.24529808E+03</pdfrwt>
<pdfrwt beam="2">  1       -2 0.24338996E-02 0.24529808E+03</pdfrwt>
<totfact> 0.19670494E+04</totfact>
</mgrwt>
</event>
<event>
 4    1  0.6853809E-004  0.2092850E+03  0.7818608E-02  0.1142133E+00
          2   -1    0    0  501    0  0.00000000000E+00  0.00000000000E+00  0.17942979950E+04  0.17942979950E+04  0.25500000000E-02 0.  1.
         -2   -1    0    0    0  501 -0.00000000000E+00 -0.00000000000E+00 -0.61026938557E+01  0.61026943885E+01  0.25500000000E-02 0. -1.
    5000001    1    1    2    0    0  0.12056249745E+02  0.67961338791E+02  0.75619909712E+03  0.76323664169E+03  0.77000000000E+02 0.  0.
   -5000001    1    1    2    0    0 -0.12056249745E+02 -0.67961338791E+02  0.10319962040E+04  0.10371640477E+04  0.77000000000E+02 0.  0.
<mgrwt>
<rscale>  0 0.20928499E+03</rscale>
<asrwt>0</asrwt>
<pdfrwt beam="1">  1        2 0.25632858E+00 0.20928499E+03</pdfrwt>
<pdfrwt beam="2">  1       -2 0.87181244E-03 0.20928499E+03</pdfrwt>
<totfact> 0.28581627E+04</totfact>
</mgrwt>
</event>
<event>
 4    1  0.6853809E-004  0.2939457E+03  0.7818608E-02  0.1088307E+00
         -2   -1    0    0    0  501 -0.00000000000E+00  0.00000000000E+00  0.61832244197E+03  0.61832244198E+03  0.25500000000E-02 0. -1.
          2   -1    0    0  501    0  0.00000000000E+00 -0.00000000000E+00 -0.34934871955E+02  0.34934872048E+02  0.25500000000E-02 0.  1.
    5000001    1    1    2    0    0  0.11422279829E+03 -0.39785772342E+02  0.21994653729E+03  0.26255520295E+03  0.77000000000E+02 0.  0.
   -5000001    1    1    2    0    0 -0.11422279829E+03  0.39785772342E+02  0.36344103272E+03  0.39070211107E+03  0.77000000000E+02 0.  0.
<mgrwt>
<rscale>  0 0.29394568E+03</rscale>
<asrwt>0</asrwt>
<pdfrwt beam="1">  1        2 0.49906959E-02 0.29394568E+03</pdfrwt>
<pdfrwt beam="2">  1       -2 0.88331780E-01 0.29394568E+03</pdfrwt>
<totfact> 0.18003164E+03</totfact>
</mgrwt>
</event>
<event>
 4    1  0.6853809E-004  0.3633917E+03  0.7818608E-02  0.1057249E+00
          2   -1    0    0  501    0  0.00000000000E+00  0.00000000000E+00  0.13411117948E+03  0.13411117951E+03  0.25500000000E-02 0.  1.
         -2   -1    0    0    0  501 -0.00000000000E+00 -0.00000000000E+00 -0.24616429932E+03  0.24616429934E+03  0.25500000000E-02 0. -1.
    5000001    1    1    2    0    0  0.32590612658E+02  0.99860015511E+02  0.76549073862E+02  0.15107260321E+03  0.77000000000E+02 0.  0.
   -5000001    1    1    2    0    0 -0.32590612658E+02 -0.99860015511E+02 -0.18860219370E+03  0.22920287564E+03  0.77000000000E+02 0.  0.
<mgrwt>
<rscale>  0 0.36339171E+03</rscale>
<asrwt>0</asrwt>
<pdfrwt beam="1">  1        2 0.19158740E-01 0.36339171E+03</pdfrwt>
<pdfrwt beam="2">  1       -2 0.35166328E-01 0.36339171E+03</pdfrwt>
<totfact> 0.22354070E+03</totfact>
</mgrwt>
</event>
<event>
 4    1  0.6853809E-004  0.2860544E+03  0.7818608E-02  0.1092427E+00
         -2   -1    0    0    0  501 -0.00000000000E+00  0.00000000000E+00  0.36840664106E+02  0.36840664195E+02  0.25500000000E-02 0. -1.
          2   -1    0    0  501    0  0.00000000000E+00 -0.00000000000E+00 -0.55527702997E+03  0.55527702997E+03  0.25500000000E-02 0.  1.
    5000001    1    1    2    0    0 -0.54716746208E+01 -0.11949701763E+03 -0.22863487409E+03  0.26928123235E+03  0.77000000000E+02 0.  0.
   -5000001    1    1    2    0    0  0.54716746208E+01  0.11949701763E+03 -0.28980149177E+03  0.32283646181E+03  0.77000000000E+02 0.  0.
<mgrwt>
<rscale>  0 0.28605436E+03</rscale>
<asrwt>0</asrwt>
<pdfrwt beam="1">  1        2 0.79325285E-01 0.28605436E+03</pdfrwt>
<pdfrwt beam="2">  1       -2 0.52629524E-02 0.28605436E+03</pdfrwt>
<totfact> 0.10844607E+04</totfact>
</mgrwt>
</event>
<event>
 4    1  0.6853809E-004  0.2297367E+03  0.7818608E-02  0.1126825E+00
          2   -1    0    0  501    0  0.00000000000E+00  0.00000000000E+00  0.24949393751E+03  0.24949393752E+03  0.25500000000E-02 0.  1.
         -2   -1    0    0    0  501 -0.00000000000E+00 -0.00000000000E+00 -0.52886000620E+02  0.52886000681E+02  0.25500000000E-02 0. -1.
    5000001    1    1    2    0    0  0.46157345989E+02 -0.32173535614E+02  0.14024882254E+02  0.96391567603E+02  0.77000000000E+02 0.  0.
   -5000001    1    1    2    0    0 -0.46157345989E+02  0.32173535614E+02  0.18258305463E+03  0.20598837060E+03  0.77000000000E+02 0.  0.
<mgrwt>
<rscale>  0 0.22973669E+03</rscale>
<asrwt>0</asrwt>
<pdfrwt beam="1">  1        2 0.35641990E-01 0.22973669E+03</pdfrwt>
<pdfrwt beam="2">  1       -2 0.75551432E-02 0.22973669E+03</pdfrwt>
<totfact> 0.14662079E+04</totfact>
</mgrwt>
</event>
<event>
 4    1  0.6853809E-004  0.1670722E+03  0.7818608E-02  0.1180936E+00
          2   -1    0    0  501    0  0.00000000000E+00  0.00000000000E+00  0.36838737131E+03  0.36838737132E+03  0.25500000000E-02 0.  1.
         -2   -1    0    0    0  501 -0.00000000000E+00 -0.00000000000E+00 -0.18942777620E+02  0.18942777792E+02  0.25500000000E-02 0. -1.
    5000001    1    1    2    0    0  0.14006558965E+02 -0.29196090316E+02  0.17664064970E+03  0.19539578939E+03  0.77000000000E+02 0.  0.
   -5000001    1    1    2    0    0 -0.14006558965E+02  0.29196090316E+02  0.17280394399E+03  0.19193435972E+03  0.77000000000E+02 0.  0.
<mgrwt>
<rscale>  0 0.16707220E+03</rscale>
<asrwt>0</asrwt>
<pdfrwt beam="1">  1        2 0.52626766E-01 0.16707220E+03</pdfrwt>
<pdfrwt beam="2">  1       -2 0.27061112E-02 0.16707220E+03</pdfrwt>
<totfact> 0.44205031E+04</totfact>
</mgrwt>
</event>
<event>
 4    1  0.6853809E-004  0.1802555E+03  0.7818608E-02  0.1167556E+00
         -2   -1    0    0    0  501 -0.00000000000E+00  0.00000000000E+00  0.17261782157E+03  0.17261782159E+03  0.25500000000E-02 0. -1.
          2   -1    0    0  501    0  0.00000000000E+00 -0.00000000000E+00 -0.47057755089E+02  0.47057755158E+02  0.25500000000E-02 0.  1.
    5000001    1    1    2    0    0  0.29154374959E+02  0.34320995416E+02  0.78486435188E+02  0.11881510348E+03  0.77000000000E+02 0.  0.
   -5000001    1    1    2    0    0 -0.29154374959E+02 -0.34320995416E+02  0.47073631299E+02  0.10086047327E+03  0.77000000000E+02 0.  0.
<mgrwt>
<rscale>  0 0.18025545E+03</rscale>
<asrwt>0</asrwt>
<pdfrwt beam="1">  1        2 0.67225365E-02 0.18025545E+03</pdfrwt>
<pdfrwt beam="2">  1       -2 0.24659689E-01 0.18025545E+03</pdfrwt>
<totfact> 0.14818951E+04</totfact>
</mgrwt>
</event>
<event>
 4    1  0.6853809E-004  0.5002764E+03  0.7818608E-02  0.1013707E+00
         -2   -1    0    0    0  501 -0.00000000000E+00  0.00000000000E+00  0.45910534429E+02  0.45910534499E+02  0.25500000000E-02 0. -1.
          2   -1    0    0  501    0  0.00000000000E+00 -0.00000000000E+00 -0.13628488695E+04  0.13628488695E+04  0.25500000000E-02 0.  1.
    5000001    1    1    2    0    0  0.20711711481E+03 -0.11703543141E+03 -0.67742804801E+03  0.72210286780E+03  0.77000000000E+02 0.  0.
   -5000001    1    1    2    0    0 -0.20711711481E+03  0.11703543141E+03 -0.63951028703E+03  0.68665653617E+03  0.77000000000E+02 0.  0.
<mgrwt>
<rscale>  0 0.50027640E+03</rscale>
<asrwt>0</asrwt>
<pdfrwt beam="1">  1        2 0.19469267E+00 0.50027640E+03</pdfrwt>
<pdfrwt beam="2">  1       -2 0.65586486E-02 0.50027640E+03</pdfrwt>
<totfact> 0.23629733E+03</totfact>
</mgrwt>
</event>
<event>
 4    1  0.6853809E-004  0.3355084E+03  0.7818608E-02  0.1068725E+00
         -2   -1    0    0    0  501 -0.00000000000E+00  0.00000000000E+00  0.99698549613E+02  0.99698549646E+02  0.25500000000E-02 0. -1.
          2   -1    0    0  501    0  0.00000000000E+00 -0.00000000000E+00 -0.28226553023E+03  0.28226553024E+03  0.25500000000E-02 0.  1.
    5000001    1    1    2    0    0  0.37918889376E+01 -0.14888472783E+03 -0.84901655030E+02  0.18793172066E+03  0.77000000000E+02 0.  0.
   -5000001    1    1    2    0    0 -0.37918889376E+01  0.14888472783E+03 -0.97665325582E+02  0.19403235922E+03  0.77000000000E+02 0.  0.
<mgrwt>
<rscale>  0 0.33550835E+03</rscale>
<asrwt>0</asrwt>
<pdfrwt beam="1">  1        2 0.40323647E-01 0.33550835E+03</pdfrwt>
<pdfrwt beam="2">  1       -2 0.14242650E-01 0.33550835E+03</pdfrwt>
<totfact> 0.47360319E+03</totfact>
</mgrwt>
</event>
<event>
 4    1  0.6853809E-004  0.2021071E+03  0.7818608E-02  0.1147973E+00
         -2   -1    0    0    0  501 -0.00000000000E+00  0.00000000000E+00  0.17025374717E+03  0.17025374719E+03  0.25500000000E-02 0. -1.
          2   -1    0    0  501    0  0.00000000000E+00 -0.00000000000E+00 -0.59979977153E+02  0.59979977207E+02  0.25500000000E-02 0.  1.
    5000001    1    1    2    0    0  0.57701220290E+02 -0.30852253757E+02  0.53730814479E+02  0.11444340439E+03  0.77000000000E+02 0.  0.
   -5000001    1    1    2    0    0 -0.57701220290E+02  0.30852253757E+02  0.56542955536E+02  0.11579032000E+03  0.77000000000E+02 0.  0.
<mgrwt>
<rscale>  0 0.20210706E+03</rscale>
<asrwt>0</asrwt>
<pdfrwt beam="1">  1        2 0.85685681E-02 0.20210706E+03</pdfrwt>
<pdfrwt beam="2">  1       -2 0.24321964E-01 0.20210706E+03</pdfrwt>
<totfact> 0.11253447E+04</totfact>
</mgrwt>
</event>
<event>
 4    1  0.6853809E-004  0.1927435E+03  0.7818608E-02  0.1156010E+00
          2   -1    0    0  501    0  0.00000000000E+00  0.00000000000E+00  0.18000083403E+04  0.18000083403E+04  0.25500000000E-02 0.  1.
         -2   -1    0    0    0  501 -0.00000000000E+00 -0.00000000000E+00 -0.51597058776E+01  0.51597065078E+01  0.25500000000E-02 0. -1.
    5000001    1    1    2    0    0 -0.10081881494E+02  0.54439563270E+02  0.10577941565E+04  0.10620370935E+04  0.77000000000E+02 0.  0.
   -5000001    1    1    2    0    0  0.10081881494E+02 -0.54439563270E+02  0.73705447789E+03  0.74313095330E+03  0.77000000000E+02 0.  0.
<mgrwt>
<rscale>  0 0.19274350E+03</rscale>
<asrwt>0</asrwt>
<pdfrwt beam="1">  1        2 0.25714403E+00 0.19274350E+03</pdfrwt>
<pdfrwt beam="2">  1       -2 0.73710093E-03 0.19274350E+03</pdfrwt>
<totfact> 0.35986627E+04</totfact>
</mgrwt>
</event>
<event>
 4    1  0.6853809E-004  0.3954597E+03  0.7818608E-02  0.1045363E+00
         -2   -1    0    0    0  501 -0.00000000000E+00  0.00000000000E+00  0.20215847154E+03  0.20215847155E+03  0.25500000000E-02 0. -1.
          2   -1    0    0  501    0  0.00000000000E+00 -0.00000000000E+00 -0.19339828873E+03  0.19339828874E+03  0.25500000000E-02 0.  1.
    5000001    1    1    2    0    0 -0.89830049007E+02 -0.15981357885E+02  0.16203620989E+03  0.20126990540E+03  0.77000000000E+02 0.  0.
   -5000001    1    1    2    0    0  0.89830049007E+02  0.15981357885E+02 -0.15327602709E+03  0.19428685489E+03  0.77000000000E+02 0.  0.
<mgrwt>
<rscale>  0 0.39545974E+03</rscale>
<asrwt>0</asrwt>
<pdfrwt beam="1">  1        2 0.27628327E-01 0.39545974E+03</pdfrwt>
<pdfrwt beam="2">  1       -2 0.28879782E-01 0.39545974E+03</pdfrwt>
<totfact> 0.21230490E+03</totfact>
</mgrwt>
</event>
<event>
 4    1  0.6853809E-004  0.1929401E+03  0.7818608E-02  0.1155836E+00
          2   -1    0    0  501    0  0.00000000000E+00  0.00000000000E+00  0.23146020907E+03  0.23146020909E+03  0.25500000000E-02 0.  1.
         -2   -1    0    0    0  501 -0.00000000000E+00 -0.00000000000E+00 -0.40207656412E+02  0.40207656493E+02  0.25500000000E-02 0. -1.
    5000001    1    1    2    0    0  0.40649964539E+02 -0.41460501891E+02  0.99098104068E+02  0.13827807875E+03  0.77000000000E+02 0.  0.
   -5000001    1    1    2    0    0 -0.40649964539E+02  0.41460501891E+02  0.92154448593E+02  0.13338978683E+03  0.77000000000E+02 0.  0.
<mgrwt>
<rscale>  0 0.19294012E+03</rscale>
<asrwt>0</asrwt>
<pdfrwt beam="1">  1        2 0.33065744E-01 0.19294012E+03</pdfrwt>
<pdfrwt beam="2">  1       -2 0.57439510E-02 0.19294012E+03</pdfrwt>
<totfact> 0.23930449E+04</totfact>
</mgrwt>
</event>
<event>
 4    1  0.6853809E-004  0.3325952E+03  0.7818608E-02  0.1069994E+00
          2   -1    0    0  501    0  0.00000000000E+00  0.00000000000E+00  0.13699469129E+04  0.13699469130E+04  0.25500000000E-02 0.  1.
         -2   -1    0    0    0  501 -0.00000000000E+00 -0.00000000000E+00 -0.20186833295E+02  0.20186833456E+02  0.25500000000E-02 0. -1.
    5000001    1    1    2    0    0 -0.10263246801E+03  0.84624388981E+02  0.40950707061E+03  0.43740113349E+03  0.77000000000E+02 0.  0.
   -5000001    1    1    2    0    0  0.10263246801E+03 -0.84624388981E+02  0.94025300905E+03  0.95273261292E+03  0.77000000000E+02 0.  0.
<mgrwt>
<rscale>  0 0.33259519E+03</rscale>
<asrwt>0</asrwt>
<pdfrwt beam="1">  1        2 0.19570666E+00 0.33259519E+03</pdfrwt>
<pdfrwt beam="2">  1       -2 0.28838339E-02 0.33259519E+03</pdfrwt>
<totfact> 0.82056150E+03</totfact>
</mgrwt>
</event>
<event>
 4    1  0.6853809E-004  0.2498888E+03  0.7818608E-02  0.1113375E+00
          2   -1    0    0  501    0  0.00000000000E+00  0.00000000000E+00  0.10959560654E+04  0.10959560654E+04  0.25500000000E-02 0.  1.
         -2   -1    0    0    0  501 -0.00000000000E+00 -0.00000000000E+00 -0.14244279820E+02  0.14244280048E+02  0.25500000000E-02 0. -1.
    5000001    1    1    2    0    0 -0.39396451365E+02  0.89377385519E+02  0.59374315287E+03  0.60663030670E+03  0.77000000000E+02 0.  0.
   -5000001    1    1    2    0    0  0.39396451365E+02 -0.89377385519E+02  0.48796863268E+03  0.50357003873E+03  0.77000000000E+02 0.  0.
<mgrwt>
<rscale>  0 0.24988882E+03</rscale>
<asrwt>0</asrwt>
<pdfrwt beam="1">  1        2 0.15656516E+00 0.24988882E+03</pdfrwt>
<pdfrwt beam="2">  1       -2 0.20348970E-02 0.24988882E+03</pdfrwt>
<totfact> 0.19157715E+04</totfact>
</mgrwt>
</event>
<event>
 4    1  0.6853809E-004  0.1607317E+03  0.7818608E-02  0.1187873E+00
         -2   -1    0    0    0  501 -0.00000000000E+00  0.00000000000E+00  0.51922086579E+02  0.51922086642E+02  0.25500000000E-02 0. -1.
          2   -1    0    0  501    0  0.00000000000E+00 -0.00000000000E+00 -0.12439153659E+03  0.12439153661E+03  0.25500000000E-02 0.  1.
    5000001    1    1    2    0    0 -0.13052732528E+02 -0.97903789616E+01 -0.54039133548E+02  0.95474883091E+02  0.77000000000E+02 0.  0.
   -5000001    1    1    2    0    0  0.13052732528E+02  0.97903789616E+01 -0.18430316462E+02  0.80838740165E+02  0.77000000000E+02 0.  0.
<mgrwt>
<rscale>  0 0.16073168E+03</rscale>
<asrwt>0</asrwt>
<pdfrwt beam="1">  1        2 0.17770219E-01 0.16073168E+03</pdfrwt>
<pdfrwt beam="2">  1       -2 0.74174410E-02 0.16073168E+03</pdfrwt>
<totfact> 0.31772529E+04</totfact>
</mgrwt>
</event>
<event>
 4    1  0.6853809E-004  0.3206006E+03  0.7818608E-02  0.1075373E+00
         -2   -1    0    0    0  501 -0.00000000000E+00  0.00000000000E+00  0.34958691777E+02  0.34958691870E+02  0.25500000000E-02 0. -1.
          2   -1    0    0  501    0  0.00000000000E+00 -0.00000000000E+00 -0.73504447849E+03  0.73504447850E+03  0.25500000000E-02 0.  1.
    5000001    1    1    2    0    0  0.42699913925E+01 -0.13313022367E+03 -0.45812983907E+03  0.48327408240E+03  0.77000000000E+02 0.  0.
   -5000001    1    1    2    0    0 -0.42699913925E+01  0.13313022367E+03 -0.24195594765E+03  0.28672908796E+03  0.77000000000E+02 0.  0.
<mgrwt>
<rscale>  0 0.32060065E+03</rscale>
<asrwt>0</asrwt>
<pdfrwt beam="1">  1        2 0.10500634E+00 0.32060065E+03</pdfrwt>
<pdfrwt beam="2">  1       -2 0.49940993E-02 0.32060065E+03</pdfrwt>
<totfact> 0.85068853E+03</totfact>
</mgrwt>
</event>
<event>
 4    1  0.6853809E-004  0.3301673E+03  0.7818608E-02  0.1071063E+00
          2   -1    0    0  501    0  0.00000000000E+00  0.00000000000E+00  0.12718952381E+04  0.12718952381E+04  0.25500000000E-02 0.  1.
         -2   -1    0    0    0  501 -0.00000000000E+00 -0.00000000000E+00 -0.21426776848E+02  0.21426777000E+02  0.25500000000E-02 0. -1.
    5000001    1    1    2    0    0  0.16717837281E+02  0.65962915054E+02  0.11912986965E+03  0.15732615196E+03  0.77000000000E+02 0.  0.
   -5000001    1    1    2    0    0 -0.16717837281E+02 -0.65962915054E+02  0.11313385916E+04  0.11359958631E+04  0.77000000000E+02 0.  0.
<mgrwt>
<rscale>  0 0.33016732E+03</rscale>
<asrwt>0</asrwt>
<pdfrwt beam="1">  1        2 0.18169930E+00 0.33016732E+03</pdfrwt>
<pdfrwt beam="2">  1       -2 0.30609685E-02 0.33016732E+03</pdfrwt>
<totfact> 0.84550041E+03</totfact>
</mgrwt>
</event>
<event>
 4    1  0.6853809E-004  0.1929871E+03  0.7818608E-02  0.1155794E+00
          2   -1    0    0  501    0  0.00000000000E+00  0.00000000000E+00  0.87633748698E+03  0.87633748698E+03  0.25500000000E-02 0.  1.
         -2   -1    0    0    0  501 -0.00000000000E+00 -0.00000000000E+00 -0.10624903542E+02  0.10624903848E+02  0.25500000000E-02 0. -1.
    5000001    1    1    2    0    0  0.42973128924E+02 -0.24748865571E+02  0.29324130420E+03  0.30721109786E+03  0.77000000000E+02 0.  0.
   -5000001    1    1    2    0    0 -0.42973128924E+02  0.24748865571E+02  0.57247127923E+03  0.57975129297E+03  0.77000000000E+02 0.  0.
<mgrwt>
<rscale>  0 0.19298706E+03</rscale>
<asrwt>0</asrwt>
<pdfrwt beam="1">  1        2 0.12519111E+00 0.19298706E+03</pdfrwt>
<pdfrwt beam="2">  1       -2 0.15178429E-02 0.19298706E+03</pdfrwt>
<totfact> 0.39019480E+04</totfact>
</mgrwt>
</event>
<event>
 4    1  0.6853809E-004  0.3770156E+03  0.7818608E-02  0.1052042E+00
          2   -1    0    0  501    0  0.00000000000E+00  0.00000000000E+00  0.54478187088E+04  0.54478187088E+04  0.25500000000E-02 0.  1.
         -2   -1    0    0    0  501 -0.00000000000E+00 -0.00000000000E+00 -0.65228282443E+01  0.65228287428E+01  0.25500000000E-02 0. -1.
    5000001    1    1    2    0    0 -0.12159287504E+03 -0.58760586696E+02  0.42631850861E+04  0.42660184847E+04  0.77000000000E+02 0.  0.
   -5000001    1    1    2    0    0  0.12159287504E+03  0.58760586696E+02  0.11781107945E+04  0.11883230528E+04  0.77000000000E+02 0.  0.
<mgrwt>
<rscale>  0 0.37701558E+03</rscale>
<asrwt>0</asrwt>
<pdfrwt beam="1">  1        2 0.77825668E+00 0.37701558E+03</pdfrwt>
<pdfrwt beam="2">  1       -2 0.93183639E-03 0.37701558E+03</pdfrwt>
<totfact> 0.97327626E+01</totfact>
</mgrwt>
</event>
<event>
 4    1  0.6853809E-004  0.2082804E+03  0.7818608E-02  0.1142935E+00
          2   -1    0    0  501    0  0.00000000000E+00  0.00000000000E+00  0.13403932949E+03  0.13403932951E+03  0.25500000000E-02 0.  1.
         -2   -1    0    0    0  501 -0.00000000000E+00 -0.00000000000E+00 -0.80910449400E+02  0.80910449441E+02  0.25500000000E-02 0. -1.
    5000001    1    1    2    0    0  0.63654235656E+02 -0.10198972294E+02  0.55020943819E+02  0.11450844952E+03  0.77000000000E+02 0.  0.
   -5000001    1    1    2    0    0 -0.63654235656E+02  0.10198972294E+02 -0.18920637328E+01  0.10044132943E+03  0.77000000000E+02 0.  0.
<mgrwt>
<rscale>  0 0.20828041E+03</rscale>
<asrwt>0</asrwt>
<pdfrwt beam="1">  1        2 0.19148475E-01 0.20828041E+03</pdfrwt>
<pdfrwt beam="2">  1       -2 0.11558636E-01 0.20828041E+03</pdfrwt>
<totfact> 0.14852407E+04</totfact>
</mgrwt>
</event>
<event>
 4    1  0.6853809E-004  0.2586844E+03  0.7818608E-02  0.1107936E+00
         -2   -1    0    0    0  501 -0.00000000000E+00  0.00000000000E+00  0.34456150997E+02  0.34456151092E+02  0.25500000000E-02 0. -1.
          2   -1    0    0  501    0  0.00000000000E+00 -0.00000000000E+00 -0.48552727423E+03  0.48552727424E+03  0.25500000000E-02 0.  1.
    5000001    1    1    2    0    0 -0.90627875656E+02 -0.49649284910E+02 -0.24773226195E+03  0.27924673131E+03  0.77000000000E+02 0.  0.
   -5000001    1    1    2    0    0  0.90627875656E+02  0.49649284910E+02 -0.20333886129E+03  0.24073669402E+03  0.77000000000E+02 0.  0.
<mgrwt>
<rscale>  0 0.25868437E+03</rscale>
<asrwt>0</asrwt>
<pdfrwt beam="1">  1        2 0.69361035E-01 0.25868437E+03</pdfrwt>
<pdfrwt beam="2">  1       -2 0.49223076E-02 0.25868437E+03</pdfrwt>
<totfact> 0.13877446E+04</totfact>
</mgrwt>
</event>
<event>
 4    1  0.6853809E-004  0.2758536E+03  0.7818608E-02  0.1097975E+00
          2   -1    0    0  501    0  0.00000000000E+00  0.00000000000E+00  0.17142720169E+04  0.17142720169E+04  0.25500000000E-02 0.  1.
         -2   -1    0    0    0  501 -0.00000000000E+00 -0.00000000000E+00 -0.11097302991E+02  0.11097303284E+02  0.25500000000E-02 0. -1.
    5000001    1    1    2    0    0 -0.55500641294E+02  0.99264181650E+02  0.77220068356E+03  0.78431919180E+03  0.77000000000E+02 0.  0.
   -5000001    1    1    2    0    0  0.55500641294E+02 -0.99264181650E+02  0.93097403039E+03  0.94105012842E+03  0.77000000000E+02 0.  0.
<mgrwt>
<rscale>  0 0.27585356E+03</rscale>
<asrwt>0</asrwt>
<pdfrwt beam="1">  1        2 0.24489594E+00 0.27585356E+03</pdfrwt>
<pdfrwt beam="2">  1       -2 0.15853294E-02 0.27585356E+03</pdfrwt>
<totfact> 0.13263895E+04</totfact>
</mgrwt>
</event>
<event>
 4    1  0.6853809E-004  0.4633566E+03  0.7818608E-02  0.1023812E+00
         -2   -1    0    0    0  501 -0.00000000000E+00  0.00000000000E+00  0.55345452176E+02  0.55345452235E+02  0.25500000000E-02 0. -1.
          2   -1    0    0  501    0  0.00000000000E+00 -0.00000000000E+00 -0.96981473610E+03  0.96981473610E+03  0.25500000000E-02 0.  1.
    5000001    1    1    2    0    0  0.23913881967E+02 -0.44302577999E+02 -0.92766961490E+03  0.93222020283E+03  0.77000000000E+02 0.  0.
   -5000001    1    1    2    0    0 -0.23913881967E+02  0.44302577999E+02  0.13200330972E+02  0.92939985506E+02  0.77000000000E+02 0.  0.
<mgrwt>
<rscale>  0 0.46335660E+03</rscale>
<asrwt>0</asrwt>
<pdfrwt beam="1">  1        2 0.13854495E+00 0.46335660E+03</pdfrwt>
<pdfrwt beam="2">  1       -2 0.79064937E-02 0.46335660E+03</pdfrwt>
<totfact> 0.29375769E+03</totfact>
</mgrwt>
</event>
<event>
 4    1  0.6853809E-004  0.2220658E+03  0.7818608E-02  0.1132352E+00
          2   -1    0    0  501    0  0.00000000000E+00  0.00000000000E+00  0.49839311330E+02  0.49839311396E+02  0.25500000000E-02 0.  1.
         -2   -1    0    0    0  501 -0.00000000000E+00 -0.00000000000E+00 -0.24736109320E+03  0.24736109321E+03  0.25500000000E-02 0. -1.
    5000001    1    1    2    0    0 -0.69325274786E+02  0.30087841448E+02 -0.63655579211E+02  0.12526892948E+03  0.77000000000E+02 0.  0.
   -5000001    1    1    2    0    0  0.69325274786E+02 -0.30087841448E+02 -0.13386620266E+03  0.17193147513E+03  0.77000000000E+02 0.  0.
<mgrwt>
<rscale>  0 0.22206581E+03</rscale>
<asrwt>0</asrwt>
<pdfrwt beam="1">  1        2 0.71199018E-02 0.22206581E+03</pdfrwt>
<pdfrwt beam="2">  1       -2 0.35337298E-01 0.22206581E+03</pdfrwt>
<totfact> 0.72994688E+03</totfact>
</mgrwt>
</event>
<event>
 4    1  0.6853809E-004  0.2591712E+03  0.7818608E-02  0.1107642E+00
          2   -1    0    0  501    0  0.00000000000E+00  0.00000000000E+00  0.88805459245E+03  0.88805459245E+03  0.25500000000E-02 0.  1.
         -2   -1    0    0    0  501 -0.00000000000E+00 -0.00000000000E+00 -0.18909230117E+02  0.18909230289E+02  0.25500000000E-02 0. -1.
    5000001    1    1    2    0    0  0.74011250542E+02 -0.29090773191E+02  0.67035257306E+03  0.67943028376E+03  0.77000000000E+02 0.  0.
   -5000001    1    1    2    0    0 -0.74011250542E+02  0.29090773191E+02  0.19879278927E+03  0.22753353897E+03  0.77000000000E+02 0.  0.
<mgrwt>
<rscale>  0 0.25917121E+03</rscale>
<asrwt>0</asrwt>
<pdfrwt beam="1">  1        2 0.12686494E+00 0.25917121E+03</pdfrwt>
<pdfrwt beam="2">  1       -2 0.27013185E-02 0.25917121E+03</pdfrwt>
<totfact> 0.16780867E+04</totfact>
</mgrwt>
</event>
<event>
 4    1  0.6853809E-004  0.2230001E+03  0.7818608E-02  0.1131666E+00
          2   -1    0    0  501    0  0.00000000000E+00  0.00000000000E+00  0.69430373441E+02  0.69430373488E+02  0.25500000000E-02 0.  1.
         -2   -1    0    0    0  501 -0.00000000000E+00 -0.00000000000E+00 -0.17906084856E+03  0.17906084858E+03  0.25500000000E-02 0. -1.
    5000001    1    1    2    0    0 -0.74114098422E+02  0.30495967941E+02 -0.64804200512E+02  0.12865258664E+03  0.77000000000E+02 0.  0.
   -5000001    1    1    2    0    0  0.74114098422E+02 -0.30495967941E+02 -0.44826274608E+02  0.11983863543E+03  0.77000000000E+02 0.  0.
<mgrwt>
<rscale>  0 0.22300010E+03</rscale>
<asrwt>0</asrwt>
<pdfrwt beam="1">  1        2 0.99186249E-02 0.22300010E+03</pdfrwt>
<pdfrwt beam="2">  1       -2 0.25580121E-01 0.22300010E+03</pdfrwt>
<totfact> 0.86343106E+03</totfact>
</mgrwt>
</event>
<event>
 4    1  0.6853809E-004  0.2120163E+03  0.7818608E-02  0.1139979E+00
          2   -1    0    0  501    0  0.00000000000E+00  0.00000000000E+00  0.82109932181E+02  0.82109932221E+02  0.25500000000E-02 0.  1.
         -2   -1    0    0    0  501 -0.00000000000E+00 -0.00000000000E+00 -0.13686199915E+03  0.13686199917E+03  0.25500000000E-02 0. -1.
    5000001    1    1    2    0    0  0.71230857528E+00  0.72694988276E+02 -0.22352218750E+02  0.10822980360E+03  0.77000000000E+02 0.  0.
   -5000001    1    1    2    0    0 -0.71230857528E+00 -0.72694988276E+02 -0.32399848216E+02  0.11074212779E+03  0.77000000000E+02 0.  0.
<mgrwt>
<rscale>  0 0.21201632E+03</rscale>
<asrwt>0</asrwt>
<pdfrwt beam="1">  1        2 0.11729990E-01 0.21201632E+03</pdfrwt>
<pdfrwt beam="2">  1       -2 0.19551714E-01 0.21201632E+03</pdfrwt>
<totfact> 0.11155879E+04</totfact>
</mgrwt>
</event>
<event>
 4    1  0.6853809E-004  0.2338057E+03  0.7818608E-02  0.1123989E+00
          2   -1    0    0  501    0  0.00000000000E+00  0.00000000000E+00  0.70916193854E+03  0.70916193854E+03  0.25500000000E-02 0.  1.
         -2   -1    0    0    0  501 -0.00000000000E+00 -0.00000000000E+00 -0.19271015394E+02  0.19271015562E+02  0.25500000000E-02 0. -1.
    5000001    1    1    2    0    0  0.31159460922E+02 -0.63774109133E+02  0.50681079937E+03  0.51751737687E+03  0.77000000000E+02 0.  0.
   -5000001    1    1    2    0    0 -0.31159460922E+02  0.63774109133E+02  0.18308012377E+03  0.21091557724E+03  0.77000000000E+02 0.  0.
<mgrwt>
<rscale>  0 0.23380565E+03</rscale>
<asrwt>0</asrwt>
<pdfrwt beam="1">  1        2 0.10130884E+00 0.23380565E+03</pdfrwt>
<pdfrwt beam="2">  1       -2 0.27530025E-02 0.23380565E+03</pdfrwt>
<totfact> 0.21414820E+04</totfact>
</mgrwt>
</event>
<event>
 4    1  0.6853809E-004  0.2792347E+03  0.7818608E-02  0.1096108E+00
          2   -1    0    0  501    0  0.00000000000E+00  0.00000000000E+00  0.12402609249E+03  0.12402609251E+03  0.25500000000E-02 0.  1.
         -2   -1    0    0    0  501 -0.00000000000E+00 -0.00000000000E+00 -0.15716862289E+03  0.15716862291E+03  0.25500000000E-02 0. -1.
    5000001    1    1    2    0    0 -0.37403439605E+02 -0.52096194627E+02 -0.11446978198E+03  0.15213599763E+03  0.77000000000E+02 0.  0.
   -5000001    1    1    2    0    0  0.37403439605E+02  0.52096194627E+02  0.81327251577E+02  0.12905871779E+03  0.77000000000E+02 0.  0.
<mgrwt>
<rscale>  0 0.27923474E+03</rscale>
<asrwt>0</asrwt>
<pdfrwt beam="1">  1        2 0.17718013E-01 0.27923474E+03</pdfrwt>
<pdfrwt beam="2">  1       -2 0.22452660E-01 0.27923474E+03</pdfrwt>
<totfact> 0.54619615E+03</totfact>
</mgrwt>
</event>
<event>
 4    1  0.6853809E-004  0.2591891E+03  0.7818608E-02  0.1107631E+00
          2   -1    0    0  501    0  0.00000000000E+00  0.00000000000E+00  0.51428870047E+02  0.51428870110E+02  0.25500000000E-02 0.  1.
         -2   -1    0    0    0  501 -0.00000000000E+00 -0.00000000000E+00 -0.32656258311E+03  0.32656258312E+03  0.25500000000E-02 0. -1.
    5000001    1    1    2    0    0 -0.87420663381E+02  0.11412518482E+02 -0.21867493946E+03  0.24803295570E+03  0.77000000000E+02 0.  0.
   -5000001    1    1    2    0    0  0.87420663381E+02 -0.11412518482E+02 -0.56458773601E+02  0.12995849753E+03  0.77000000000E+02 0.  0.
<mgrwt>
<rscale>  0 0.25918908E+03</rscale>
<asrwt>0</asrwt>
<pdfrwt beam="1">  1        2 0.73469816E-02 0.25918908E+03</pdfrwt>
<pdfrwt beam="2">  1       -2 0.46651797E-01 0.25918908E+03</pdfrwt>
<totfact> 0.41528577E+03</totfact>
</mgrwt>
</event>
<event>
 4    1  0.6853809E-004  0.2717711E+03  0.7818608E-02  0.1100270E+00
         -2   -1    0    0    0  501 -0.00000000000E+00  0.00000000000E+00  0.98813499813E+01  0.98813503103E+01  0.25500000000E-02 0. -1.
          2   -1    0    0  501    0  0.00000000000E+00 -0.00000000000E+00 -0.18686592853E+04  0.18686592853E+04  0.25500000000E-02 0.  1.
    5000001    1    1    2    0    0 -0.28648535983E+01  0.97488774787E+02 -0.13094734534E+04  0.13153562231E+04  0.77000000000E+02 0.  0.
   -5000001    1    1    2    0    0  0.28648535983E+01 -0.97488774787E+02 -0.54930448195E+03  0.56318441250E+03  0.77000000000E+02 0.  0.
<mgrwt>
<rscale>  0 0.27177106E+03</rscale>
<asrwt>0</asrwt>
<pdfrwt beam="1">  1        2 0.26695110E+00 0.27177106E+03</pdfrwt>
<pdfrwt beam="2">  1       -2 0.14116226E-02 0.27177106E+03</pdfrwt>
<totfact> 0.13199097E+04</totfact>
</mgrwt>
</event>
<event>
 4    1  0.6853809E-004  0.1997702E+03  0.7818608E-02  0.1149933E+00
          2   -1    0    0  501    0  0.00000000000E+00  0.00000000000E+00  0.11691154802E+04  0.11691154803E+04  0.25500000000E-02 0.  1.
         -2   -1    0    0    0  501 -0.00000000000E+00 -0.00000000000E+00 -0.85338275457E+01  0.85338279267E+01  0.25500000000E-02 0. -1.
    5000001    1    1    2    0    0  0.39697774889E+01  0.60086157231E+02  0.70137930277E+03  0.70815819686E+03  0.77000000000E+02 0.  0.
   -5000001    1    1    2    0    0 -0.39697774889E+01 -0.60086157231E+02  0.45920234994E+03  0.46949111132E+03  0.77000000000E+02 0.  0.
<mgrwt>
<rscale>  0 0.19977017E+03</rscale>
<asrwt>0</asrwt>
<pdfrwt beam="1">  1        2 0.16701650E+00 0.19977017E+03</pdfrwt>
<pdfrwt beam="2">  1       -2 0.12191182E-02 0.19977017E+03</pdfrwt>
<totfact> 0.36356353E+04</totfact>
</mgrwt>
</event>
<event>
 4    1  0.6853809E-004  0.2521600E+03  0.7818608E-02  0.1111947E+00
          2   -1    0    0  501    0  0.00000000000E+00  0.00000000000E+00  0.32370478322E+03  0.32370478323E+03  0.25500000000E-02 0.  1.
         -2   -1    0    0    0  501 -0.00000000000E+00 -0.00000000000E+00 -0.49106989856E+02  0.49106989922E+02  0.25500000000E-02 0. -1.
    5000001    1    1    2    0    0 -0.42095047919E+02 -0.79330522809E+02  0.72822509526E+02  0.13891523603E+03  0.77000000000E+02 0.  0.
   -5000001    1    1    2    0    0  0.42095047919E+02  0.79330522809E+02  0.20177528384E+03  0.23389653712E+03  0.77000000000E+02 0.  0.
<mgrwt>
<rscale>  0 0.25216001E+03</rscale>
<asrwt>0</asrwt>
<pdfrwt beam="1">  1        2 0.46243541E-01 0.25216001E+03</pdfrwt>
<pdfrwt beam="2">  1       -2 0.70152842E-02 0.25216001E+03</pdfrwt>
<totfact> 0.12493214E+04</totfact>
</mgrwt>
</event>
<event>
 4    1  0.6853809E-004  0.2544830E+03  0.7818608E-02  0.1110504E+00
         -2   -1    0    0    0  501 -0.00000000000E+00  0.00000000000E+00  0.19091654144E+03  0.19091654146E+03  0.25500000000E-02 0. -1.
          2   -1    0    0  501    0  0.00000000000E+00 -0.00000000000E+00 -0.84803543786E+02  0.84803543824E+02  0.25500000000E-02 0.  1.
    5000001    1    1    2    0    0 -0.99204967422E+02  0.20477083451E+02  0.53793549771E+02  0.13814370237E+03  0.77000000000E+02 0.  0.
   -5000001    1    1    2    0    0  0.99204967422E+02 -0.20477083451E+02  0.52319447882E+02  0.13757638291E+03  0.77000000000E+02 0.  0.
<mgrwt>
<rscale>  0 0.25448300E+03</rscale>
<asrwt>0</asrwt>
<pdfrwt beam="1">  1        2 0.12114792E-01 0.25448300E+03</pdfrwt>
<pdfrwt beam="2">  1       -2 0.27273792E-01 0.25448300E+03</pdfrwt>
<totfact> 0.60690888E+03</totfact>
</mgrwt>
</event>
<event>
 4    1  0.6853809E-004  0.2305795E+03  0.7818608E-02  0.1126233E+00
          2   -1    0    0  501    0  0.00000000000E+00  0.00000000000E+00  0.16042017032E+04  0.16042017032E+04  0.25500000000E-02 0.  1.
         -2   -1    0    0    0  501 -0.00000000000E+00 -0.00000000000E+00 -0.82855719016E+01  0.82855722940E+01  0.25500000000E-02 0. -1.
    5000001    1    1    2    0    0 -0.65384709680E+02  0.17600415511E+02  0.11665328164E+04  0.11710306343E+04  0.77000000000E+02 0.  0.
   -5000001    1    1    2    0    0  0.65384709680E+02 -0.17600415511E+02  0.42938331497E+03  0.44145664121E+03  0.77000000000E+02 0.  0.
<mgrwt>
<rscale>  0 0.23057952E+03</rscale>
<asrwt>0</asrwt>
<pdfrwt beam="1">  1        2 0.22917163E+00 0.23057952E+03</pdfrwt>
<pdfrwt beam="2">  1       -2 0.11836534E-02 0.23057952E+03</pdfrwt>
<totfact> 0.22865691E+04</totfact>
</mgrwt>
</event>
<event>
 4    1  0.6853809E-004  0.3523426E+03  0.7818608E-02  0.1061658E+00
         -2   -1    0    0    0  501 -0.00000000000E+00  0.00000000000E+00  0.22256761404E+02  0.22256761550E+02  0.25500000000E-02 0. -1.
          2   -1    0    0  501    0  0.00000000000E+00 -0.00000000000E+00 -0.13944673080E+04  0.13944673080E+04  0.25500000000E-02 0.  1.
    5000001    1    1    2    0    0 -0.22115528558E+02 -0.14003550646E+03 -0.97065928246E+03  0.98397534639E+03  0.77000000000E+02 0.  0.
   -5000001    1    1    2    0    0  0.22115528558E+02  0.14003550646E+03 -0.40155126416E+03  0.43274872319E+03  0.77000000000E+02 0.  0.
<mgrwt>
<rscale>  0 0.35234260E+03</rscale>
<asrwt>0</asrwt>
<pdfrwt beam="1">  1        2 0.19920956E+00 0.35234260E+03</pdfrwt>
<pdfrwt beam="2">  1       -2 0.31795382E-02 0.35234260E+03</pdfrwt>
<totfact> 0.68897448E+03</totfact>
</mgrwt>
</event>
<event>
 4    1  0.6853809E-004  0.2206460E+03  0.7818608E-02  0.1133402E+00
         -2   -1    0    0    0  501 -0.00000000000E+00  0.00000000000E+00  0.58758743244E+01  0.58758748778E+01  0.25500000000E-02 0. -1.
          2   -1    0    0  501    0  0.00000000000E+00 -0.00000000000E+00 -0.20713788551E+04  0.20713788551E+04  0.25500000000E-02 0.  1.
    5000001    1    1    2    0    0 -0.17752689806E+02  0.30712480663E+02 -0.36813399899E+03  0.37776984485E+03  0.77000000000E+02 0.  0.
   -5000001    1    1    2    0    0  0.17752689806E+02 -0.30712480663E+02 -0.16973689818E+04  0.16994848851E+04  0.77000000000E+02 0.  0.
<mgrwt>
<rscale>  0 0.22064598E+03</rscale>
<asrwt>0</asrwt>
<pdfrwt beam="1">  1        2 0.29591080E+00 0.22064598E+03</pdfrwt>
<pdfrwt beam="2">  1       -2 0.83941199E-03 0.22064598E+03</pdfrwt>
<totfact> 0.22222786E+04</totfact>
</mgrwt>
</event>
<event>
 4    1  0.6853809E-004  0.1890405E+03  0.7818608E-02  0.1159330E+00
          2   -1    0    0  501    0  0.00000000000E+00  0.00000000000E+00  0.21959555251E+03  0.21959555253E+03  0.25500000000E-02 0.  1.
         -2   -1    0    0    0  501 -0.00000000000E+00 -0.00000000000E+00 -0.40684250538E+02  0.40684250618E+02  0.25500000000E-02 0. -1.
    5000001    1    1    2    0    0 -0.53332461405E+02  0.73620246141E+01  0.75244777375E+02  0.12037162194E+03  0.77000000000E+02 0.  0.
   -5000001    1    1    2    0    0  0.53332461405E+02 -0.73620246141E+01  0.10366652460E+03  0.13990818121E+03  0.77000000000E+02 0.  0.
<mgrwt>
<rscale>  0 0.18904053E+03</rscale>
<asrwt>0</asrwt>
<pdfrwt beam="1">  1        2 0.31370793E-01 0.18904053E+03</pdfrwt>
<pdfrwt beam="2">  1       -2 0.58120358E-02 0.18904053E+03</pdfrwt>
<totfact> 0.24842902E+04</totfact>
</mgrwt>
</event>
<event>
 4    1  0.6853809E-004  0.1941903E+03  0.7818608E-02  0.1154735E+00
         -2   -1    0    0    0  501 -0.00000000000E+00  0.00000000000E+00  0.27618781857E+01  0.27618793629E+01  0.25500000000E-02 0. -1.
          2   -1    0    0  501    0  0.00000000000E+00 -0.00000000000E+00 -0.34134253601E+04  0.34134253601E+04  0.25500000000E-02 0.  1.
    5000001    1    1    2    0    0  0.35185712629E+02 -0.30174391795E+02 -0.23516868594E+04  0.23534036230E+04  0.77000000000E+02 0.  0.
   -5000001    1    1    2    0    0 -0.35185712629E+02  0.30174391795E+02 -0.10589766225E+04  0.10627836164E+04  0.77000000000E+02 0.  0.
<mgrwt>
<rscale>  0 0.19419029E+03</rscale>
<asrwt>0</asrwt>
<pdfrwt beam="1">  1        2 0.48762949E+00 0.19419029E+03</pdfrwt>
<pdfrwt beam="2">  1       -2 0.39455630E-03 0.19419029E+03</pdfrwt>
<totfact> 0.13412447E+04</totfact>
</mgrwt>
</event>
<event>
 4    1  0.6853809E-004  0.1890325E+03  0.7818608E-02  0.1159337E+00
          2   -1    0    0  501    0  0.00000000000E+00  0.00000000000E+00  0.32261279972E+04  0.32261279972E+04  0.25500000000E-02 0.  1.
         -2   -1    0    0    0  501 -0.00000000000E+00 -0.00000000000E+00 -0.27690522125E+01  0.27690533866E+01  0.25500000000E-02 0. -1.
    5000001    1    1    2    0    0 -0.54650285633E+02  0.23924087356E+01  0.15526531284E+04  0.15555234214E+04  0.77000000000E+02 0.  0.
   -5000001    1    1    2    0    0  0.54650285633E+02 -0.23924087356E+01  0.16707058165E+04  0.16733736291E+04  0.77000000000E+02 0.  0.
<mgrwt>
<rscale>  0 0.18903247E+03</rscale>
<asrwt>0</asrwt>
<pdfrwt beam="1">  1        2 0.46087497E+00 0.18903247E+03</pdfrwt>
<pdfrwt beam="2">  1       -2 0.39557937E-03 0.18903247E+03</pdfrwt>
<totfact> 0.16955668E+04</totfact>
</mgrwt>
</event>
<event>
 4    1  0.6853809E-004  0.3374474E+03  0.7818608E-02  0.1067888E+00
          2   -1    0    0  501    0  0.00000000000E+00  0.00000000000E+00  0.52632801714E+03  0.52632801714E+03  0.25500000000E-02 0.  1.
         -2   -1    0    0    0  501 -0.00000000000E+00 -0.00000000000E+00 -0.54087350978E+02  0.54087351038E+02  0.25500000000E-02 0. -1.
    5000001    1    1    2    0    0  0.63368645263E+02  0.12760827427E+03  0.15472822634E+03  0.22398500148E+03  0.77000000000E+02 0.  0.
   -5000001    1    1    2    0    0 -0.63368645263E+02 -0.12760827427E+03  0.31751243982E+03  0.35643036670E+03  0.77000000000E+02 0.  0.
<mgrwt>
<rscale>  0 0.33744741E+03</rscale>
<asrwt>0</asrwt>
<pdfrwt beam="1">  1        2 0.75189717E-01 0.33744741E+03</pdfrwt>
<pdfrwt beam="2">  1       -2 0.77267644E-02 0.33744741E+03</pdfrwt>
<totfact> 0.63991442E+03</totfact>
</mgrwt>
</event>
<event>
 4    1  0.6853809E-004  0.2077040E+03  0.7818608E-02  0.1143397E+00
          2   -1    0    0  501    0  0.00000000000E+00  0.00000000000E+00  0.22084578272E+02  0.22084578419E+02  0.25500000000E-02 0.  1.
         -2   -1    0    0    0  501 -0.00000000000E+00 -0.00000000000E+00 -0.48836077367E+03  0.48836077368E+03  0.25500000000E-02 0. -1.
    5000001    1    1    2    0    0  0.26628748531E+02 -0.31371233122E+02 -0.94923560796E+02  0.12896792977E+03  0.77000000000E+02 0.  0.
   -5000001    1    1    2    0    0 -0.26628748531E+02  0.31371233122E+02 -0.37135263460E+03  0.38147742232E+03  0.77000000000E+02 0.  0.
<mgrwt>
<rscale>  0 0.20770404E+03</rscale>
<asrwt>0</asrwt>
<pdfrwt beam="1">  1        2 0.31549401E-02 0.20770404E+03</pdfrwt>
<pdfrwt beam="2">  1       -2 0.69765818E-01 0.20770404E+03</pdfrwt>
<totfact> 0.54980667E+03</totfact>
</mgrwt>
</event>
<event>
 4    1  0.6853809E-004  0.2444774E+03  0.7818608E-02  0.1116846E+00
          2   -1    0    0  501    0  0.00000000000E+00  0.00000000000E+00  0.20137432158E+03  0.20137432160E+03  0.25500000000E-02 0.  1.
         -2   -1    0    0    0  501 -0.00000000000E+00 -0.00000000000E+00 -0.74201635190E+02  0.74201635234E+02  0.25500000000E-02 0. -1.
    5000001    1    1    2    0    0 -0.53643427848E+02  0.95531850157E+01 -0.24049138702E+02  0.97345989992E+02  0.77000000000E+02 0.  0.
   -5000001    1    1    2    0    0  0.53643427848E+02 -0.95531850157E+01  0.15122182509E+03  0.17822996684E+03  0.77000000000E+02 0.  0.
<mgrwt>
<rscale>  0 0.24447743E+03</rscale>
<asrwt>0</asrwt>
<pdfrwt beam="1">  1        2 0.28767760E-01 0.24447743E+03</pdfrwt>
<pdfrwt beam="2">  1       -2 0.10600234E-01 0.24447743E+03</pdfrwt>
<totfact> 0.10911717E+04</totfact>
</mgrwt>
</event>
<event>
 4    1  0.6853809E-004  0.8161910E+03  0.7818608E-02  0.9536873E-01
          2   -1    0    0  501    0  0.00000000000E+00  0.00000000000E+00  0.94756185888E+03  0.94756185888E+03  0.25500000000E-02 0.  1.
         -2   -1    0    0    0  501 -0.00000000000E+00 -0.00000000000E+00 -0.17575838421E+03  0.17575838422E+03  0.25500000000E-02 0. -1.
    5000001    1    1    2    0    0 -0.34324788694E+03 -0.12987558284E+02  0.67004983460E+03  0.75689072488E+03  0.77000000000E+02 0.  0.
   -5000001    1    1    2    0    0  0.34324788694E+03  0.12987558284E+02  0.10175364007E+03  0.36642951822E+03  0.77000000000E+02 0.  0.
<mgrwt>
<rscale>  0 0.81619101E+03</rscale>
<asrwt>0</asrwt>
<pdfrwt beam="1">  1        2 0.13536598E+00 0.81619101E+03</pdfrwt>
<pdfrwt beam="2">  1       -2 0.25108341E-01 0.81619101E+03</pdfrwt>
<totfact> 0.43176570E+02</totfact>
</mgrwt>
</event>
<event>
 4    1  0.6853809E-004  0.3793417E+03  0.7818608E-02  0.1051177E+00
          2   -1    0    0  501    0  0.00000000000E+00  0.00000000000E+00  0.24274891579E+04  0.24274891579E+04  0.25500000000E-02 0.  1.
         -2   -1    0    0    0  501 -0.00000000000E+00 -0.00000000000E+00 -0.14819851519E+02  0.14819851739E+02  0.25500000000E-02 0. -1.
    5000001    1    1    2    0    0  0.13008471546E+03 -0.57559920584E+01  0.46969651041E+03  0.49345615461E+03  0.77000000000E+02 0.  0.
   -5000001    1    1    2    0    0 -0.13008471546E+03  0.57559920584E+01  0.19429727959E+04  0.19488528550E+04  0.77000000000E+02 0.  0.
<mgrwt>
<rscale>  0 0.37934169E+03</rscale>
<asrwt>0</asrwt>
<pdfrwt beam="1">  1        2 0.34678461E+00 0.37934169E+03</pdfrwt>
<pdfrwt beam="2">  1       -2 0.21171190E-02 0.37934169E+03</pdfrwt>
<totfact> 0.38580650E+03</totfact>
</mgrwt>
</event>
<event>
 4    1  0.6853809E-004  0.1980566E+03  0.7818608E-02  0.1151389E+00
          2   -1    0    0  501    0  0.00000000000E+00  0.00000000000E+00  0.13554045826E+04  0.13554045826E+04  0.25500000000E-02 0.  1.
         -2   -1    0    0    0  501 -0.00000000000E+00 -0.00000000000E+00 -0.72351885398E+01  0.72351889892E+01  0.25500000000E-02 0. -1.
    5000001    1    1    2    0    0 -0.54155186966E+02 -0.45594313086E+01  0.88322413822E+03  0.88823839763E+03  0.77000000000E+02 0.  0.
   -5000001    1    1    2    0    0  0.54155186966E+02  0.45594313086E+01  0.46494525586E+03  0.47440137399E+03  0.77000000000E+02 0.  0.
<mgrwt>
<rscale>  0 0.19805664E+03</rscale>
<asrwt>0</asrwt>
<pdfrwt beam="1">  1        2 0.19362927E+00 0.19805664E+03</pdfrwt>
<pdfrwt beam="2">  1       -2 0.10335982E-02 0.19805664E+03</pdfrwt>
<totfact> 0.36791832E+04</totfact>
</mgrwt>
</event>
<event>
 4    1  0.6853809E-004  0.2320775E+03  0.7818608E-02  0.1125186E+00
         -2   -1    0    0    0  501 -0.00000000000E+00  0.00000000000E+00  0.38215663271E+01  0.38215671779E+01  0.25500000000E-02 0. -1.
          2   -1    0    0  501    0  0.00000000000E+00 -0.00000000000E+00 -0.35234228005E+04  0.35234228005E+04  0.25500000000E-02 0.  1.
    5000001    1    1    2    0    0  0.72231065137E+02 -0.31323715841E+02 -0.12039625509E+04  0.12089885549E+04  0.77000000000E+02 0.  0.
   -5000001    1    1    2    0    0 -0.72231065137E+02  0.31323715841E+02 -0.23156386833E+04  0.23182558128E+04  0.77000000000E+02 0.  0.
<mgrwt>
<rscale>  0 0.23207753E+03</rscale>
<asrwt>0</asrwt>
<pdfrwt beam="1">  1        2 0.50334403E+00 0.23207753E+03</pdfrwt>
<pdfrwt beam="2">  1       -2 0.54594036E-03 0.23207753E+03</pdfrwt>
<totfact> 0.72963159E+03</totfact>
</mgrwt>
</event>
<event>
 4    1  0.6853809E-004  0.2608087E+03  0.7818608E-02  0.1106658E+00
         -2   -1    0    0    0  501 -0.00000000000E+00  0.00000000000E+00  0.37898869636E+02  0.37898869721E+02  0.25500000000E-02 0. -1.
          2   -1    0    0  501    0  0.00000000000E+00 -0.00000000000E+00 -0.44870188140E+03  0.44870188141E+03  0.25500000000E-02 0.  1.
    5000001    1    1    2    0    0  0.67819449280E+02  0.54768157504E+02 -0.95382017259E+02  0.15041860920E+03  0.77000000000E+02 0.  0.
   -5000001    1    1    2    0    0 -0.67819449280E+02 -0.54768157504E+02 -0.31542099451E+03  0.33618214193E+03  0.77000000000E+02 0.  0.
<mgrwt>
<rscale>  0 0.26080870E+03</rscale>
<asrwt>0</asrwt>
<pdfrwt beam="1">  1        2 0.64100266E-01 0.26080870E+03</pdfrwt>
<pdfrwt beam="2">  1       -2 0.54141245E-02 0.26080870E+03</pdfrwt>
<totfact> 0.13094753E+04</totfact>
</mgrwt>
</event>
<event>
 4    1  0.6853809E-004  0.4058224E+03  0.7818608E-02  0.1041782E+00
         -2   -1    0    0    0  501 -0.00000000000E+00  0.00000000000E+00  0.11622406056E+03  0.11622406059E+03  0.25500000000E-02 0. -1.
          2   -1    0    0  501    0  0.00000000000E+00 -0.00000000000E+00 -0.35425500577E+03  0.35425500578E+03  0.25500000000E-02 0.  1.
    5000001    1    1    2    0    0  0.12615575315E+03 -0.13853847831E+03 -0.10550694039E+03  0.22840511924E+03  0.77000000000E+02 0.  0.
   -5000001    1    1    2    0    0 -0.12615575315E+03  0.13853847831E+03 -0.13252400482E+03  0.24207394713E+03  0.77000000000E+02 0.  0.
<mgrwt>
<rscale>  0 0.40582240E+03</rscale>
<asrwt>0</asrwt>
<pdfrwt beam="1">  1        2 0.50607857E-01 0.40582240E+03</pdfrwt>
<pdfrwt beam="2">  1       -2 0.16603437E-01 0.40582240E+03</pdfrwt>
<totfact> 0.28761669E+03</totfact>
</mgrwt>
</event>
<event>
 4    1  0.6853809E-004  0.3262536E+03  0.7818608E-02  0.1072807E+00
          2   -1    0    0  501    0  0.00000000000E+00  0.00000000000E+00  0.12538108388E+04  0.12538108389E+04  0.25500000000E-02 0.  1.
         -2   -1    0    0    0  501 -0.00000000000E+00 -0.00000000000E+00 -0.21223581654E+02  0.21223581807E+02  0.25500000000E-02 0. -1.
    5000001    1    1    2    0    0 -0.17012291187E+02  0.13930547448E+03  0.73900595329E+03  0.75614431973E+03  0.77000000000E+02 0.  0.
   -5000001    1    1    2    0    0  0.17012291187E+02 -0.13930547448E+03  0.49358130391E+03  0.51889010092E+03  0.77000000000E+02 0.  0.
<mgrwt>
<rscale>  0 0.32625362E+03</rscale>
<asrwt>0</asrwt>
<pdfrwt beam="1">  1        2 0.17911590E+00 0.32625362E+03</pdfrwt>
<pdfrwt beam="2">  1       -2 0.30319391E-02 0.32625362E+03</pdfrwt>
<totfact> 0.87679105E+03</totfact>
</mgrwt>
</event>
<event>
 4    1  0.6853809E-004  0.1872935E+03  0.7818608E-02  0.1160925E+00
         -2   -1    0    0    0  501 -0.00000000000E+00  0.00000000000E+00  0.31066555644E+03  0.31066555645E+03  0.25500000000E-02 0. -1.
          2   -1    0    0  501    0  0.00000000000E+00 -0.00000000000E+00 -0.28228798300E+02  0.28228798415E+02  0.25500000000E-02 0.  1.
    5000001    1    1    2    0    0  0.17777128838E+01  0.52542218335E+02  0.15708268626E+03  0.18266859416E+03  0.77000000000E+02 0.  0.
   -5000001    1    1    2    0    0 -0.17777128838E+01 -0.52542218335E+02  0.12535407188E+03  0.15622576071E+03  0.77000000000E+02 0.  0.
<mgrwt>
<rscale>  0 0.18729352E+03</rscale>
<asrwt>0</asrwt>
<pdfrwt beam="1">  1        2 0.40326855E-02 0.18729352E+03</pdfrwt>
<pdfrwt beam="2">  1       -2 0.44380794E-01 0.18729352E+03</pdfrwt>
<totfact> 0.98466481E+03</totfact>
</mgrwt>
</event>
<event>
 4    1  0.6853809E-004  0.2158859E+03  0.7818608E-02  0.1136988E+00
         -2   -1    0    0    0  501 -0.00000000000E+00  0.00000000000E+00  0.40934777784E+02  0.40934777863E+02  0.25500000000E-02 0. -1.
          2   -1    0    0  501    0  0.00000000000E+00 -0.00000000000E+00 -0.28464012936E+03  0.28464012937E+03  0.25500000000E-02 0.  1.
    5000001    1    1    2    0    0  0.26686961622E+01  0.73011301342E+02 -0.92265375539E+02  0.14064022037E+03  0.77000000000E+02 0.  0.
   -5000001    1    1    2    0    0 -0.26686961622E+01 -0.73011301342E+02 -0.15143997604E+03  0.18493468686E+03  0.77000000000E+02 0.  0.
<mgrwt>
<rscale>  0 0.21588590E+03</rscale>
<asrwt>0</asrwt>
<pdfrwt beam="1">  1        2 0.40662874E-01 0.21588590E+03</pdfrwt>
<pdfrwt beam="2">  1       -2 0.58478256E-02 0.21588590E+03</pdfrwt>
<totfact> 0.18790880E+04</totfact>
</mgrwt>
</event>
<event>
 4    1  0.6853809E-004  0.2408816E+03  0.7818608E-02  0.1119207E+00
          2   -1    0    0  501    0  0.00000000000E+00  0.00000000000E+00  0.16315702249E+04  0.16315702249E+04  0.25500000000E-02 0.  1.
         -2   -1    0    0    0  501 -0.00000000000E+00 -0.00000000000E+00 -0.88908164310E+01  0.88908167967E+01  0.25500000000E-02 0. -1.
    5000001    1    1    2    0    0 -0.84590888476E+01 -0.72744079349E+02  0.11974107254E+04  0.12021167592E+04  0.77000000000E+02 0.  0.
   -5000001    1    1    2    0    0  0.84590888476E+01  0.72744079349E+02  0.42526868299E+03  0.43834428250E+03  0.77000000000E+02 0.  0.
<mgrwt>
<rscale>  0 0.24088164E+03</rscale>
<asrwt>0</asrwt>
<pdfrwt beam="1">  1        2 0.23308140E+00 0.24088164E+03</pdfrwt>
<pdfrwt beam="2">  1       -2 0.12701170E-02 0.24088164E+03</pdfrwt>
<totfact> 0.20044943E+04</totfact>
</mgrwt>
</event>
<event>
 4    1  0.6853809E-004  0.1660611E+03  0.7818608E-02  0.1182019E+00
         -2   -1    0    0    0  501 -0.00000000000E+00  0.00000000000E+00  0.24230831916E+02  0.24230832050E+02  0.25500000000E-02 0. -1.
          2   -1    0    0  501    0  0.00000000000E+00 -0.00000000000E+00 -0.28451667381E+03  0.28451667382E+03  0.25500000000E-02 0.  1.
    5000001    1    1    2    0    0 -0.50311275454E+01  0.20300865387E+02 -0.17285036804E+03  0.19037774847E+03  0.77000000000E+02 0.  0.
   -5000001    1    1    2    0    0  0.50311275454E+01 -0.20300865387E+02 -0.87435473856E+02  0.11836975741E+03  0.77000000000E+02 0.  0.
<mgrwt>
<rscale>  0 0.16606114E+03</rscale>
<asrwt>0</asrwt>
<pdfrwt beam="1">  1        2 0.40645237E-01 0.16606114E+03</pdfrwt>
<pdfrwt beam="2">  1       -2 0.34615476E-02 0.16606114E+03</pdfrwt>
<totfact> 0.40444504E+04</totfact>
</mgrwt>
</event>
<event>
 4    1  0.6853809E-004  0.2763932E+03  0.7818608E-02  0.1097675E+00
          2   -1    0    0  501    0  0.00000000000E+00  0.00000000000E+00  0.10430533700E+04  0.10430533700E+04  0.25500000000E-02 0.  1.
         -2   -1    0    0    0  501 -0.00000000000E+00 -0.00000000000E+00 -0.18309990269E+02  0.18309990446E+02  0.25500000000E-02 0. -1.
    5000001    1    1    2    0    0  0.55061429527E+02 -0.34593628029E+02  0.87547096004E+03  0.88125301815E+03  0.77000000000E+02 0.  0.
   -5000001    1    1    2    0    0 -0.55061429527E+02  0.34593628029E+02  0.14927241967E+03  0.18011034228E+03  0.77000000000E+02 0.  0.
<mgrwt>
<rscale>  0 0.27639318E+03</rscale>
<asrwt>0</asrwt>
<pdfrwt beam="1">  1        2 0.14900758E+00 0.27639318E+03</pdfrwt>
<pdfrwt beam="2">  1       -2 0.26157138E-02 0.27639318E+03</pdfrwt>
<totfact> 0.14237788E+04</totfact>
</mgrwt>
</event>
<event>
 4    1  0.6853809E-004  0.1704319E+03  0.7818608E-02  0.1177398E+00
          2   -1    0    0  501    0  0.00000000000E+00  0.00000000000E+00  0.59855523220E+03  0.59855523220E+03  0.25500000000E-02 0.  1.
         -2   -1    0    0    0  501 -0.00000000000E+00 -0.00000000000E+00 -0.12132139758E+02  0.12132140026E+02  0.25500000000E-02 0. -1.
    5000001    1    1    2    0    0 -0.15063662575E+01  0.35827855690E+02  0.26868538655E+03  0.28179201786E+03  0.77000000000E+02 0.  0.
   -5000001    1    1    2    0    0  0.15063662575E+01 -0.35827855690E+02  0.31773770589E+03  0.32889535437E+03  0.77000000000E+02 0.  0.
<mgrwt>
<rscale>  0 0.17043187E+03</rscale>
<asrwt>0</asrwt>
<pdfrwt beam="1">  1        2 0.85507900E-01 0.17043187E+03</pdfrwt>
<pdfrwt beam="2">  1       -2 0.17331627E-02 0.17043187E+03</pdfrwt>
<totfact> 0.50073217E+04</totfact>
</mgrwt>
</event>
<event>
 4    1  0.6853809E-004  0.2841371E+03  0.7818608E-02  0.1093451E+00
          2   -1    0    0  501    0  0.00000000000E+00  0.00000000000E+00  0.58581415890E+03  0.58581415890E+03  0.25500000000E-02 0.  1.
         -2   -1    0    0    0  501 -0.00000000000E+00 -0.00000000000E+00 -0.34453713027E+02  0.34453713121E+02  0.25500000000E-02 0. -1.
    5000001    1    1    2    0    0  0.47489042316E+01  0.10155196803E+03  0.13901892277E+03  0.18865475131E+03  0.77000000000E+02 0.  0.
   -5000001    1    1    2    0    0 -0.47489042316E+01 -0.10155196803E+03  0.41234152310E+03  0.43161312072E+03  0.77000000000E+02 0.  0.
<mgrwt>
<rscale>  0 0.28413710E+03</rscale>
<asrwt>0</asrwt>
<pdfrwt beam="1">  1        2 0.83687740E-01 0.28413710E+03</pdfrwt>
<pdfrwt beam="2">  1       -2 0.49219588E-02 0.28413710E+03</pdfrwt>
<totfact> 0.11299653E+04</totfact>
</mgrwt>
</event>
<event>
 4    1  0.6853809E-004  0.2245427E+03  0.7818608E-02  0.1130541E+00
          2   -1    0    0  501    0  0.00000000000E+00  0.00000000000E+00  0.11345072812E+04  0.11345072812E+04  0.25500000000E-02 0.  1.
         -2   -1    0    0    0  501 -0.00000000000E+00 -0.00000000000E+00 -0.11110424257E+02  0.11110424550E+02  0.25500000000E-02 0. -1.
    5000001    1    1    2    0    0  0.12750855387E+02 -0.80694940506E+02  0.56815130405E+03  0.57913656596E+03  0.77000000000E+02 0.  0.
   -5000001    1    1    2    0    0 -0.12750855387E+02  0.80694940506E+02  0.55524555292E+03  0.56648113982E+03  0.77000000000E+02 0.  0.
<mgrwt>
<rscale>  0 0.22454271E+03</rscale>
<asrwt>0</asrwt>
<pdfrwt beam="1">  1        2 0.16207256E+00 0.22454271E+03</pdfrwt>
<pdfrwt beam="2">  1       -2 0.15872026E-02 0.22454271E+03</pdfrwt>
<totfact> 0.26082445E+04</totfact>
</mgrwt>
</event>
<event>
 4    1  0.6853809E-004  0.1803485E+03  0.7818608E-02  0.1167466E+00
         -2   -1    0    0    0  501 -0.00000000000E+00  0.00000000000E+00  0.10646444808E+02  0.10646445113E+02  0.25500000000E-02 0. -1.
          2   -1    0    0  501    0  0.00000000000E+00 -0.00000000000E+00 -0.76376644569E+03  0.76376644569E+03  0.25500000000E-02 0.  1.
    5000001    1    1    2    0    0  0.28632742205E+02 -0.35016403375E+02 -0.32285692208E+03  0.33497996144E+03  0.77000000000E+02 0.  0.
   -5000001    1    1    2    0    0 -0.28632742205E+02  0.35016403375E+02 -0.43026307880E+03  0.43943292936E+03  0.77000000000E+02 0.  0.
<mgrwt>
<rscale>  0 0.18034852E+03</rscale>
<asrwt>0</asrwt>
<pdfrwt beam="1">  1        2 0.10910946E+00 0.18034852E+03</pdfrwt>
<pdfrwt beam="2">  1       -2 0.15209212E-02 0.18034852E+03</pdfrwt>
<totfact> 0.45838168E+04</totfact>
</mgrwt>
</event>
<event>
 4    1  0.6853809E-004  0.1955188E+03  0.7818608E-02  0.1153576E+00
         -2   -1    0    0    0  501 -0.00000000000E+00  0.00000000000E+00  0.33746101120E+02  0.33746101217E+02  0.25500000000E-02 0. -1.
          2   -1    0    0  501    0  0.00000000000E+00 -0.00000000000E+00 -0.28320014355E+03  0.28320014356E+03  0.25500000000E-02 0.  1.
    5000001    1    1    2    0    0 -0.19433935293E+02  0.54401033867E+02 -0.15236824185E+03  0.18022827595E+03  0.77000000000E+02 0.  0.
   -5000001    1    1    2    0    0  0.19433935293E+02 -0.54401033867E+02 -0.97085800580E+02  0.13671796883E+03  0.77000000000E+02 0.  0.
<mgrwt>
<rscale>  0 0.19551880E+03</rscale>
<asrwt>0</asrwt>
<pdfrwt beam="1">  1        2 0.40457162E-01 0.19551880E+03</pdfrwt>
<pdfrwt beam="2">  1       -2 0.48208717E-02 0.19551880E+03</pdfrwt>
<totfact> 0.25138938E+04</totfact>
</mgrwt>
</event>
<event>
 4    1  0.6853809E-004  0.2327392E+03  0.7818608E-02  0.1124726E+00
         -2   -1    0    0    0  501 -0.00000000000E+00  0.00000000000E+00  0.51694463147E+03  0.51694463148E+03  0.25500000000E-02 0. -1.
          2   -1    0    0  501    0  0.00000000000E+00 -0.00000000000E+00 -0.26196010797E+02  0.26196010922E+02  0.25500000000E-02 0.  1.
    5000001    1    1    2    0    0  0.58695714101E+02 -0.64551868445E+02  0.24740422904E+03  0.27340443142E+03  0.77000000000E+02 0.  0.
   -5000001    1    1    2    0    0 -0.58695714101E+02  0.64551868445E+02  0.24334439163E+03  0.26973621098E+03  0.77000000000E+02 0.  0.
<mgrwt>
<rscale>  0 0.23273923E+03</rscale>
<asrwt>0</asrwt>
<pdfrwt beam="1">  1        2 0.37422868E-02 0.23273923E+03</pdfrwt>
<pdfrwt beam="2">  1       -2 0.73849242E-01 0.23273923E+03</pdfrwt>
<totfact> 0.38915206E+03</totfact>
</mgrwt>
</event>
<event>
 4    1  0.6853809E-004  0.3299469E+03  0.7818608E-02  0.1071160E+00
         -2   -1    0    0    0  501 -0.00000000000E+00  0.00000000000E+00  0.15688027853E+03  0.15688027855E+03  0.25500000000E-02 0. -1.
          2   -1    0    0  501    0  0.00000000000E+00 -0.00000000000E+00 -0.17348411914E+03  0.17348411916E+03  0.25500000000E-02 0.  1.
    5000001    1    1    2    0    0  0.12932647271E+03  0.66573506795E+02  0.31084900855E+01  0.16460872110E+03  0.77000000000E+02 0.  0.
   -5000001    1    1    2    0    0 -0.12932647271E+03 -0.66573506795E+02 -0.19712330694E+02  0.16575567662E+03  0.77000000000E+02 0.  0.
<mgrwt>
<rscale>  0 0.32994689E+03</rscale>
<asrwt>0</asrwt>
<pdfrwt beam="1">  1        2 0.24783446E-01 0.32994689E+03</pdfrwt>
<pdfrwt beam="2">  1       -2 0.22411468E-01 0.32994689E+03</pdfrwt>
<totfact> 0.37533291E+03</totfact>
</mgrwt>
</event>
<event>
 4    1  0.6853809E-004  0.2490565E+03  0.7818608E-02  0.1113903E+00
          2   -1    0    0  501    0  0.00000000000E+00  0.00000000000E+00  0.11067897796E+04  0.11067897796E+04  0.25500000000E-02 0.  1.
         -2   -1    0    0    0  501 -0.00000000000E+00 -0.00000000000E+00 -0.14011051074E+02  0.14011051306E+02  0.25500000000E-02 0. -1.
    5000001    1    1    2    0    0 -0.67649218078E+02  0.39197172876E+02  0.81130679672E+03  0.81869442009E+03  0.77000000000E+02 0.  0.
   -5000001    1    1    2    0    0  0.67649218078E+02 -0.39197172876E+02  0.28147193179E+03  0.30210641081E+03  0.77000000000E+02 0.  0.
<mgrwt>
<rscale>  0 0.24905653E+03</rscale>
<asrwt>0</asrwt>
<pdfrwt beam="1">  1        2 0.15811281E+00 0.24905653E+03</pdfrwt>
<pdfrwt beam="2">  1       -2 0.20015789E-02 0.24905653E+03</pdfrwt>
<totfact> 0.19352037E+04</totfact>
</mgrwt>
</event>
<event>
 4    1  0.6853809E-004  0.1753308E+03  0.7818608E-02  0.1172400E+00
         -2   -1    0    0    0  501 -0.00000000000E+00  0.00000000000E+00  0.45282809899E+02  0.45282809971E+02  0.25500000000E-02 0. -1.
          2   -1    0    0  501    0  0.00000000000E+00 -0.00000000000E+00 -0.16971604703E+03  0.16971604705E+03  0.25500000000E-02 0.  1.
    5000001    1    1    2    0    0 -0.41530393886E+02 -0.54188327005E+01 -0.63986047061E+02  0.10852350705E+03  0.77000000000E+02 0.  0.
   -5000001    1    1    2    0    0  0.41530393886E+02  0.54188327005E+01 -0.60447190075E+02  0.10647534997E+03  0.77000000000E+02 0.  0.
<mgrwt>
<rscale>  0 0.17533077E+03</rscale>
<asrwt>0</asrwt>
<pdfrwt beam="1">  1        2 0.24245149E-01 0.17533077E+03</pdfrwt>
<pdfrwt beam="2">  1       -2 0.64689729E-02 0.17533077E+03</pdfrwt>
<totfact> 0.27814871E+04</totfact>
</mgrwt>
</event>
<event>
 4    1  0.6853809E-004  0.1753198E+03  0.7818608E-02  0.1172411E+00
          2   -1    0    0  501    0  0.00000000000E+00  0.00000000000E+00  0.53635353366E+03  0.53635353367E+03  0.25500000000E-02 0.  1.
         -2   -1    0    0    0  501 -0.00000000000E+00 -0.00000000000E+00 -0.14326845995E+02  0.14326846222E+02  0.25500000000E-02 0. -1.
    5000001    1    1    2    0    0  0.38112585920E+02  0.16596575180E+02  0.24462011395E+03  0.25979995316E+03  0.77000000000E+02 0.  0.
   -5000001    1    1    2    0    0 -0.38112585920E+02 -0.16596575180E+02  0.27740657372E+03  0.29088042673E+03  0.77000000000E+02 0.  0.
<mgrwt>
<rscale>  0 0.17531976E+03</rscale>
<asrwt>0</asrwt>
<pdfrwt beam="1">  1        2 0.76621924E-01 0.17531976E+03</pdfrwt>
<pdfrwt beam="2">  1       -2 0.20466925E-02 0.17531976E+03</pdfrwt>
<totfact> 0.44543894E+04</totfact>
</mgrwt>
</event>
<event>
 4    1  0.6853809E-004  0.2218039E+03  0.7818608E-02  0.1132545E+00
         -2   -1    0    0    0  501 -0.00000000000E+00  0.00000000000E+00  0.72046525681E+02  0.72046525726E+02  0.25500000000E-02 0. -1.
          2   -1    0    0  501    0  0.00000000000E+00 -0.00000000000E+00 -0.17071246193E+03  0.17071246195E+03  0.25500000000E-02 0.  1.
    5000001    1    1    2    0    0  0.69146660554E+01  0.76505079445E+02 -0.73045489047E+02  0.13101711055E+03  0.77000000000E+02 0.  0.
   -5000001    1    1    2    0    0 -0.69146660554E+01 -0.76505079445E+02 -0.25620447200E+02  0.11174187712E+03  0.77000000000E+02 0.  0.
<mgrwt>
<rscale>  0 0.22180388E+03</rscale>
<asrwt>0</asrwt>
<pdfrwt beam="1">  1        2 0.24387494E-01 0.22180388E+03</pdfrwt>
<pdfrwt beam="2">  1       -2 0.10292361E-01 0.22180388E+03</pdfrwt>
<totfact> 0.13653986E+04</totfact>
</mgrwt>
</event>
<event>
 4    1  0.6853809E-004  0.2017263E+03  0.7818608E-02  0.1148291E+00
         -2   -1    0    0    0  501 -0.00000000000E+00  0.00000000000E+00  0.14401550964E+02  0.14401551190E+02  0.25500000000E-02 0. -1.
          2   -1    0    0  501    0  0.00000000000E+00 -0.00000000000E+00 -0.70640835580E+03  0.70640835581E+03  0.25500000000E-02 0.  1.
    5000001    1    1    2    0    0  0.26660508469E+02  0.29043857154E+02 -0.53133018713E+03  0.53832619860E+03  0.77000000000E+02 0.  0.
   -5000001    1    1    2    0    0 -0.26660508469E+02 -0.29043857154E+02 -0.16067661771E+03  0.18248370840E+03  0.77000000000E+02 0.  0.
<mgrwt>
<rscale>  0 0.20172631E+03</rscale>
<asrwt>0</asrwt>
<pdfrwt beam="1">  1        2 0.10091546E+00 0.20172631E+03</pdfrwt>
<pdfrwt beam="2">  1       -2 0.20573649E-02 0.20172631E+03</pdfrwt>
<totfact> 0.32696195E+04</totfact>
</mgrwt>
</event>
<event>
 4    1  0.6853809E-004  0.3961900E+03  0.7818608E-02  0.1045107E+00
         -2   -1    0    0    0  501 -0.00000000000E+00  0.00000000000E+00  0.98986960265E+03  0.98986960266E+03  0.25500000000E-02 0. -1.
          2   -1    0    0  501    0  0.00000000000E+00 -0.00000000000E+00 -0.39643225457E+02  0.39643225539E+02  0.25500000000E-02 0.  1.
    5000001    1    1    2    0    0 -0.16996769142E+03  0.30011073054E+02  0.32087883962E+03  0.37240020186E+03  0.77000000000E+02 0.  0.
   -5000001    1    1    2    0    0  0.16996769142E+03 -0.30011073054E+02  0.62934753758E+03  0.65711262633E+03  0.77000000000E+02 0.  0.
<mgrwt>
<rscale>  0 0.39618997E+03</rscale>
<asrwt>0</asrwt>
<pdfrwt beam="1">  1        2 0.56633178E-02 0.39618997E+03</pdfrwt>
<pdfrwt beam="2">  1       -2 0.14140995E+00 0.39618997E+03</pdfrwt>
<totfact> 0.49459894E+02</totfact>
</mgrwt>
</event>
<event>
 4    1  0.6853809E-004  0.3478585E+03  0.7818608E-02  0.1063497E+00
          2   -1    0    0  501    0  0.00000000000E+00  0.00000000000E+00  0.10442977557E+04  0.10442977557E+04  0.25500000000E-02 0. -1.
         -2   -1    0    0    0  501 -0.00000000000E+00 -0.00000000000E+00 -0.28968162748E+02  0.28968162860E+02  0.25500000000E-02 0.  1.
    5000001    1    1    2    0    0 -0.97682432094E+02  0.54980952162E+02  0.84221746032E+03  0.85312602416E+03  0.77000000000E+02 0.  0.
   -5000001    1    1    2    0    0  0.97682432094E+02 -0.54980952162E+02  0.17311213263E+03  0.22013989439E+03  0.77000000000E+02 0.  0.
<mgrwt>
<rscale>  0 0.34785852E+03</rscale>
<asrwt>0</asrwt>
<pdfrwt beam="1">  1        2 0.14918541E+00 0.34785852E+03</pdfrwt>
<pdfrwt beam="2">  1       -2 0.41383085E-02 0.34785852E+03</pdfrwt>
<totfact> 0.71948112E+03</totfact>
</mgrwt>
</event>
<event>
 4    1  0.6853809E-004  0.2089740E+03  0.7818608E-02  0.1142381E+00
          2   -1    0    0  501    0  0.00000000000E+00  0.00000000000E+00  0.17957588953E+03  0.17957588954E+03  0.25500000000E-02 0.  1.
         -2   -1    0    0    0  501 -0.00000000000E+00 -0.00000000000E+00 -0.60796205047E+02  0.60796205101E+02  0.25500000000E-02 0. -1.
    5000001    1    1    2    0    0 -0.62675635891E+02 -0.13806146681E+02  0.93311216590E+02  0.13694826820E+03  0.77000000000E+02 0.  0.
   -5000001    1    1    2    0    0  0.62675635891E+02  0.13806146681E+02  0.25468467888E+02  0.10342382645E+03  0.77000000000E+02 0.  0.
<mgrwt>
<rscale>  0 0.20897399E+03</rscale>
<asrwt>0</asrwt>
<pdfrwt beam="1">  1        2 0.25653698E-01 0.20897399E+03</pdfrwt>
<pdfrwt beam="2">  1       -2 0.86851722E-02 0.20897399E+03</pdfrwt>
<totfact> 0.16799287E+04</totfact>
</mgrwt>
</event>
<event>
 4    1  0.6853809E-004  0.2277607E+03  0.7818608E-02  0.1128226E+00
         -2   -1    0    0    0  501 -0.00000000000E+00  0.00000000000E+00  0.17773115639E+03  0.17773115641E+03  0.25500000000E-02 0. -1.
          2   -1    0    0  501    0  0.00000000000E+00 -0.00000000000E+00 -0.72968294429E+02  0.72968294474E+02  0.25500000000E-02 0.  1.
    5000001    1    1    2    0    0 -0.73481397983E+01 -0.76470728821E+02  0.89512740179E+02  0.14086624216E+03  0.77000000000E+02 0.  0.
   -5000001    1    1    2    0    0  0.73481397983E+01  0.76470728821E+02  0.15250121783E+02  0.10983320873E+03  0.77000000000E+02 0.  0.
<mgrwt>
<rscale>  0 0.22776075E+03</rscale>
<asrwt>0</asrwt>
<pdfrwt beam="1">  1        2 0.10424042E-01 0.22776075E+03</pdfrwt>
<pdfrwt beam="2">  1       -2 0.25390165E-01 0.22776075E+03</pdfrwt>
<totfact> 0.82374384E+03</totfact>
</mgrwt>
</event>
<event>
 4    1  0.6853809E-004  0.2649316E+03  0.7818608E-02  0.1104216E+00
          2   -1    0    0  501    0  0.00000000000E+00  0.00000000000E+00  0.11884412016E+04  0.11884412016E+04  0.25500000000E-02 0.  1.
         -2   -1    0    0    0  501 -0.00000000000E+00 -0.00000000000E+00 -0.14764876530E+02  0.14764876750E+02  0.25500000000E-02 0. -1.
    5000001    1    1    2    0    0 -0.10331224292E+03 -0.19743329744E+02  0.69382754350E+03  0.70596662720E+03  0.77000000000E+02 0.  0.
   -5000001    1    1    2    0    0  0.10331224292E+03  0.19743329744E+02  0.47984878159E+03  0.49723945117E+03  0.77000000000E+02 0.  0.
<mgrwt>
<rscale>  0 0.26493160E+03</rscale>
<asrwt>0</asrwt>
<pdfrwt beam="1">  1        2 0.16977744E+00 0.26493160E+03</pdfrwt>
<pdfrwt beam="2">  1       -2 0.21092665E-02 0.26493160E+03</pdfrwt>
<totfact> 0.16194123E+04</totfact>
</mgrwt>
</event>
<event>
 4    1  0.6853809E-004  0.1983037E+03  0.7818608E-02  0.1151178E+00
         -2   -1    0    0    0  501 -0.00000000000E+00  0.00000000000E+00  0.15352245273E+02  0.15352245485E+02  0.25500000000E-02 0. -1.
          2   -1    0    0  501    0  0.00000000000E+00 -0.00000000000E+00 -0.64036798740E+03  0.64036798741E+03  0.25500000000E-02 0.  1.
    5000001    1    1    2    0    0  0.31436104508E+02  0.48030907446E+02 -0.23104818556E+03  0.25021482927E+03  0.77000000000E+02 0.  0.
   -5000001    1    1    2    0    0 -0.31436104508E+02 -0.48030907446E+02 -0.39396755657E+03  0.40550540362E+03  0.77000000000E+02 0.  0.
<mgrwt>
<rscale>  0 0.19830367E+03</rscale>
<asrwt>0</asrwt>
<pdfrwt beam="1">  1        2 0.91481124E-01 0.19830367E+03</pdfrwt>
<pdfrwt beam="2">  1       -2 0.21931783E-02 0.19830367E+03</pdfrwt>
<totfact> 0.33332386E+04</totfact>
</mgrwt>
</event>
<event>
 4    1  0.6853809E-004  0.1834070E+03  0.7818608E-02  0.1164546E+00
          2   -1    0    0  501    0  0.00000000000E+00  0.00000000000E+00  0.18171802676E+03  0.18171802677E+03  0.25500000000E-02 0.  1.
         -2   -1    0    0    0  501 -0.00000000000E+00 -0.00000000000E+00 -0.46277912581E+02  0.46277912651E+02  0.25500000000E-02 0. -1.
    5000001    1    1    2    0    0 -0.20205981348E+02  0.42415989850E+02  0.88264690114E+02  0.12620243024E+03  0.77000000000E+02 0.  0.
   -5000001    1    1    2    0    0  0.20205981348E+02 -0.42415989850E+02  0.47175424062E+02  0.10179350919E+03  0.77000000000E+02 0.  0.
<mgrwt>
<rscale>  0 0.18340699E+03</rscale>
<asrwt>0</asrwt>
<pdfrwt beam="1">  1        2 0.25959718E-01 0.18340699E+03</pdfrwt>
<pdfrwt beam="2">  1       -2 0.66111303E-02 0.18340699E+03</pdfrwt>
<totfact> 0.25041307E+04</totfact>
</mgrwt>
</event>
<event>
 4    1  0.6853809E-004  0.1907040E+03  0.7818608E-02  0.1157828E+00
         -2   -1    0    0    0  501 -0.00000000000E+00  0.00000000000E+00  0.26271159577E+04  0.26271159577E+04  0.25500000000E-02 0. -1.
          2   -1    0    0  501    0  0.00000000000E+00 -0.00000000000E+00 -0.34608308411E+01  0.34608317805E+01  0.25500000000E-02 0.  1.
    5000001    1    1    2    0    0 -0.24254554514E+02  0.48548817024E+02  0.11082853964E+04  0.11122817947E+04  0.77000000000E+02 0.  0.
   -5000001    1    1    2    0    0  0.24254554514E+02 -0.48548817024E+02  0.15153697305E+04  0.15182949947E+04  0.77000000000E+02 0.  0.
<mgrwt>
<rscale>  0 0.19070401E+03</rscale>
<asrwt>0</asrwt>
<pdfrwt beam="1">  1        2 0.49440379E-03 0.19070401E+03</pdfrwt>
<pdfrwt beam="2">  1       -2 0.37530280E+00 0.19070401E+03</pdfrwt>
<totfact> 0.50170970E+02</totfact>
</mgrwt>
</event>
<event>
 4    1  0.6853809E-004  0.2041275E+03  0.7818608E-02  0.1146303E+00
          2   -1    0    0  501    0  0.00000000000E+00  0.00000000000E+00  0.44481980346E+03  0.44481980347E+03  0.25500000000E-02 0.  1.
         -2   -1    0    0    0  501 -0.00000000000E+00 -0.00000000000E+00 -0.23418490076E+02  0.23418490215E+02  0.25500000000E-02 0. -1.
    5000001    1    1    2    0    0  0.49943385031E+02  0.22397571354E+02  0.29930439892E+03  0.31386002633E+03  0.77000000000E+02 0.  0.
   -5000001    1    1    2    0    0 -0.49943385031E+02 -0.22397571354E+02  0.12209691446E+03  0.15437826736E+03  0.77000000000E+02 0.  0.
<mgrwt>
<rscale>  0 0.20412749E+03</rscale>
<asrwt>0</asrwt>
<pdfrwt beam="1">  1        2 0.63545685E-01 0.20412749E+03</pdfrwt>
<pdfrwt beam="2">  1       -2 0.33454987E-02 0.20412749E+03</pdfrwt>
<totfact> 0.26857509E+04</totfact>
</mgrwt>
</event>
<event>
 4    1  0.6853809E-004  0.2716708E+03  0.7818608E-02  0.1100327E+00
          2   -1    0    0  501    0  0.00000000000E+00  0.00000000000E+00  0.35939760272E+04  0.35939760273E+04  0.25500000000E-02 0.  1.
         -2   -1    0    0    0  501 -0.00000000000E+00 -0.00000000000E+00 -0.51339399086E+01  0.51339405419E+01  0.25500000000E-02 0. -1.
    5000001    1    1    2    0    0 -0.28061875654E+02  0.10706458324E+03  0.20128992073E+04  0.20174098525E+04  0.77000000000E+02 0.  0.
   -5000001    1    1    2    0    0  0.28061875654E+02 -0.10706458324E+03  0.15759428800E+04  0.15817001153E+04  0.77000000000E+02 0.  0.
<mgrwt>
<rscale>  0 0.27167082E+03</rscale>
<asrwt>0</asrwt>
<pdfrwt beam="1">  1        2 0.51342420E+00 0.27167082E+03</pdfrwt>
<pdfrwt beam="2">  1       -2 0.73342138E-03 0.27167082E+03</pdfrwt>
<totfact> 0.43252076E+03</totfact>
</mgrwt>
</event>
<event>
 4    1  0.6853809E-004  0.2356854E+03  0.7818608E-02  0.1122701E+00
          2   -1    0    0  501    0  0.00000000000E+00  0.00000000000E+00  0.25170054368E+02  0.25170054497E+02  0.25500000000E-02 0.  1.
         -2   -1    0    0    0  501 -0.00000000000E+00 -0.00000000000E+00 -0.55172304528E+03  0.55172304529E+03  0.25500000000E-02 0. -1.
    5000001    1    1    2    0    0  0.26662041977E+02  0.53989549437E+02 -0.42438375530E+03  0.43549547379E+03  0.77000000000E+02 0.  0.
   -5000001    1    1    2    0    0 -0.26662041977E+02 -0.53989549437E+02 -0.10216923562E+03  0.14139762600E+03  0.77000000000E+02 0.  0.
<mgrwt>
<rscale>  0 0.23568538E+03</rscale>
<asrwt>0</asrwt>
<pdfrwt beam="1">  1        2 0.35957224E-02 0.23568538E+03</pdfrwt>
<pdfrwt beam="2">  1       -2 0.78817571E-01 0.23568538E+03</pdfrwt>
<totfact> 0.35652724E+03</totfact>
</mgrwt>
</event>
<event>
 4    1  0.6853809E-004  0.3218745E+03  0.7818608E-02  0.1074790E+00
         -2   -1    0    0    0  501 -0.00000000000E+00  0.00000000000E+00  0.43437816035E+02  0.43437816109E+02  0.25500000000E-02 0. -1.
          2   -1    0    0  501    0  0.00000000000E+00 -0.00000000000E+00 -0.59627302406E+03  0.59627302406E+03  0.25500000000E-02 0.  1.
    5000001    1    1    2    0    0  0.51913556138E+02  0.13079878639E+03 -0.25062215364E+03  0.29756310881E+03  0.77000000000E+02 0.  0.
   -5000001    1    1    2    0    0 -0.51913556138E+02 -0.13079878639E+03 -0.30221305438E+03  0.34214773136E+03  0.77000000000E+02 0.  0.
<mgrwt>
<rscale>  0 0.32187450E+03</rscale>
<asrwt>0</asrwt>
<pdfrwt beam="1">  1        2 0.85181856E-01 0.32187450E+03</pdfrwt>
<pdfrwt beam="2">  1       -2 0.62054027E-02 0.32187450E+03</pdfrwt>
<totfact> 0.77999076E+03</totfact>
</mgrwt>
</event>
<event>
 4    1  0.6853809E-004  0.1931632E+03  0.7818608E-02  0.1155639E+00
          2   -1    0    0  501    0  0.00000000000E+00  0.00000000000E+00  0.71596409078E+03  0.71596409078E+03  0.25500000000E-02 0.  1.
         -2   -1    0    0    0  501 -0.00000000000E+00 -0.00000000000E+00 -0.13028595302E+02  0.13028595551E+02  0.25500000000E-02 0. -1.
    5000001    1    1    2    0    0  0.11510652226E+02 -0.55196474389E+02  0.40742706959E+03  0.41845544917E+03  0.77000000000E+02 0.  0.
   -5000001    1    1    2    0    0 -0.11510652226E+02  0.55196474389E+02  0.29550842588E+03  0.31053723717E+03  0.77000000000E+02 0.  0.
<mgrwt>
<rscale>  0 0.19316321E+03</rscale>
<asrwt>0</asrwt>
<pdfrwt beam="1">  1        2 0.10228061E+00 0.19316321E+03</pdfrwt>
<pdfrwt beam="2">  1       -2 0.18612275E-02 0.19316321E+03</pdfrwt>
<totfact> 0.37129359E+04</totfact>
</mgrwt>
</event>
<event>
 4    1  0.6853809E-004  0.1714291E+03  0.7818608E-02  0.1176366E+00
          2   -1    0    0  501    0  0.00000000000E+00  0.00000000000E+00  0.17345942082E+04  0.17345942082E+04  0.25500000000E-02 0.  1.
         -2   -1    0    0    0  501 -0.00000000000E+00 -0.00000000000E+00 -0.42355640581E+01  0.42355648257E+01  0.25500000000E-02 0. -1.
    5000001    1    1    2    0    0 -0.28621888427E+02  0.11851870358E+02  0.64803406040E+03  0.65332750039E+03  0.77000000000E+02 0.  0.
   -5000001    1    1    2    0    0  0.28621888427E+02 -0.11851870358E+02  0.10823245838E+04  0.10855022727E+04  0.77000000000E+02 0.  0.
<mgrwt>
<rscale>  0 0.17142912E+03</rscale>
<asrwt>0</asrwt>
<pdfrwt beam="1">  1        2 0.24779926E+00 0.17142912E+03</pdfrwt>
<pdfrwt beam="2">  1       -2 0.60508042E-03 0.17142912E+03</pdfrwt>
<totfact> 0.50936947E+04</totfact>
</mgrwt>
</event>
<event>
 4    1  0.6853809E-004  0.3751010E+03  0.7818608E-02  0.1052759E+00
          2   -1    0    0  501    0  0.00000000000E+00  0.00000000000E+00  0.23587827992E+04  0.23587827992E+04  0.25500000000E-02 0.  1.
         -2   -1    0    0    0  501 -0.00000000000E+00 -0.00000000000E+00 -0.14912429540E+02  0.14912429758E+02  0.25500000000E-02 0. -1.
    5000001    1    1    2    0    0 -0.78552794305E+02  0.14608365813E+03  0.14355393617E+04  0.14471396739E+04  0.77000000000E+02 0.  0.
   -5000001    1    1    2    0    0  0.78552794305E+02 -0.14608365813E+03  0.90833100795E+03  0.92655555510E+03  0.77000000000E+02 0.  0.
<mgrwt>
<rscale>  0 0.37510096E+03</rscale>
<asrwt>0</asrwt>
<pdfrwt beam="1">  1        2 0.33696883E+00 0.37510096E+03</pdfrwt>
<pdfrwt beam="2">  1       -2 0.21303480E-02 0.37510096E+03</pdfrwt>
<totfact> 0.41382225E+03</totfact>
</mgrwt>
</event>
<event>
 4    1  0.6853809E-004  0.3495554E+03  0.7818608E-02  0.1062798E+00
         -2   -1    0    0    0  501 -0.00000000000E+00  0.00000000000E+00  0.24723392036E+02  0.24723392167E+02  0.25500000000E-02 0. -1.
          2   -1    0    0  501    0  0.00000000000E+00 -0.00000000000E+00 -0.12355607496E+04  0.12355607496E+04  0.25500000000E-02 0.  1.
    5000001    1    1    2    0    0 -0.11468576643E+03 -0.10705414378E+03 -0.61334902953E+03  0.63776127724E+03  0.77000000000E+02 0.  0.
   -5000001    1    1    2    0    0  0.11468576643E+03  0.10705414378E+03 -0.59748832801E+03  0.62252286451E+03  0.77000000000E+02 0.  0.
<mgrwt>
<rscale>  0 0.34955545E+03</rscale>
<asrwt>0</asrwt>
<pdfrwt beam="1">  1        2 0.17650864E+00 0.34955545E+03</pdfrwt>
<pdfrwt beam="2">  1       -2 0.35319139E-02 0.34955545E+03</pdfrwt>
<totfact> 0.71413136E+03</totfact>
</mgrwt>
</event>
<event>
 4    1  0.6853809E-004  0.2834427E+03  0.7818608E-02  0.1093823E+00
         -2   -1    0    0    0  501 -0.00000000000E+00  0.00000000000E+00  0.36161202222E+02  0.36161202312E+02  0.25500000000E-02 0. -1.
          2   -1    0    0  501    0  0.00000000000E+00 -0.00000000000E+00 -0.55542809766E+03  0.55542809767E+03  0.25500000000E-02 0.  1.
    5000001    1    1    2    0    0  0.29123977131E+02 -0.11134929243E+03 -0.19670380687E+03  0.24055822290E+03  0.77000000000E+02 0.  0.
   -5000001    1    1    2    0    0 -0.29123977131E+02  0.11134929243E+03 -0.32256308857E+03  0.35103107708E+03  0.77000000000E+02 0.  0.
<mgrwt>
<rscale>  0 0.28344275E+03</rscale>
<asrwt>0</asrwt>
<pdfrwt beam="1">  1        2 0.79346866E-01 0.28344275E+03</pdfrwt>
<pdfrwt beam="2">  1       -2 0.51658864E-02 0.28344275E+03</pdfrwt>
<totfact> 0.11149303E+04</totfact>
</mgrwt>
</event>
<event>
 4    1  0.6853809E-004  0.2295562E+03  0.7818608E-02  0.1126953E+00
          2   -1    0    0  501    0  0.00000000000E+00  0.00000000000E+00  0.43360926126E+03  0.43360926126E+03  0.25500000000E-02 0.  1.
         -2   -1    0    0    0  501 -0.00000000000E+00 -0.00000000000E+00 -0.30382223087E+02  0.30382223194E+02  0.25500000000E-02 0. -1.
    5000001    1    1    2    0    0 -0.28258349667E+02 -0.56772953592E+02  0.86858403870E+02  0.13226898695E+03  0.77000000000E+02 0.  0.
   -5000001    1    1    2    0    0  0.28258349667E+02  0.56772953592E+02  0.31636863430E+03  0.33172249751E+03  0.77000000000E+02 0.  0.
<mgrwt>
<rscale>  0 0.22955621E+03</rscale>
<asrwt>0</asrwt>
<pdfrwt beam="1">  1        2 0.61944183E-01 0.22955621E+03</pdfrwt>
<pdfrwt beam="2">  1       -2 0.43403174E-02 0.22955621E+03</pdfrwt>
<totfact> 0.18861637E+04</totfact>
</mgrwt>
</event>
<event>
 4    1  0.6853809E-004  0.4504919E+03  0.7818608E-02  0.1027575E+00
         -2   -1    0    0    0  501 -0.00000000000E+00  0.00000000000E+00  0.67681644391E+03  0.67681644392E+03  0.25500000000E-02 0. -1.
          2   -1    0    0  501    0  0.00000000000E+00 -0.00000000000E+00 -0.74962330715E+02  0.74962330759E+02  0.25500000000E-02 0.  1.
    5000001    1    1    2    0    0 -0.20095085743E+03 -0.63128238974E+02  0.33594458858E+03  0.40392349307E+03  0.77000000000E+02 0.  0.
   -5000001    1    1    2    0    0  0.20095085743E+03  0.63128238974E+02  0.26590952462E+03  0.34785528160E+03  0.77000000000E+02 0.  0.
<mgrwt>
<rscale>  0 0.45049190E+03</rscale>
<asrwt>0</asrwt>
<pdfrwt beam="1">  1        2 0.10708905E-01 0.45049190E+03</pdfrwt>
<pdfrwt beam="2">  1       -2 0.96688055E-01 0.45049190E+03</pdfrwt>
<totfact> 0.54913605E+02</totfact>
</mgrwt>
</event>
<event>
 4    1  0.6853809E-004  0.2107650E+03  0.7818608E-02  0.1140962E+00
          2   -1    0    0  501    0  0.00000000000E+00  0.00000000000E+00  0.20405239391E+03  0.20405239392E+03  0.25500000000E-02 0.  1.
         -2   -1    0    0    0  501 -0.00000000000E+00 -0.00000000000E+00 -0.54424631179E+02  0.54424631239E+02  0.25500000000E-02 0. -1.
    5000001    1    1    2    0    0 -0.61583620637E+02  0.30140325836E+02  0.48071738503E+02  0.11375796067E+03  0.77000000000E+02 0.  0.
   -5000001    1    1    2    0    0  0.61583620637E+02 -0.30140325836E+02  0.10155602423E+03  0.14471906450E+03  0.77000000000E+02 0.  0.
<mgrwt>
<rscale>  0 0.21076505E+03</rscale>
<asrwt>0</asrwt>
<pdfrwt beam="1">  1        2 0.29150342E-01 0.21076505E+03</pdfrwt>
<pdfrwt beam="2">  1       -2 0.77749472E-02 0.21076505E+03</pdfrwt>
<totfact> 0.17351728E+04</totfact>
</mgrwt>
</event>
<event>
 4    1  0.6853809E-004  0.1933653E+03  0.7818608E-02  0.1155461E+00
         -2   -1    0    0    0  501 -0.00000000000E+00  0.00000000000E+00  0.29311119756E+02  0.29311119867E+02  0.25500000000E-02 0. -1.
          2   -1    0    0  501    0  0.00000000000E+00 -0.00000000000E+00 -0.31890730075E+03  0.31890730076E+03  0.25500000000E-02 0.  1.
    5000001    1    1    2    0    0 -0.21995982770E+02 -0.53917554427E+02 -0.15425960513E+03  0.18197788796E+03  0.77000000000E+02 0.  0.
   -5000001    1    1    2    0    0  0.21995982770E+02  0.53917554427E+02 -0.13533657587E+03  0.16624053266E+03  0.77000000000E+02 0.  0.
<mgrwt>
<rscale>  0 0.19336525E+03</rscale>
<asrwt>0</asrwt>
<pdfrwt beam="1">  1        2 0.45558184E-01 0.19336525E+03</pdfrwt>
<pdfrwt beam="2">  1       -2 0.41873030E-02 0.19336525E+03</pdfrwt>
<totfact> 0.27342710E+04</totfact>
</mgrwt>
</event>
<event>
 4    1  0.6853809E-004  0.5661745E+03  0.7818608E-02  0.9978180E-01
          2   -1    0    0  501    0  0.00000000000E+00  0.00000000000E+00  0.43825137962E+03  0.43825137962E+03  0.25500000000E-02 0.  1.
         -2   -1    0    0    0  501 -0.00000000000E+00 -0.00000000000E+00 -0.18285941312E+03  0.18285941313E+03  0.25500000000E-02 0. -1.
    5000001    1    1    2    0    0 -0.35174631518E+02 -0.24365792098E+03  0.25564453396E+03  0.36316602939E+03  0.77000000000E+02 0.  0.
   -5000001    1    1    2    0    0  0.35174631518E+02  0.24365792098E+03 -0.25256745729E+00  0.25794476337E+03  0.77000000000E+02 0.  0.
<mgrwt>
<rscale>  0 0.56617450E+03</rscale>
<asrwt>0</asrwt>
<pdfrwt beam="1">  1        2 0.62607339E-01 0.56617450E+03</pdfrwt>
<pdfrwt beam="2">  1       -2 0.26122774E-01 0.56617450E+03</pdfrwt>
<totfact> 0.10340997E+03</totfact>
</mgrwt>
</event>
<event>
 4    1  0.6853809E-004  0.3814799E+03  0.7818608E-02  0.1050388E+00
          2   -1    0    0  501    0  0.00000000000E+00  0.00000000000E+00  0.13725198758E+03  0.13725198761E+03  0.25500000000E-02 0.  1.
         -2   -1    0    0    0  501 -0.00000000000E+00 -0.00000000000E+00 -0.26507250856E+03  0.26507250857E+03  0.25500000000E-02 0. -1.
    5000001    1    1    2    0    0 -0.61063327964E+02 -0.10736700426E+03 -0.19391946538E+03  0.24246682800E+03  0.77000000000E+02 0.  0.
   -5000001    1    1    2    0    0  0.61063327964E+02  0.10736700426E+03  0.66098944400E+02  0.15985766818E+03  0.77000000000E+02 0.  0.
<mgrwt>
<rscale>  0 0.38147990E+03</rscale>
<asrwt>0</asrwt>
<pdfrwt beam="1">  1        2 0.19607427E-01 0.38147990E+03</pdfrwt>
<pdfrwt beam="2">  1       -2 0.37867501E-01 0.38147990E+03</pdfrwt>
<totfact> 0.18935689E+03</totfact>
</mgrwt>
</event>
<event>
 4    1  0.6853809E-004  0.2485951E+03  0.7818608E-02  0.1114196E+00
          2   -1    0    0  501    0  0.00000000000E+00  0.00000000000E+00  0.14054434922E+04  0.14054434922E+04  0.25500000000E-02 0.  1.
         -2   -1    0    0    0  501 -0.00000000000E+00 -0.00000000000E+00 -0.10992886920E+02  0.10992887215E+02  0.25500000000E-02 0. -1.
    5000001    1    1    2    0    0 -0.42439752453E+02 -0.85790750073E+02  0.80528716009E+03  0.81460272255E+03  0.77000000000E+02 0.  0.
   -5000001    1    1    2    0    0  0.42439752453E+02  0.85790750073E+02  0.58916344522E+03  0.60183365690E+03  0.77000000000E+02 0.  0.
<mgrwt>
<rscale>  0 0.24859511E+03</rscale>
<asrwt>0</asrwt>
<pdfrwt beam="1">  1        2 0.20077769E+00 0.24859511E+03</pdfrwt>
<pdfrwt beam="2">  1       -2 0.15704120E-02 0.24859511E+03</pdfrwt>
<totfact> 0.19133445E+04</totfact>
</mgrwt>
</event>
<event>
 4    1  0.6853809E-004  0.2091072E+03  0.7818608E-02  0.1142275E+00
          2   -1    0    0  501    0  0.00000000000E+00  0.00000000000E+00  0.35507620066E+03  0.35507620067E+03  0.25500000000E-02 0.  1.
         -2   -1    0    0    0  501 -0.00000000000E+00 -0.00000000000E+00 -0.30786219839E+02  0.30786219944E+02  0.25500000000E-02 0. -1.
    5000001    1    1    2    0    0 -0.26836202593E+02 -0.54513277524E+02  0.22894775401E+03  0.24907419228E+03  0.77000000000E+02 0.  0.
   -5000001    1    1    2    0    0  0.26836202593E+02  0.54513277524E+02  0.95342226813E+02  0.13678822833E+03  0.77000000000E+02 0.  0.
<mgrwt>
<rscale>  0 0.20910719E+03</rscale>
<asrwt>0</asrwt>
<pdfrwt beam="1">  1        2 0.50725172E-01 0.20910719E+03</pdfrwt>
<pdfrwt beam="2">  1       -2 0.43980313E-02 0.20910719E+03</pdfrwt>
<totfact> 0.22780435E+04</totfact>
</mgrwt>
</event>
<event>
 4    1  0.6853809E-004  0.1798731E+03  0.7818608E-02  0.1167926E+00
          2   -1    0    0  501    0  0.00000000000E+00  0.00000000000E+00  0.13110771167E+04  0.13110771167E+04  0.25500000000E-02 0.  1.
         -2   -1    0    0    0  501 -0.00000000000E+00 -0.00000000000E+00 -0.61694170697E+01  0.61694175967E+01  0.25500000000E-02 0. -1.
    5000001    1    1    2    0    0 -0.43796387607E+02 -0.15004109570E+02  0.68205173793E+03  0.68794390765E+03  0.77000000000E+02 0.  0.
   -5000001    1    1    2    0    0  0.43796387607E+02  0.15004109570E+02  0.62285596174E+03  0.62930262669E+03  0.77000000000E+02 0.  0.
<mgrwt>
<rscale>  0 0.17987309E+03</rscale>
<asrwt>0</asrwt>
<pdfrwt beam="1">  1        2 0.18729678E+00 0.17987309E+03</pdfrwt>
<pdfrwt beam="2">  1       -2 0.88134512E-03 0.17987309E+03</pdfrwt>
<totfact> 0.48435161E+04</totfact>
</mgrwt>
</event>
<event>
 4    1  0.6853809E-004  0.2838803E+03  0.7818608E-02  0.1093588E+00
         -2   -1    0    0    0  501 -0.00000000000E+00  0.00000000000E+00  0.25021511557E+02  0.25021511687E+02  0.25500000000E-02 0. -1.
          2   -1    0    0  501    0  0.00000000000E+00 -0.00000000000E+00 -0.80518738420E+03  0.80518738420E+03  0.25500000000E-02 0.  1.
    5000001    1    1    2    0    0 -0.66035958817E+02  0.97525437482E+02 -0.44448551419E+03  0.46622776745E+03  0.77000000000E+02 0.  0.
   -5000001    1    1    2    0    0  0.66035958817E+02 -0.97525437482E+02 -0.33568035845E+03  0.36398112844E+03  0.77000000000E+02 0.  0.
<mgrwt>
<rscale>  0 0.28388030E+03</rscale>
<asrwt>0</asrwt>
<pdfrwt beam="1">  1        2 0.11502675E+00 0.28388030E+03</pdfrwt>
<pdfrwt beam="2">  1       -2 0.35745022E-02 0.28388030E+03</pdfrwt>
<totfact> 0.12560753E+04</totfact>
</mgrwt>
</event>
<event>
 4    1  0.6853809E-004  0.2604135E+03  0.7818608E-02  0.1106895E+00
          2   -1    0    0  501    0  0.00000000000E+00  0.00000000000E+00  0.17725584508E+04  0.17725584508E+04  0.25500000000E-02 0.  1.
         -2   -1    0    0    0  501 -0.00000000000E+00 -0.00000000000E+00 -0.95645879747E+01  0.95645883147E+01  0.25500000000E-02 0. -1.
    5000001    1    1    2    0    0 -0.73504369819E+02 -0.49719180206E+02  0.12655779195E+04  0.12710198109E+04  0.77000000000E+02 0.  0.
   -5000001    1    1    2    0    0  0.73504369819E+02  0.49719180206E+02  0.49741594327E+03  0.51110322821E+03  0.77000000000E+02 0.  0.
<mgrwt>
<rscale>  0 0.26041345E+03</rscale>
<asrwt>0</asrwt>
<pdfrwt beam="1">  1        2 0.25322301E+00 0.26041345E+03</pdfrwt>
<pdfrwt beam="2">  1       -2 0.13663677E-02 0.26041345E+03</pdfrwt>
<totfact> 0.15406017E+04</totfact>
</mgrwt>
</event>
<event>
 4    1  0.6853809E-004  0.2014481E+03  0.7818608E-02  0.1148523E+00
         -2   -1    0    0    0  501 -0.00000000000E+00  0.00000000000E+00  0.77779607137E+01  0.77779611317E+01  0.25500000000E-02 0. -1.
          2   -1    0    0  501    0  0.00000000000E+00 -0.00000000000E+00 -0.13043689652E+04  0.13043689652E+04  0.25500000000E-02 0.  1.
    5000001    1    1    2    0    0 -0.24257918676E+01 -0.22587160093E+02 -0.10445150256E+04  0.10475956772E+04  0.77000000000E+02 0.  0.
   -5000001    1    1    2    0    0  0.24257918676E+01  0.22587160093E+02 -0.25207597894E+03  0.26455124915E+03  0.77000000000E+02 0.  0.
<mgrwt>
<rscale>  0 0.20144807E+03</rscale>
<asrwt>0</asrwt>
<pdfrwt beam="1">  1        2 0.18633828E+00 0.20144807E+03</pdfrwt>
<pdfrwt beam="2">  1       -2 0.11111381E-02 0.20144807E+03</pdfrwt>
<totfact> 0.35258471E+04</totfact>
</mgrwt>
</event>
<event>
 4    1  0.6853809E-004  0.1806611E+03  0.7818608E-02  0.1167165E+00
          2   -1    0    0  501    0  0.00000000000E+00  0.00000000000E+00  0.79917153157E+03  0.79917153157E+03  0.25500000000E-02 0.  1.
         -2   -1    0    0    0  501 -0.00000000000E+00 -0.00000000000E+00 -0.10210088426E+02  0.10210088745E+02  0.25500000000E-02 0. -1.
    5000001    1    1    2    0    0 -0.46481650597E+02 -0.80331809093E+01  0.40502212184E+03  0.41496625769E+03  0.77000000000E+02 0.  0.
   -5000001    1    1    2    0    0  0.46481650597E+02  0.80331809093E+01  0.38393932130E+03  0.39441536263E+03  0.77000000000E+02 0.  0.
<mgrwt>
<rscale>  0 0.18066114E+03</rscale>
<asrwt>0</asrwt>
<pdfrwt beam="1">  1        2 0.11416740E+00 0.18066114E+03</pdfrwt>
<pdfrwt beam="2">  1       -2 0.14585835E-02 0.18066114E+03</pdfrwt>
<totfact> 0.46107935E+04</totfact>
</mgrwt>
</event>
<event>
 4    1  0.6853809E-004  0.1895961E+03  0.7818608E-02  0.1158826E+00
         -2   -1    0    0    0  501 -0.00000000000E+00  0.00000000000E+00  0.13866748001E+02  0.13866748235E+02  0.25500000000E-02 0. -1.
          2   -1    0    0  501    0  0.00000000000E+00 -0.00000000000E+00 -0.64807305133E+03  0.64807305134E+03  0.25500000000E-02 0.  1.
    5000001    1    1    2    0    0  0.44355014011E+02  0.93372065530E+01 -0.42768009534E+03  0.43691396709E+03  0.77000000000E+02 0.  0.
   -5000001    1    1    2    0    0 -0.44355014011E+02 -0.93372065530E+01 -0.20652620800E+03  0.22502583248E+03  0.77000000000E+02 0.  0.
<mgrwt>
<rscale>  0 0.18959605E+03</rscale>
<asrwt>0</asrwt>
<pdfrwt beam="1">  1        2 0.92581845E-01 0.18959605E+03</pdfrwt>
<pdfrwt beam="2">  1       -2 0.19809644E-02 0.18959605E+03</pdfrwt>
<totfact> 0.38016895E+04</totfact>
</mgrwt>
</event>
<event>
 4    1  0.6853809E-004  0.2299805E+03  0.7818608E-02  0.1126653E+00
         -2   -1    0    0    0  501 -0.00000000000E+00  0.00000000000E+00  0.33086177993E+02  0.33086178091E+02  0.25500000000E-02 0.  1.
          2   -1    0    0  501    0  0.00000000000E+00 -0.00000000000E+00 -0.39964605985E+03  0.39964605985E+03  0.25500000000E-02 0. -1.
    5000001    1    1    2    0    0 -0.43090898955E+02  0.59196188176E+02 -0.10055896959E+03  0.14629463637E+03  0.77000000000E+02 0.  0.
   -5000001    1    1    2    0    0  0.43090898955E+02 -0.59196188176E+02 -0.26600091227E+03  0.28643760157E+03  0.77000000000E+02 0.  0.
<mgrwt>
<rscale>  0 0.22998053E+03</rscale>
<asrwt>0</asrwt>
<pdfrwt beam="1">  1        2 0.57092292E-01 0.22998053E+03</pdfrwt>
<pdfrwt beam="2">  1       -2 0.47265971E-02 0.22998053E+03</pdfrwt>
<totfact> 0.18115315E+04</totfact>
</mgrwt>
</event>
<event>
 4    1  0.6853809E-004  0.4274715E+03  0.7818608E-02  0.1034662E+00
          2   -1    0    0  501    0  0.00000000000E+00  0.00000000000E+00  0.48205188403E+03  0.48205188404E+03  0.25500000000E-02 0.  1.
         -2   -1    0    0    0  501 -0.00000000000E+00 -0.00000000000E+00 -0.94767748685E+02  0.94767748719E+02  0.25500000000E-02 0. -1.
    5000001    1    1    2    0    0  0.34374678377E+02 -0.19514579041E+03  0.16375792760E+03  0.26834521959E+03  0.77000000000E+02 0.  0.
   -5000001    1    1    2    0    0 -0.34374678377E+02  0.19514579041E+03  0.22352620775E+03  0.30847441316E+03  0.77000000000E+02 0.  0.
<mgrwt>
<rscale>  0 0.42747150E+03</rscale>
<asrwt>0</asrwt>
<pdfrwt beam="1">  1        2 0.68864556E-01 0.42747150E+03</pdfrwt>
<pdfrwt beam="2">  1       -2 0.13538250E-01 0.42747150E+03</pdfrwt>
<totfact> 0.28815594E+03</totfact>
</mgrwt>
</event>
<event>
 4    1  0.6853809E-004  0.2845289E+03  0.7818608E-02  0.1093241E+00
          2   -1    0    0  501    0  0.00000000000E+00  0.00000000000E+00  0.47150085624E+03  0.47150085624E+03  0.25500000000E-02 0.  1.
         -2   -1    0    0    0  501 -0.00000000000E+00 -0.00000000000E+00 -0.42924988542E+02  0.42924988618E+02  0.25500000000E-02 0. -1.
    5000001    1    1    2    0    0  0.84226638792E+01 -0.11928826279E+03  0.21987166325E+03  0.26186481093E+03  0.77000000000E+02 0.  0.
   -5000001    1    1    2    0    0 -0.84226638792E+01  0.11928826279E+03  0.20870420444E+03  0.25256103393E+03  0.77000000000E+02 0.  0.
<mgrwt>
<rscale>  0 0.28452887E+03</rscale>
<asrwt>0</asrwt>
<pdfrwt beam="1">  1        2 0.67357260E-01 0.28452887E+03</pdfrwt>
<pdfrwt beam="2">  1       -2 0.61321417E-02 0.28452887E+03</pdfrwt>
<totfact> 0.10290922E+04</totfact>
</mgrwt>
</event>
<event>
 4    1  0.6853809E-004  0.2681733E+03  0.7818608E-02  0.1102330E+00
          2   -1    0    0  501    0  0.00000000000E+00  0.00000000000E+00  0.11862091860E+04  0.11862091860E+04  0.25500000000E-02 0.  1.
         -2   -1    0    0    0  501 -0.00000000000E+00 -0.00000000000E+00 -0.15156879979E+02  0.15156880194E+02  0.25500000000E-02 0. -1.
    5000001    1    1    2    0    0  0.73513174423E+02  0.76384287413E+02  0.71314060343E+03  0.72507742099E+03  0.77000000000E+02 0.  0.
   -5000001    1    1    2    0    0 -0.73513174423E+02 -0.76384287413E+02  0.45791170258E+03  0.47628864519E+03  0.77000000000E+02 0.  0.
<mgrwt>
<rscale>  0 0.26817331E+03</rscale>
<asrwt>0</asrwt>
<pdfrwt beam="1">  1        2 0.16945848E+00 0.26817331E+03</pdfrwt>
<pdfrwt beam="2">  1       -2 0.21652683E-02 0.26817331E+03</pdfrwt>
<totfact> 0.15632005E+04</totfact>
</mgrwt>
</event>
<event>
 4    1  0.6853809E-004  0.2891385E+03  0.7818608E-02  0.1090800E+00
          2   -1    0    0  501    0  0.00000000000E+00  0.00000000000E+00  0.60001770696E+02  0.60001770750E+02  0.25500000000E-02 0.  1.
         -2   -1    0    0    0  501 -0.00000000000E+00 -0.00000000000E+00 -0.34832741625E+03  0.34832741626E+03  0.25500000000E-02 0. -1.
    5000001    1    1    2    0    0 -0.10550162776E+03 -0.19723356595E+02 -0.61193334021E+02  0.14557894210E+03  0.77000000000E+02 0.  0.
   -5000001    1    1    2    0    0  0.10550162776E+03  0.19723356595E+02 -0.22713231154E+03  0.26275024491E+03  0.77000000000E+02 0.  0.
<mgrwt>
<rscale>  0 0.28913846E+03</rscale>
<asrwt>0</asrwt>
<pdfrwt beam="1">  1        2 0.85716817E-02 0.28913846E+03</pdfrwt>
<pdfrwt beam="2">  1       -2 0.49761058E-01 0.28913846E+03</pdfrwt>
<totfact> 0.30151706E+03</totfact>
</mgrwt>
</event>
<event>
 4    1  0.6853809E-004  0.2846494E+03  0.7818608E-02  0.1093176E+00
          2   -1    0    0  501    0  0.00000000000E+00  0.00000000000E+00  0.25349988995E+04  0.25349988995E+04  0.25500000000E-02 0.  1.
         -2   -1    0    0    0  501 -0.00000000000E+00 -0.00000000000E+00 -0.79906643494E+01  0.79906647562E+01  0.25500000000E-02 0. -1.
    5000001    1    1    2    0    0  0.61619470304E+02  0.99354377131E+02  0.14928555682E+04  0.14994048815E+04  0.77000000000E+02 0.  0.
   -5000001    1    1    2    0    0 -0.61619470304E+02 -0.99354377131E+02  0.10341526670E+04  0.10435846827E+04  0.77000000000E+02 0.  0.
<mgrwt>
<rscale>  0 0.28464944E+03</rscale>
<asrwt>0</asrwt>
<pdfrwt beam="1">  1        2 0.36214236E+00 0.28464944E+03</pdfrwt>
<pdfrwt beam="2">  1       -2 0.11415246E-02 0.28464944E+03</pdfrwt>
<totfact> 0.84702679E+03</totfact>
</mgrwt>
</event>
<event>
 4    1  0.6853809E-004  0.2272068E+03  0.7818608E-02  0.1128621E+00
          2   -1    0    0  501    0  0.00000000000E+00  0.00000000000E+00  0.13785315416E+04  0.13785315416E+04  0.25500000000E-02 0.  1.
         -2   -1    0    0    0  501 -0.00000000000E+00 -0.00000000000E+00 -0.93619426145E+01  0.93619429618E+01  0.25500000000E-02 0. -1.
    5000001    1    1    2    0    0 -0.73995724445E+02 -0.37947685759E+02  0.63674334937E+03  0.64675071477E+03  0.77000000000E+02 0.  0.
   -5000001    1    1    2    0    0  0.73995724445E+02  0.37947685759E+02  0.73242624965E+03  0.74114276982E+03  0.77000000000E+02 0.  0.
<mgrwt>
<rscale>  0 0.22720681E+03</rscale>
<asrwt>0</asrwt>
<pdfrwt beam="1">  1        2 0.19693297E+00 0.22720681E+03</pdfrwt>
<pdfrwt beam="2">  1       -2 0.13374211E-02 0.22720681E+03</pdfrwt>
<totfact> 0.24853114E+04</totfact>
</mgrwt>
</event>
<event>
 4    1  0.6853809E-004  0.2121807E+03  0.7818608E-02  0.1139851E+00
          2   -1    0    0  501    0  0.00000000000E+00  0.00000000000E+00  0.13354190703E+03  0.13354190705E+03  0.25500000000E-02 0.  1.
         -2   -1    0    0    0  501 -0.00000000000E+00 -0.00000000000E+00 -0.84281864709E+02  0.84281864748E+02  0.25500000000E-02 0. -1.
    5000001    1    1    2    0    0 -0.88204073844E+01  0.72055344639E+02  0.32338973334E+02  0.11065523699E+03  0.77000000000E+02 0.  0.
   -5000001    1    1    2    0    0  0.88204073844E+01 -0.72055344639E+02  0.16921068986E+02  0.10716853481E+03  0.77000000000E+02 0.  0.
<mgrwt>
<rscale>  0 0.21218069E+03</rscale>
<asrwt>0</asrwt>
<pdfrwt beam="1">  1        2 0.19077415E-01 0.21218069E+03</pdfrwt>
<pdfrwt beam="2">  1       -2 0.12040266E-01 0.21218069E+03</pdfrwt>
<totfact> 0.13987105E+04</totfact>
</mgrwt>
</event>
<event>
 4    1  0.6853809E-004  0.1886863E+03  0.7818608E-02  0.1159652E+00
          2   -1    0    0  501    0  0.00000000000E+00  0.00000000000E+00  0.28153257129E+04  0.28153257129E+04  0.25500000000E-02 0.  1.
         -2   -1    0    0    0  501 -0.00000000000E+00 -0.00000000000E+00 -0.31614928601E+01  0.31614938885E+01  0.25500000000E-02 0. -1.
    5000001    1    1    2    0    0  0.46820961369E+02 -0.25686691973E+02  0.12427067235E+04  0.12462347328E+04  0.77000000000E+02 0.  0.
   -5000001    1    1    2    0    0 -0.46820961369E+02  0.25686691973E+02  0.15694574965E+04  0.15722524740E+04  0.77000000000E+02 0.  0.
<mgrwt>
<rscale>  0 0.18868634E+03</rscale>
<asrwt>0</asrwt>
<pdfrwt beam="1">  1        2 0.40218883E+00 0.18868634E+03</pdfrwt>
<pdfrwt beam="2">  1       -2 0.45164253E-03 0.18868634E+03</pdfrwt>
<totfact> 0.23079303E+04</totfact>
</mgrwt>
</event>
<event>
 4    1  0.6853809E-004  0.3324472E+03  0.7818608E-02  0.1070059E+00
          2   -1    0    0  501    0  0.00000000000E+00  0.00000000000E+00  0.55835091918E+03  0.55835091918E+03  0.25500000000E-02 0.  1.
         -2   -1    0    0    0  501 -0.00000000000E+00 -0.00000000000E+00 -0.49485519653E+02  0.49485519719E+02  0.25500000000E-02 0. -1.
    5000001    1    1    2    0    0  0.10737254264E+03  0.62383732578E+02  0.39933250871E+03  0.42522470003E+03  0.77000000000E+02 0.  0.
   -5000001    1    1    2    0    0 -0.10737254264E+03 -0.62383732578E+02  0.10953289082E+03  0.18261173887E+03  0.77000000000E+02 0.  0.
<mgrwt>
<rscale>  0 0.33244720E+03</rscale>
<asrwt>0</asrwt>
<pdfrwt beam="1">  1        2 0.79764413E-01 0.33244720E+03</pdfrwt>
<pdfrwt beam="2">  1       -2 0.70693603E-02 0.33244720E+03</pdfrwt>
<totfact> 0.68754331E+03</totfact>
</mgrwt>
</event>
<event>
 4    1  0.6853809E-004  0.2520745E+03  0.7818608E-02  0.1112001E+00
         -2   -1    0    0    0  501 -0.00000000000E+00  0.00000000000E+00  0.13624956390E+02  0.13624956629E+02  0.25500000000E-02 0. -1.
          2   -1    0    0  501    0  0.00000000000E+00 -0.00000000000E+00 -0.11659039893E+04  0.11659039893E+04  0.25500000000E-02 0.  1.
    5000001    1    1    2    0    0 -0.57279039339E+02  0.71985038431E+02 -0.39529510320E+03  0.41309799409E+03  0.77000000000E+02 0.  0.
   -5000001    1    1    2    0    0  0.57279039339E+02 -0.71985038431E+02 -0.75698392970E+03  0.76643095183E+03  0.77000000000E+02 0.  0.
<mgrwt>
<rscale>  0 0.25207452E+03</rscale>
<asrwt>0</asrwt>
<pdfrwt beam="1">  1        2 0.16655765E+00 0.25207452E+03</pdfrwt>
<pdfrwt beam="2">  1       -2 0.19464231E-02 0.25207452E+03</pdfrwt>
<totfact> 0.18709054E+04</totfact>
</mgrwt>
</event>
<event>
 4    1  0.6853809E-004  0.4065873E+03  0.7818608E-02  0.1041522E+00
          2   -1    0    0  501    0  0.00000000000E+00  0.00000000000E+00  0.18665814769E+04  0.18665814769E+04  0.25500000000E-02 0.  1.
         -2   -1    0    0    0  501 -0.00000000000E+00 -0.00000000000E+00 -0.22141172425E+02  0.22141172572E+02  0.25500000000E-02 0. -1.
    5000001    1    1    2    0    0  0.15311940060E+03 -0.99133261735E+02  0.11364261294E+04  0.11535451019E+04  0.77000000000E+02 0.  0.
   -5000001    1    1    2    0    0 -0.15311940060E+03  0.99133261735E+02  0.70801417509E+03  0.73517754764E+03  0.77000000000E+02 0.  0.
<mgrwt>
<rscale>  0 0.40658727E+03</rscale>
<asrwt>0</asrwt>
<pdfrwt beam="1">  1        2 0.26665444E+00 0.40658727E+03</pdfrwt>
<pdfrwt beam="2">  1       -2 0.31630253E-02 0.40658727E+03</pdfrwt>
<totfact> 0.40136363E+03</totfact>
</mgrwt>
</event>
<event>
 4    1  0.6853809E-004  0.1943828E+03  0.7818608E-02  0.1154567E+00
         -2   -1    0    0    0  501 -0.00000000000E+00  0.00000000000E+00  0.79853643678E+01  0.79853647750E+01  0.25500000000E-02 0. -1.
          2   -1    0    0  501    0  0.00000000000E+00 -0.00000000000E+00 -0.11829345293E+04  0.11829345293E+04  0.25500000000E-02 0.  1.
    5000001    1    1    2    0    0 -0.27065224435E+02 -0.37532779379E+02 -0.81473437925E+03  0.81967209580E+03  0.77000000000E+02 0.  0.
   -5000001    1    1    2    0    0  0.27065224435E+02  0.37532779379E+02 -0.36021478567E+03  0.37124779827E+03  0.77000000000E+02 0.  0.
<mgrwt>
<rscale>  0 0.19438275E+03</rscale>
<asrwt>0</asrwt>
<pdfrwt beam="1">  1        2 0.16899054E+00 0.19438275E+03</pdfrwt>
<pdfrwt beam="2">  1       -2 0.11407671E-02 0.19438275E+03</pdfrwt>
<totfact> 0.39261658E+04</totfact>
</mgrwt>
</event>
<event>
 4    1  0.6853809E-004  0.1746829E+03  0.7818608E-02  0.1173050E+00
          2   -1    0    0  501    0  0.00000000000E+00  0.00000000000E+00  0.30131036817E+04  0.30131036817E+04  0.25500000000E-02 0.  1.
         -2   -1    0    0    0  501 -0.00000000000E+00 -0.00000000000E+00 -0.25317847291E+01  0.25317860133E+01  0.25500000000E-02 0. -1.
    5000001    1    1    2    0    0 -0.37597424487E+02  0.15834466602E+02  0.16077606179E+04  0.16101203375E+04  0.77000000000E+02 0.  0.
   -5000001    1    1    2    0    0  0.37597424487E+02 -0.15834466602E+02  0.14028112791E+04  0.14055151302E+04  0.77000000000E+02 0.  0.
<mgrwt>
<rscale>  0 0.17468293E+03</rscale>
<asrwt>0</asrwt>
<pdfrwt beam="1">  1        2 0.43044153E+00 0.17468293E+03</pdfrwt>
<pdfrwt beam="2">  1       -2 0.36168518E-03 0.17468293E+03</pdfrwt>
<totfact> 0.24959670E+04</totfact>
</mgrwt>
</event>
<event>
 4    1  0.6853809E-004  0.3177571E+03  0.7818608E-02  0.1076686E+00
          2   -1    0    0  501    0  0.00000000000E+00  0.00000000000E+00  0.66290995058E+03  0.66290995059E+03  0.25500000000E-02 0.  1.
         -2   -1    0    0    0  501 -0.00000000000E+00 -0.00000000000E+00 -0.38078171853E+02  0.38078171938E+02  0.25500000000E-02 0. -1.
    5000001    1    1    2    0    0  0.85210806008E+02 -0.15880595129E+02  0.72774228468E+02  0.13688741027E+03  0.77000000000E+02 0.  0.
   -5000001    1    1    2    0    0 -0.85210806008E+02  0.15880595129E+02  0.55205755026E+03  0.56410071225E+03  0.77000000000E+02 0.  0.
<mgrwt>
<rscale>  0 0.31775713E+03</rscale>
<asrwt>0</asrwt>
<pdfrwt beam="1">  1        2 0.94701420E-01 0.31775713E+03</pdfrwt>
<pdfrwt beam="2">  1       -2 0.54397389E-02 0.31775713E+03</pdfrwt>
<totfact> 0.84416757E+03</totfact>
</mgrwt>
</event>
<event>
 4    1  0.6853809E-004  0.2921154E+03  0.7818608E-02  0.1089250E+00
          2   -1    0    0  501    0  0.00000000000E+00  0.00000000000E+00  0.81160600178E+03  0.81160600178E+03  0.25500000000E-02 0.  1.
         -2   -1    0    0    0  501 -0.00000000000E+00 -0.00000000000E+00 -0.26284746880E+02  0.26284747004E+02  0.25500000000E-02 0. -1.
    5000001    1    1    2    0    0 -0.44575023362E+02 -0.11283983336E+03  0.31763805833E+03  0.34862974170E+03  0.77000000000E+02 0.  0.
   -5000001    1    1    2    0    0  0.44575023362E+02  0.11283983336E+03  0.46768319657E+03  0.48926100708E+03  0.77000000000E+02 0.  0.
<mgrwt>
<rscale>  0 0.29211545E+03</rscale>
<asrwt>0</asrwt>
<pdfrwt beam="1">  1        2 0.11594369E+00 0.29211545E+03</pdfrwt>
<pdfrwt beam="2">  1       -2 0.37549647E-02 0.29211545E+03</pdfrwt>
<totfact> 0.11562932E+04</totfact>
</mgrwt>
</event>
<event>
 4    1  0.6853809E-004  0.3141484E+03  0.7818608E-02  0.1078374E+00
         -2   -1    0    0    0  501 -0.00000000000E+00  0.00000000000E+00  0.23059380263E+02  0.23059380404E+02  0.25500000000E-02 0. -1.
          2   -1    0    0  501    0  0.00000000000E+00 -0.00000000000E+00 -0.10699468043E+04  0.10699468043E+04  0.25500000000E-02 0.  1.
    5000001    1    1    2    0    0 -0.47903780239E+02  0.70258465137E+02 -0.89675274926E+03  0.90406057175E+03  0.77000000000E+02 0.  0.
   -5000001    1    1    2    0    0  0.47903780239E+02 -0.70258465137E+02 -0.15013467476E+03  0.18894561294E+03  0.77000000000E+02 0.  0.
<mgrwt>
<rscale>  0 0.31414844E+03</rscale>
<asrwt>0</asrwt>
<pdfrwt beam="1">  1        2 0.15284951E+00 0.31414844E+03</pdfrwt>
<pdfrwt beam="2">  1       -2 0.32941979E-02 0.31414844E+03</pdfrwt>
<totfact> 0.97826338E+03</totfact>
</mgrwt>
</event>
<event>
 4    1  0.6853809E-004  0.2325650E+03  0.7818608E-02  0.1124847E+00
          2   -1    0    0  501    0  0.00000000000E+00  0.00000000000E+00  0.71959969873E+03  0.71959969873E+03  0.25500000000E-02 0.  1.
         -2   -1    0    0    0  501 -0.00000000000E+00 -0.00000000000E+00 -0.18790466715E+02  0.18790466888E+02  0.25500000000E-02 0. -1.
    5000001    1    1    2    0    0 -0.59973927233E+02  0.57294983280E+02  0.26562436765E+03  0.28872979019E+03  0.77000000000E+02 0.  0.
   -5000001    1    1    2    0    0  0.59973927233E+02 -0.57294983280E+02  0.43518486437E+03  0.44966037543E+03  0.77000000000E+02 0.  0.
<mgrwt>
<rscale>  0 0.23256495E+03</rscale>
<asrwt>0</asrwt>
<pdfrwt beam="1">  1        2 0.10279995E+00 0.23256495E+03</pdfrwt>
<pdfrwt beam="2">  1       -2 0.26843527E-02 0.23256495E+03</pdfrwt>
<totfact> 0.21840246E+04</totfact>
</mgrwt>
</event>
<event>
 4    1  0.6853809E-004  0.2065018E+03  0.7818608E-02  0.1144366E+00
          2   -1    0    0  501    0  0.00000000000E+00  0.00000000000E+00  0.21048661767E+03  0.21048661769E+03  0.25500000000E-02 0.  1.
         -2   -1    0    0    0  501 -0.00000000000E+00 -0.00000000000E+00 -0.50648124955E+02  0.50648125019E+02  0.25500000000E-02 0. -1.
    5000001    1    1    2    0    0 -0.58358786100E+02  0.16585192490E+02  0.38924437661E+02  0.10547477600E+03  0.77000000000E+02 0.  0.
   -5000001    1    1    2    0    0  0.58358786100E+02 -0.16585192490E+02  0.12091405506E+03  0.15565996671E+03  0.77000000000E+02 0.  0.
<mgrwt>
<rscale>  0 0.20650184E+03</rscale>
<asrwt>0</asrwt>
<pdfrwt beam="1">  1        2 0.30069516E-01 0.20650184E+03</pdfrwt>
<pdfrwt beam="2">  1       -2 0.72354466E-02 0.20650184E+03</pdfrwt>
<totfact> 0.18721511E+04</totfact>
</mgrwt>
</event>
<event>
 4    1  0.6853809E-004  0.1853130E+03  0.7818608E-02  0.1162758E+00
          2   -1    0    0  501    0  0.00000000000E+00  0.00000000000E+00  0.12810208143E+03  0.12810208146E+03  0.25500000000E-02 0.  1.
         -2   -1    0    0    0  501 -0.00000000000E+00 -0.00000000000E+00 -0.67018645040E+02  0.67018645089E+02  0.25500000000E-02 0. -1.
    5000001    1    1    2    0    0 -0.41335695263E+02 -0.29955141220E+02  0.38007673443E+02  0.99897614731E+02  0.77000000000E+02 0.  0.
   -5000001    1    1    2    0    0  0.41335695263E+02  0.29955141220E+02  0.23075762950E+02  0.95223111817E+02  0.77000000000E+02 0.  0.
<mgrwt>
<rscale>  0 0.18531301E+03</rscale>
<asrwt>0</asrwt>
<pdfrwt beam="1">  1        2 0.18300297E-01 0.18531301E+03</pdfrwt>
<pdfrwt beam="2">  1       -2 0.95740922E-02 0.18531301E+03</pdfrwt>
<totfact> 0.20913856E+04</totfact>
</mgrwt>
</event>
<event>
 4    1  0.6853809E-004  0.1836682E+03  0.7818608E-02  0.1164299E+00
          2   -1    0    0  501    0  0.00000000000E+00  0.00000000000E+00  0.70589006292E+03  0.70589006293E+03  0.25500000000E-02 0.  1.
         -2   -1    0    0    0  501 -0.00000000000E+00 -0.00000000000E+00 -0.11947331577E+02  0.11947331849E+02  0.25500000000E-02 0. -1.
    5000001    1    1    2    0    0  0.35894951477E+02 -0.23817071591E+02  0.24741975816E+03  0.26268086563E+03  0.77000000000E+02 0.  0.
   -5000001    1    1    2    0    0 -0.35894951477E+02  0.23817071591E+02  0.44652297318E+03  0.45515652914E+03  0.77000000000E+02 0.  0.
<mgrwt>
<rscale>  0 0.18366821E+03</rscale>
<asrwt>0</asrwt>
<pdfrwt beam="1">  1        2 0.10084146E+00 0.18366821E+03</pdfrwt>
<pdfrwt beam="2">  1       -2 0.17067613E-02 0.18366821E+03</pdfrwt>
<totfact> 0.42650219E+04</totfact>
</mgrwt>
</event>
<event>
 4    1  0.6853809E-004  0.3068333E+03  0.7818608E-02  0.1081874E+00
         -2   -1    0    0    0  501 -0.00000000000E+00  0.00000000000E+00  0.19373631494E+03  0.19373631496E+03  0.25500000000E-02 0. -1.
          2   -1    0    0  501    0  0.00000000000E+00 -0.00000000000E+00 -0.12148819606E+03  0.12148819609E+03  0.25500000000E-02 0.  1.
    5000001    1    1    2    0    0 -0.23740306003E+02  0.72028386873E+02 -0.75738883674E+02  0.13197374415E+03  0.77000000000E+02 0.  0.
   -5000001    1    1    2    0    0  0.23740306003E+02 -0.72028386873E+02  0.14798700256E+03  0.18325076690E+03  0.77000000000E+02 0.  0.
<mgrwt>
<rscale>  0 0.30683335E+03</rscale>
<asrwt>0</asrwt>
<pdfrwt beam="1">  1        2 0.17355457E-01 0.30683335E+03</pdfrwt>
<pdfrwt beam="2">  1       -2 0.27676616E-01 0.30683335E+03</pdfrwt>
<totfact> 0.38783140E+03</totfact>
</mgrwt>
</event>
<event>
 4    1  0.6853809E-004  0.1726048E+03  0.7818608E-02  0.1175158E+00
         -2   -1    0    0    0  501 -0.00000000000E+00  0.00000000000E+00  0.53494629111E+03  0.53494629112E+03  0.25500000000E-02 0. -1.
          2   -1    0    0  501    0  0.00000000000E+00 -0.00000000000E+00 -0.13923090551E+02  0.13923090784E+02  0.25500000000E-02 0.  1.
    5000001    1    1    2    0    0 -0.37047696879E+02  0.11328354336E+02  0.24692986004E+03  0.26154200282E+03  0.77000000000E+02 0.  0.
   -5000001    1    1    2    0    0  0.37047696879E+02 -0.11328354336E+02  0.27409334052E+03  0.28732737908E+03  0.77000000000E+02 0.  0.
<mgrwt>
<rscale>  0 0.17260482E+03</rscale>
<asrwt>0</asrwt>
<pdfrwt beam="1">  1        2 0.19890127E-02 0.17260482E+03</pdfrwt>
<pdfrwt beam="2">  1       -2 0.76420909E-01 0.17260482E+03</pdfrwt>
<totfact> 0.83538963E+03</totfact>
</mgrwt>
</event>
<event>
 4    1  0.6853809E-004  0.2042846E+03  0.7818608E-02  0.1146174E+00
          2   -1    0    0  501    0  0.00000000000E+00  0.00000000000E+00  0.90443133687E+01  0.90443137282E+01  0.25500000000E-02 0.  1.
         -2   -1    0    0    0  501 -0.00000000000E+00 -0.00000000000E+00 -0.11535476407E+04  0.11535476407E+04  0.25500000000E-02 0. -1.
    5000001    1    1    2    0    0 -0.27251822978E+02  0.61327337039E+02 -0.56892138154E+03  0.57801751055E+03  0.77000000000E+02 0.  0.
   -5000001    1    1    2    0    0  0.27251822978E+02 -0.61327337039E+02 -0.57558194583E+03  0.58457444393E+03  0.77000000000E+02 0.  0.
<mgrwt>
<rscale>  0 0.20428457E+03</rscale>
<asrwt>0</asrwt>
<pdfrwt beam="1">  1        2 0.12920455E-02 0.20428457E+03</pdfrwt>
<pdfrwt beam="2">  1       -2 0.16479243E+00 0.20428457E+03</pdfrwt>
<totfact> 0.24520305E+03</totfact>
</mgrwt>
</event>
<event>
 4    1  0.6853809E-004  0.1918724E+03  0.7818608E-02  0.1156783E+00
          2   -1    0    0  501    0  0.00000000000E+00  0.00000000000E+00  0.22643093172E+04  0.22643093172E+04  0.25500000000E-02 0.  1.
         -2   -1    0    0    0  501 -0.00000000000E+00 -0.00000000000E+00 -0.40647063428E+01  0.40647071426E+01  0.25500000000E-02 0. -1.
    5000001    1    1    2    0    0 -0.24101287962E+02  0.41462665857E+02  0.14992223019E+04  0.15019642257E+04  0.77000000000E+02 0.  0.
   -5000001    1    1    2    0    0  0.24101287962E+02 -0.41462665857E+02  0.76102230902E+03  0.76640979872E+03  0.77000000000E+02 0.  0.
<mgrwt>
<rscale>  0 0.19187239E+03</rscale>
<asrwt>0</asrwt>
<pdfrwt beam="1">  1        2 0.32347236E+00 0.19187239E+03</pdfrwt>
<pdfrwt beam="2">  1       -2 0.58067311E-03 0.19187239E+03</pdfrwt>
<totfact> 0.30242342E+04</totfact>
</mgrwt>
</event>
<event>
 4    1  0.6853809E-004  0.2048686E+03  0.7818608E-02  0.1145695E+00
          2   -1    0    0  501    0  0.00000000000E+00  0.00000000000E+00  0.10049791263E+04  0.10049791263E+04  0.25500000000E-02 0.  1.
         -2   -1    0    0    0  501 -0.00000000000E+00 -0.00000000000E+00 -0.10440803858E+02  0.10440804170E+02  0.25500000000E-02 0. -1.
    5000001    1    1    2    0    0 -0.21976350554E+02  0.51857613601E+02  0.68216631166E+03  0.68880479734E+03  0.77000000000E+02 0.  0.
   -5000001    1    1    2    0    0  0.21976350554E+02 -0.51857613601E+02  0.31237201075E+03  0.32661513310E+03  0.77000000000E+02 0.  0.
<mgrwt>
<rscale>  0 0.20486864E+03</rscale>
<asrwt>0</asrwt>
<pdfrwt beam="1">  1        2 0.14356848E+00 0.20486864E+03</pdfrwt>
<pdfrwt beam="2">  1       -2 0.14915431E-02 0.20486864E+03</pdfrwt>
<totfact> 0.33611307E+04</totfact>
</mgrwt>
</event>
<event>
 4    1  0.6853809E-004  0.1859753E+03  0.7818608E-02  0.1162142E+00
         -2   -1    0    0    0  501 -0.00000000000E+00  0.00000000000E+00  0.49650760536E+01  0.49650767085E+01  0.25500000000E-02 0. -1.
          2   -1    0    0  501    0  0.00000000000E+00 -0.00000000000E+00 -0.17415041087E+04  0.17415041087E+04  0.25500000000E-02 0.  1.
    5000001    1    1    2    0    0  0.25242135487E+02 -0.38653327426E+02 -0.64085229213E+03  0.64711042756E+03  0.77000000000E+02 0.  0.
   -5000001    1    1    2    0    0 -0.25242135487E+02  0.38653327426E+02 -0.10956867405E+04  0.10993587579E+04  0.77000000000E+02 0.  0.
<mgrwt>
<rscale>  0 0.18597528E+03</rscale>
<asrwt>0</asrwt>
<pdfrwt beam="1">  1        2 0.24878591E+00 0.18597528E+03</pdfrwt>
<pdfrwt beam="2">  1       -2 0.70929774E-03 0.18597528E+03</pdfrwt>
<totfact> 0.40498400E+04</totfact>
</mgrwt>
</event>
<event>
 4    1  0.6853809E-004  0.2145307E+03  0.7818608E-02  0.1138028E+00
         -2   -1    0    0    0  501 -0.00000000000E+00  0.00000000000E+00  0.12744200396E+02  0.12744200651E+02  0.25500000000E-02 0. -1.
          2   -1    0    0  501    0  0.00000000000E+00 -0.00000000000E+00 -0.90283046956E+03  0.90283046957E+03  0.25500000000E-02 0.  1.
    5000001    1    1    2    0    0 -0.42269426465E+02  0.60463656890E+02 -0.39558551541E+03  0.40970655135E+03  0.77000000000E+02 0.  0.
   -5000001    1    1    2    0    0  0.42269426465E+02 -0.60463656890E+02 -0.49450075376E+03  0.50586811887E+03  0.77000000000E+02 0.  0.
<mgrwt>
<rscale>  0 0.21453067E+03</rscale>
<asrwt>0</asrwt>
<pdfrwt beam="1">  1        2 0.12897574E+00 0.21453067E+03</pdfrwt>
<pdfrwt beam="2">  1       -2 0.18206007E-02 0.21453067E+03</pdfrwt>
<totfact> 0.29042859E+04</totfact>
</mgrwt>
</event>
<event>
 4    1  0.6853809E-004  0.3340615E+03  0.7818608E-02  0.1069354E+00
         -2   -1    0    0    0  501 -0.00000000000E+00  0.00000000000E+00  0.21997287167E+02  0.21997287315E+02  0.25500000000E-02 0. -1.
          2   -1    0    0  501    0  0.00000000000E+00 -0.00000000000E+00 -0.12683053399E+04  0.12683053399E+04  0.25500000000E-02 0.  1.
    5000001    1    1    2    0    0 -0.16997482481E+02  0.14486630197E+03 -0.52131972853E+03  0.54678919083E+03  0.77000000000E+02 0.  0.
   -5000001    1    1    2    0    0  0.16997482481E+02 -0.14486630197E+03 -0.72498832420E+03  0.74351343638E+03  0.77000000000E+02 0.  0.
<mgrwt>
<rscale>  0 0.33406153E+03</rscale>
<asrwt>0</asrwt>
<pdfrwt beam="1">  1        2 0.18118643E+00 0.33406153E+03</pdfrwt>
<pdfrwt beam="2">  1       -2 0.31424704E-02 0.33406153E+03</pdfrwt>
<totfact> 0.81665944E+03</totfact>
</mgrwt>
</event>
<event>
 4    1  0.6853809E-004  0.1967015E+03  0.7818608E-02  0.1152552E+00
         -2   -1    0    0    0  501 -0.00000000000E+00  0.00000000000E+00  0.58523517181E+02  0.58523517237E+02  0.25500000000E-02 0. -1.
          2   -1    0    0  501    0  0.00000000000E+00 -0.00000000000E+00 -0.16528168578E+03  0.16528168580E+03  0.25500000000E-02 0.  1.
    5000001    1    1    2    0    0  0.44818948517E+02 -0.40732909934E+02 -0.43462824349E+02  0.10717240875E+03  0.77000000000E+02 0.  0.
   -5000001    1    1    2    0    0 -0.44818948517E+02  0.40732909934E+02 -0.63295344246E+02  0.11663279428E+03  0.77000000000E+02 0.  0.
<mgrwt>
<rscale>  0 0.19670145E+03</rscale>
<asrwt>0</asrwt>
<pdfrwt beam="1">  1        2 0.23611669E-01 0.19670145E+03</pdfrwt>
<pdfrwt beam="2">  1       -2 0.83605025E-02 0.19670145E+03</pdfrwt>
<totfact> 0.19468236E+04</totfact>
</mgrwt>
</event>
<event>
 4    1  0.6853809E-004  0.1788998E+03  0.7818608E-02  0.1168872E+00
          2   -1    0    0  501    0  0.00000000000E+00  0.00000000000E+00  0.50755468505E+03  0.50755468506E+03  0.25500000000E-02 0.  1.
         -2   -1    0    0    0  501 -0.00000000000E+00 -0.00000000000E+00 -0.15764379205E+02  0.15764379411E+02  0.25500000000E-02 0. -1.
    5000001    1    1    2    0    0 -0.38075292192E+02  0.24152716088E+02  0.26421055251E+03  0.27887147152E+03  0.77000000000E+02 0.  0.
   -5000001    1    1    2    0    0  0.38075292192E+02 -0.24152716088E+02  0.22757975333E+03  0.24444759294E+03  0.77000000000E+02 0.  0.
<mgrwt>
<rscale>  0 0.17889980E+03</rscale>
<asrwt>0</asrwt>
<pdfrwt beam="1">  1        2 0.72507824E-01 0.17889980E+03</pdfrwt>
<pdfrwt beam="2">  1       -2 0.22520538E-02 0.17889980E+03</pdfrwt>
<totfact> 0.41237208E+04</totfact>
</mgrwt>
</event>
<event>
 4    1  0.6853809E-004  0.2174400E+03  0.7818608E-02  0.1135806E+00
          2   -1    0    0  501    0  0.00000000000E+00  0.00000000000E+00  0.75768823066E+03  0.75768823067E+03  0.25500000000E-02 0.  1.
         -2   -1    0    0    0  501 -0.00000000000E+00 -0.00000000000E+00 -0.15600141325E+02  0.15600141534E+02  0.25500000000E-02 0. -1.
    5000001    1    1    2    0    0 -0.45006240065E+02  0.59984890309E+02  0.31290107068E+03  0.33084713803E+03  0.77000000000E+02 0.  0.
   -5000001    1    1    2    0    0  0.45006240065E+02 -0.59984890309E+02  0.42918701866E+03  0.44244123417E+03  0.77000000000E+02 0.  0.
<mgrwt>
<rscale>  0 0.21744005E+03</rscale>
<asrwt>0</asrwt>
<pdfrwt beam="1">  1        2 0.10824124E+00 0.21744005E+03</pdfrwt>
<pdfrwt beam="2">  1       -2 0.22285904E-02 0.21744005E+03</pdfrwt>
<totfact> 0.26890642E+04</totfact>
</mgrwt>
</event>
<event>
 4    1  0.6853809E-004  0.1696076E+03  0.7818608E-02  0.1178258E+00
         -2   -1    0    0    0  501 -0.00000000000E+00  0.00000000000E+00  0.21062095882E+02  0.21062096036E+02  0.25500000000E-02 0. -1.
          2   -1    0    0  501    0  0.00000000000E+00 -0.00000000000E+00 -0.34145153654E+03  0.34145153655E+03  0.25500000000E-02 0.  1.
    5000001    1    1    2    0    0 -0.29338958002E+02 -0.14038562920E+01 -0.20293883342E+03  0.21903405073E+03  0.77000000000E+02 0.  0.
   -5000001    1    1    2    0    0  0.29338958002E+02  0.14038562920E+01 -0.11745060724E+03  0.14347958186E+03  0.77000000000E+02 0.  0.
<mgrwt>
<rscale>  0 0.16960761E+03</rscale>
<asrwt>0</asrwt>
<pdfrwt beam="1">  1        2 0.48778788E-01 0.16960761E+03</pdfrwt>
<pdfrwt beam="2">  1       -2 0.30088711E-02 0.16960761E+03</pdfrwt>
<totfact> 0.41060617E+04</totfact>
</mgrwt>
</event>
<event>
 4    1  0.6853809E-004  0.2576038E+03  0.7818608E-02  0.1108592E+00
         -2   -1    0    0    0  501 -0.00000000000E+00  0.00000000000E+00  0.60867436123E+01  0.60867441465E+01  0.25500000000E-02 0. -1.
          2   -1    0    0  501    0  0.00000000000E+00 -0.00000000000E+00 -0.27255835881E+04  0.27255835881E+04  0.25500000000E-02 0.  1.
    5000001    1    1    2    0    0  0.74007546745E+02 -0.49708273844E+02 -0.80742571632E+03  0.81597384568E+03  0.77000000000E+02 0.  0.
   -5000001    1    1    2    0    0 -0.74007546745E+02  0.49708273844E+02 -0.19120711281E+04  0.19156964865E+04  0.77000000000E+02 0.  0.
<mgrwt>
<rscale>  0 0.25760380E+03</rscale>
<asrwt>0</asrwt>
<pdfrwt beam="1">  1        2 0.38936830E+00 0.25760380E+03</pdfrwt>
<pdfrwt beam="2">  1       -2 0.86953658E-03 0.25760380E+03</pdfrwt>
<totfact> 0.10070300E+04</totfact>
</mgrwt>
</event>
<event>
 4    1  0.6853809E-004  0.1648097E+03  0.7818608E-02  0.1183371E+00
         -2   -1    0    0    0  501 -0.00000000000E+00  0.00000000000E+00  0.95557688298E+01  0.95557691701E+01  0.25500000000E-02 0. -1.
          2   -1    0    0  501    0  0.00000000000E+00 -0.00000000000E+00 -0.71062417067E+03  0.71062417067E+03  0.25500000000E-02 0.  1.
    5000001    1    1    2    0    0  0.34445060431E+00 -0.26223125818E+02 -0.40814049271E+03  0.41616755372E+03  0.77000000000E+02 0.  0.
   -5000001    1    1    2    0    0 -0.34445060431E+00  0.26223125818E+02 -0.29292790912E+03  0.30401238612E+03  0.77000000000E+02 0.  0.
<mgrwt>
<rscale>  0 0.16480971E+03</rscale>
<asrwt>0</asrwt>
<pdfrwt beam="1">  1        2 0.10151771E+00 0.16480971E+03</pdfrwt>
<pdfrwt beam="2">  1       -2 0.13651103E-02 0.16480971E+03</pdfrwt>
<totfact> 0.57905896E+04</totfact>
</mgrwt>
</event>
<event>
 4    1  0.6853809E-004  0.8023597E+03  0.7818608E-02  0.9556608E-01
          2   -1    0    0  501    0  0.00000000000E+00  0.00000000000E+00  0.17258088217E+04  0.17258088217E+04  0.25500000000E-02 0.  1.
         -2   -1    0    0    0  501 -0.00000000000E+00 -0.00000000000E+00 -0.93257870639E+02  0.93257870673E+02  0.25500000000E-02 0. -1.
    5000001    1    1    2    0    0 -0.23959536385E+03 -0.65599789765E+02  0.12374862767E+03  0.28801387752E+03  0.77000000000E+02 0.  0.
   -5000001    1    1    2    0    0  0.23959536385E+03  0.65599789765E+02  0.15088023234E+04  0.15310528149E+04  0.77000000000E+02 0.  0.
<mgrwt>
<rscale>  0 0.80235966E+03</rscale>
<asrwt>0</asrwt>
<pdfrwt beam="1">  1        2 0.24654412E+00 0.80235966E+03</pdfrwt>
<pdfrwt beam="2">  1       -2 0.13322553E-01 0.80235966E+03</pdfrwt>
<totfact> 0.48086835E+02</totfact>
</mgrwt>
</event>
<event>
 4    1  0.6853809E-004  0.2539982E+03  0.7818608E-02  0.1110804E+00
         -2   -1    0    0    0  501 -0.00000000000E+00  0.00000000000E+00  0.12095419493E+03  0.12095419496E+03  0.25500000000E-02 0. -1.
          2   -1    0    0  501    0  0.00000000000E+00 -0.00000000000E+00 -0.13334607179E+03  0.13334607181E+03  0.25500000000E-02 0.  1.
    5000001    1    1    2    0    0  0.69398073789E+02  0.38869946899E+02 -0.68501791940E+02  0.13018625471E+03  0.77000000000E+02 0.  0.
   -5000001    1    1    2    0    0 -0.69398073789E+02 -0.38869946899E+02  0.56109915084E+02  0.12411401205E+03  0.77000000000E+02 0.  0.
<mgrwt>
<rscale>  0 0.25399816E+03</rscale>
<asrwt>0</asrwt>
<pdfrwt beam="1">  1        2 0.19049439E-01 0.25399816E+03</pdfrwt>
<pdfrwt beam="2">  1       -2 0.17279171E-01 0.25399816E+03</pdfrwt>
<totfact> 0.78224922E+03</totfact>
</mgrwt>
</event>
<event>
 4    1  0.6853809E-004  0.1770490E+03  0.7818608E-02  0.1170690E+00
          2   -1    0    0  501    0  0.00000000000E+00  0.00000000000E+00  0.21769655440E+04  0.21769655440E+04  0.25500000000E-02 0.  1.
         -2   -1    0    0    0  501 -0.00000000000E+00 -0.00000000000E+00 -0.35997761839E+01  0.35997770870E+01  0.25500000000E-02 0. -1.
    5000001    1    1    2    0    0 -0.43473999502E+02  0.36981054543E+01  0.10622822981E+04  0.10659626380E+04  0.77000000000E+02 0.  0.
   -5000001    1    1    2    0    0  0.43473999502E+02 -0.36981054543E+01  0.11110834697E+04  0.11146026831E+04  0.77000000000E+02 0.  0.
<mgrwt>
<rscale>  0 0.17704903E+03</rscale>
<asrwt>0</asrwt>
<pdfrwt beam="1">  1        2 0.31099431E+00 0.17704903E+03</pdfrwt>
<pdfrwt beam="2">  1       -2 0.51425507E-03 0.17704903E+03</pdfrwt>
<totfact> 0.39471248E+04</totfact>
</mgrwt>
</event>
<event>
 4    1  0.6853809E-004  0.4710880E+03  0.7818608E-02  0.1021614E+00
         -2   -1    0    0    0  501 -0.00000000000E+00  0.00000000000E+00  0.43536714313E+02  0.43536714388E+02  0.25500000000E-02 0. -1.
          2   -1    0    0  501    0  0.00000000000E+00 -0.00000000000E+00 -0.12743492935E+04  0.12743492935E+04  0.25500000000E-02 0.  1.
    5000001    1    1    2    0    0  0.68405365335E+02  0.20405562114E+03 -0.45631545316E+03  0.51036338360E+03  0.77000000000E+02 0.  0.
   -5000001    1    1    2    0    0 -0.68405365335E+02 -0.20405562114E+03 -0.77449712606E+03  0.80752262432E+03  0.77000000000E+02 0.  0.
<mgrwt>
<rscale>  0 0.47108802E+03</rscale>
<asrwt>0</asrwt>
<pdfrwt beam="1">  1        2 0.18204988E+00 0.47108802E+03</pdfrwt>
<pdfrwt beam="2">  1       -2 0.62195314E-02 0.47108802E+03</pdfrwt>
<totfact> 0.28652547E+03</totfact>
</mgrwt>
</event>
<event>
 4    1  0.6853809E-004  0.1789561E+03  0.7818608E-02  0.1168817E+00
         -2   -1    0    0    0  501 -0.00000000000E+00  0.00000000000E+00  0.17554530773E+02  0.17554530958E+02  0.25500000000E-02 0. -1.
          2   -1    0    0  501    0  0.00000000000E+00 -0.00000000000E+00 -0.45608294703E+03  0.45608294704E+03  0.25500000000E-02 0.  1.
    5000001    1    1    2    0    0 -0.18779721359E+01  0.25404118793E+02 -0.11923463205E+03  0.14420399964E+03  0.77000000000E+02 0.  0.
   -5000001    1    1    2    0    0  0.18779721359E+01 -0.25404118793E+02 -0.31929378421E+03  0.32943347836E+03  0.77000000000E+02 0.  0.
<mgrwt>
<rscale>  0 0.17895611E+03</rscale>
<asrwt>0</asrwt>
<pdfrwt beam="1">  1        2 0.65154699E-01 0.17895611E+03</pdfrwt>
<pdfrwt beam="2">  1       -2 0.25077904E-02 0.17895611E+03</pdfrwt>
<totfact> 0.39571948E+04</totfact>
</mgrwt>
</event>
<event>
 4    1  0.6853809E-004  0.2107702E+03  0.7818608E-02  0.1140958E+00
          2   -1    0    0  501    0  0.00000000000E+00  0.00000000000E+00  0.11292565238E+04  0.11292565239E+04  0.25500000000E-02 0.  1.
         -2   -1    0    0    0  501 -0.00000000000E+00 -0.00000000000E+00 -0.98348023543E+01  0.98348026849E+01  0.25500000000E-02 0. -1.
    5000001    1    1    2    0    0 -0.33971887058E+02  0.62697271739E+02  0.50787966781E+03  0.51860948118E+03  0.77000000000E+02 0.  0.
   -5000001    1    1    2    0    0  0.33971887058E+02 -0.62697271739E+02  0.61154205368E+03  0.62048184536E+03  0.77000000000E+02 0.  0.
<mgrwt>
<rscale>  0 0.21077016E+03</rscale>
<asrwt>0</asrwt>
<pdfrwt beam="1">  1        2 0.16132225E+00 0.21077016E+03</pdfrwt>
<pdfrwt beam="2">  1       -2 0.14049728E-02 0.21077016E+03</pdfrwt>
<totfact> 0.31234006E+04</totfact>
</mgrwt>
</event>
<event>
 4    1  0.6853809E-004  0.3087842E+03  0.7818608E-02  0.1080930E+00
         -2   -1    0    0    0  501 -0.00000000000E+00  0.00000000000E+00  0.25259615281E+02  0.25259615410E+02  0.25500000000E-02 0. -1.
          2   -1    0    0  501    0  0.00000000000E+00 -0.00000000000E+00 -0.94367718765E+03  0.94367718765E+03  0.25500000000E-02 0.  1.
    5000001    1    1    2    0    0  0.88154438880E+02 -0.10067961076E+03 -0.45739623699E+03  0.48275035653E+03  0.77000000000E+02 0.  0.
   -5000001    1    1    2    0    0 -0.88154438880E+02  0.10067961076E+03 -0.46102133538E+03  0.48618644653E+03  0.77000000000E+02 0.  0.
<mgrwt>
<rscale>  0 0.30878421E+03</rscale>
<asrwt>0</asrwt>
<pdfrwt beam="1">  1        2 0.13481100E+00 0.30878421E+03</pdfrwt>
<pdfrwt beam="2">  1       -2 0.36085171E-02 0.30878421E+03</pdfrwt>
<totfact> 0.10128996E+04</totfact>
</mgrwt>
</event>
<event>
 4    1  0.6853809E-004  0.7352317E+03  0.7818608E-02  0.9658809E-01
          2   -1    0    0  501    0  0.00000000000E+00  0.00000000000E+00  0.20471932236E+03  0.20471932237E+03  0.25500000000E-02 0.  1.
         -2   -1    0    0    0  501 -0.00000000000E+00 -0.00000000000E+00 -0.66013019472E+03  0.66013019473E+03  0.25500000000E-02 0. -1.
    5000001    1    1    2    0    0  0.88834641411E+02  0.19013025509E+03 -0.57099687245E+03  0.61319453338E+03  0.77000000000E+02 0.  0.
   -5000001    1    1    2    0    0 -0.88834641411E+02 -0.19013025509E+03  0.11558600009E+03  0.25165498372E+03  0.77000000000E+02 0.  0.
<mgrwt>
<rscale>  0 0.73523168E+03</rscale>
<asrwt>0</asrwt>
<pdfrwt beam="1">  1        2 0.29245618E-01 0.73523168E+03</pdfrwt>
<pdfrwt beam="2">  1       -2 0.94304312E-01 0.73523168E+03</pdfrwt>
<totfact> 0.17526454E+02</totfact>
</mgrwt>
</event>
<event>
 4    1  0.6853809E-004  0.4165887E+03  0.7818608E-02  0.1038182E+00
          2   -1    0    0  501    0  0.00000000000E+00  0.00000000000E+00  0.46243874214E+03  0.46243874214E+03  0.25500000000E-02 0.  1.
         -2   -1    0    0    0  501 -0.00000000000E+00 -0.00000000000E+00 -0.93821172050E+02  0.93821172085E+02  0.25500000000E-02 0. -1.
    5000001    1    1    2    0    0 -0.11719236543E+03  0.15339317540E+03  0.20290833645E+03  0.29045534902E+03  0.77000000000E+02 0.  0.
   -5000001    1    1    2    0    0  0.11719236543E+03 -0.15339317540E+03  0.16570923363E+03  0.26580456521E+03  0.77000000000E+02 0.  0.
<mgrwt>
<rscale>  0 0.41658874E+03</rscale>
<asrwt>0</asrwt>
<pdfrwt beam="1">  1        2 0.66062676E-01 0.41658874E+03</pdfrwt>
<pdfrwt beam="2">  1       -2 0.13403025E-01 0.41658874E+03</pdfrwt>
<totfact> 0.30676123E+03</totfact>
</mgrwt>
</event>
<event>
 4    1  0.6853809E-004  0.6164858E+03  0.7818608E-02  0.9871781E-01
         -2   -1    0    0    0  501 -0.00000000000E+00  0.00000000000E+00  0.96411346612E+02  0.96411346646E+02  0.25500000000E-02 0. -1.
          2   -1    0    0  501    0  0.00000000000E+00 -0.00000000000E+00 -0.98550325910E+03  0.98550325911E+03  0.25500000000E-02 0.  1.
    5000001    1    1    2    0    0  0.29346335352E+03 -0.52069695190E+02 -0.41664781025E+03  0.51803126431E+03  0.77000000000E+02 0.  0.
   -5000001    1    1    2    0    0 -0.29346335352E+03  0.52069695190E+02 -0.47244410224E+03  0.56388334145E+03  0.77000000000E+02 0.  0.
<mgrwt>
<rscale>  0 0.61648584E+03</rscale>
<asrwt>0</asrwt>
<pdfrwt beam="1">  1        2 0.14078617E+00 0.61648584E+03</pdfrwt>
<pdfrwt beam="2">  1       -2 0.13773050E-01 0.61648584E+03</pdfrwt>
<totfact> 0.11652447E+03</totfact>
</mgrwt>
</event>
<event>
 4    1  0.6853809E-004  0.2710434E+03  0.7818608E-02  0.1100684E+00
         -2   -1    0    0    0  501 -0.00000000000E+00  0.00000000000E+00  0.93661594155E+02  0.93661594190E+02  0.25500000000E-02 0. -1.
          2   -1    0    0  501    0  0.00000000000E+00 -0.00000000000E+00 -0.19609036612E+03  0.19609036613E+03  0.25500000000E-02 0.  1.
    5000001    1    1    2    0    0 -0.19778343787E+02  0.10853164185E+03 -0.68677022061E+02  0.15104910964E+03  0.77000000000E+02 0.  0.
   -5000001    1    1    2    0    0  0.19778343787E+02 -0.10853164185E+03 -0.33751749901E+02  0.13870285068E+03  0.77000000000E+02 0.  0.
<mgrwt>
<rscale>  0 0.27104344E+03</rscale>
<asrwt>0</asrwt>
<pdfrwt beam="1">  1        2 0.28012909E-01 0.27104344E+03</pdfrwt>
<pdfrwt beam="2">  1       -2 0.13380228E-01 0.27104344E+03</pdfrwt>
<totfact> 0.77560857E+03</totfact>
</mgrwt>
</event>
<event>
 4    1  0.6853809E-004  0.3354259E+03  0.7818608E-02  0.1068761E+00
         -2   -1    0    0    0  501 -0.00000000000E+00  0.00000000000E+00  0.55725453138E+03  0.55725453138E+03  0.25500000000E-02 0. -1.
          2   -1    0    0  501    0  0.00000000000E+00 -0.00000000000E+00 -0.50475381246E+02  0.50475381310E+02  0.25500000000E-02 0.  1.
    5000001    1    1    2    0    0 -0.67660492988E+02  0.12664326875E+03  0.32545737817E+03  0.36396148813E+03  0.77000000000E+02 0.  0.
   -5000001    1    1    2    0    0  0.67660492988E+02 -0.12664326875E+03  0.18132177196E+03  0.24376842457E+03  0.77000000000E+02 0.  0.
<mgrwt>
<rscale>  0 0.33542591E+03</rscale>
<asrwt>0</asrwt>
<pdfrwt beam="1">  1        2 0.72107686E-02 0.33542591E+03</pdfrwt>
<pdfrwt beam="2">  1       -2 0.79607792E-01 0.33542591E+03</pdfrwt>
<totfact> 0.14071553E+03</totfact>
</mgrwt>
</event>
<event>
 4    1  0.6853809E-004  0.2914377E+03  0.7818608E-02  0.1089601E+00
         -2   -1    0    0    0  501 -0.00000000000E+00  0.00000000000E+00  0.46549191522E+03  0.46549191523E+03  0.25500000000E-02 0. -1.
          2   -1    0    0  501    0  0.00000000000E+00 -0.00000000000E+00 -0.45616211213E+02  0.45616211284E+02  0.25500000000E-02 0.  1.
    5000001    1    1    2    0    0  0.98475605009E+02  0.15969087170E+02  0.33824365655E+03  0.36095737660E+03  0.77000000000E+02 0.  0.
   -5000001    1    1    2    0    0 -0.98475605009E+02 -0.15969087170E+02  0.81632047462E+02  0.15015074991E+03  0.77000000000E+02 0.  0.
<mgrwt>
<rscale>  0 0.29143766E+03</rscale>
<asrwt>0</asrwt>
<pdfrwt beam="1">  1        2 0.65166016E-02 0.29143766E+03</pdfrwt>
<pdfrwt beam="2">  1       -2 0.66498845E-01 0.29143766E+03</pdfrwt>
<totfact> 0.23607011E+03</totfact>
</mgrwt>
</event>
<event>
 4    1  0.6853809E-004  0.7416763E+03  0.7818608E-02  0.9648500E-01
          2   -1    0    0  501    0  0.00000000000E+00  0.00000000000E+00  0.12138541289E+04  0.12138541289E+04  0.25500000000E-02 0.  1.
         -2   -1    0    0    0  501 -0.00000000000E+00 -0.00000000000E+00 -0.11329281219E+03  0.11329281221E+03  0.25500000000E-02 0. -1.
    5000001    1    1    2    0    0 -0.30692329680E+03 -0.12966943594E+03  0.80695576088E+03  0.87642607946E+03  0.77000000000E+02 0.  0.
   -5000001    1    1    2    0    0  0.30692329680E+03  0.12966943594E+03  0.29360555587E+03  0.45072086170E+03  0.77000000000E+02 0.  0.
<mgrwt>
<rscale>  0 0.74167634E+03</rscale>
<asrwt>0</asrwt>
<pdfrwt beam="1">  1        2 0.17340772E+00 0.74167634E+03</pdfrwt>
<pdfrwt beam="2">  1       -2 0.16184689E-01 0.74167634E+03</pdfrwt>
<totfact> 0.64970624E+02</totfact>
</mgrwt>
</event>
<event>
 4    1  0.6853809E-004  0.4302741E+03  0.7818608E-02  0.1033773E+00
          2   -1    0    0  501    0  0.00000000000E+00  0.00000000000E+00  0.26545448762E+04  0.26545448762E+04  0.25500000000E-02 0.  1.
         -2   -1    0    0    0  501 -0.00000000000E+00 -0.00000000000E+00 -0.17435738691E+02  0.17435738877E+02  0.25500000000E-02 0. -1.
    5000001    1    1    2    0    0 -0.12908235711E+03 -0.14361632916E+03  0.97464184076E+03  0.99656591487E+03  0.77000000000E+02 0.  0.
   -5000001    1    1    2    0    0  0.12908235711E+03  0.14361632916E+03  0.16624672967E+04  0.16754147002E+04  0.77000000000E+02 0.  0.
<mgrwt>
<rscale>  0 0.43027410E+03</rscale>
<asrwt>0</asrwt>
<pdfrwt beam="1">  1        2 0.37922094E+00 0.43027410E+03</pdfrwt>
<pdfrwt beam="2">  1       -2 0.24908182E-02 0.43027410E+03</pdfrwt>
<totfact> 0.23141788E+03</totfact>
</mgrwt>
</event>
<event>
 4    1  0.6853809E-004  0.1852670E+03  0.7818608E-02  0.1162801E+00
          2   -1    0    0  501    0  0.00000000000E+00  0.00000000000E+00  0.18271639897E+04  0.18271639897E+04  0.25500000000E-02 0.  1.
         -2   -1    0    0    0  501 -0.00000000000E+00 -0.00000000000E+00 -0.46963297540E+01  0.46963304463E+01  0.25500000000E-02 0. -1.
    5000001    1    1    2    0    0 -0.23341598245E+02  0.42642731759E+02  0.74322113508E+03  0.74877893160E+03  0.77000000000E+02 0.  0.
   -5000001    1    1    2    0    0  0.23341598245E+02 -0.42642731759E+02  0.10792465248E+04  0.10830813885E+04  0.77000000000E+02 0.  0.
<mgrwt>
<rscale>  0 0.18526700E+03</rscale>
<asrwt>0</asrwt>
<pdfrwt beam="1">  1        2 0.26102358E+00 0.18526700E+03</pdfrwt>
<pdfrwt beam="2">  1       -2 0.67090391E-03 0.18526700E+03</pdfrwt>
<totfact> 0.39861701E+04</totfact>
</mgrwt>
</event>
<event>
 4    1  0.6853809E-004  0.2156195E+03  0.7818608E-02  0.1137192E+00
          2   -1    0    0  501    0  0.00000000000E+00  0.00000000000E+00  0.17307354671E+02  0.17307354859E+02  0.25500000000E-02 0.  1.
         -2   -1    0    0    0  501 -0.00000000000E+00 -0.00000000000E+00 -0.67156082991E+03  0.67156082991E+03  0.25500000000E-02 0. -1.
    5000001    1    1    2    0    0  0.48146393303E+02  0.46632122550E+02 -0.43785944561E+03  0.44960262916E+03  0.77000000000E+02 0.  0.
   -5000001    1    1    2    0    0 -0.48146393303E+02 -0.46632122550E+02 -0.21639402963E+03  0.23926555561E+03  0.77000000000E+02 0.  0.
<mgrwt>
<rscale>  0 0.21561949E+03</rscale>
<asrwt>0</asrwt>
<pdfrwt beam="1">  1        2 0.24724797E-02 0.21561949E+03</pdfrwt>
<pdfrwt beam="2">  1       -2 0.95937245E-01 0.21561949E+03</pdfrwt>
<totfact> 0.37958957E+03</totfact>
</mgrwt>
</event>
<event>
 4    1  0.6853809E-004  0.1932317E+03  0.7818608E-02  0.1155578E+00
         -2   -1    0    0    0  501 -0.00000000000E+00  0.00000000000E+00  0.81629561422E+01  0.81629565405E+01  0.25500000000E-02 0. -1.
          2   -1    0    0  501    0  0.00000000000E+00 -0.00000000000E+00 -0.11435348877E+04  0.11435348877E+04  0.25500000000E-02 0.  1.
    5000001    1    1    2    0    0 -0.49565364509E+02  0.16570080017E+02 -0.41291227348E+03  0.42326922697E+03  0.77000000000E+02 0.  0.
   -5000001    1    1    2    0    0  0.49565364509E+02 -0.16570080017E+02 -0.72245965808E+03  0.72842861728E+03  0.77000000000E+02 0.  0.
<mgrwt>
<rscale>  0 0.19323173E+03</rscale>
<asrwt>0</asrwt>
<pdfrwt beam="1">  1        2 0.16336202E+00 0.19323173E+03</pdfrwt>
<pdfrwt beam="2">  1       -2 0.11661373E-02 0.19323173E+03</pdfrwt>
<totfact> 0.39937692E+04</totfact>
</mgrwt>
</event>
<event>
 4    1  0.6853809E-004  0.2378976E+03  0.7818608E-02  0.1121201E+00
         -2   -1    0    0    0  501 -0.00000000000E+00  0.00000000000E+00  0.80162160542E+03  0.80162160542E+03  0.25500000000E-02 0. -1.
          2   -1    0    0  501    0  0.00000000000E+00 -0.00000000000E+00 -0.17650250751E+02  0.17650250935E+02  0.25500000000E-02 0.  1.
    5000001    1    1    2    0    0  0.29811199640E+02  0.85353332362E+02  0.41532322137E+03  0.43196791221E+03  0.77000000000E+02 0.  0.
   -5000001    1    1    2    0    0 -0.29811199640E+02 -0.85353332362E+02  0.36864813329E+03  0.38730394414E+03  0.77000000000E+02 0.  0.
<mgrwt>
<rscale>  0 0.23789765E+03</rscale>
<asrwt>0</asrwt>
<pdfrwt beam="1">  1        2 0.25214645E-02 0.23789765E+03</pdfrwt>
<pdfrwt beam="2">  1       -2 0.11451737E+00 0.23789765E+03</pdfrwt>
<totfact> 0.24534242E+03</totfact>
</mgrwt>
</event>
<event>
 4    1  0.6853809E-004  0.2504176E+03  0.7818608E-02  0.1113041E+00
         -2   -1    0    0    0  501 -0.00000000000E+00  0.00000000000E+00  0.67391394963E+03  0.67391394964E+03  0.25500000000E-02 0. -1.
          2   -1    0    0  501    0  0.00000000000E+00 -0.00000000000E+00 -0.23262981753E+02  0.23262981893E+02  0.25500000000E-02 0.  1.
    5000001    1    1    2    0    0  0.88714349266E+02 -0.26602114749E+02  0.42056870307E+03  0.43747564764E+03  0.77000000000E+02 0.  0.
   -5000001    1    1    2    0    0 -0.88714349266E+02  0.26602114749E+02  0.23008226481E+03  0.25970128389E+03  0.77000000000E+02 0.  0.
<mgrwt>
<rscale>  0 0.25041763E+03</rscale>
<asrwt>0</asrwt>
<pdfrwt beam="1">  1        2 0.33232836E-02 0.25041763E+03</pdfrwt>
<pdfrwt beam="2">  1       -2 0.96273408E-01 0.25041763E+03</pdfrwt>
<totfact> 0.25376642E+03</totfact>
</mgrwt>
</event>
<event>
 4    1  0.6853809E-004  0.3806284E+03  0.7818608E-02  0.1050702E+00
         -2   -1    0    0    0  501 -0.00000000000E+00  0.00000000000E+00  0.19765229787E+02  0.19765229951E+02  0.25500000000E-02 0. -1.
          2   -1    0    0  501    0  0.00000000000E+00 -0.00000000000E+00 -0.18324852591E+04  0.18324852591E+04  0.25500000000E-02 0.  1.
    5000001    1    1    2    0    0 -0.32360189661E+02 -0.16738084552E+03 -0.10768167970E+04  0.10929441631E+04  0.77000000000E+02 0.  0.
   -5000001    1    1    2    0    0  0.32360189661E+02  0.16738084552E+03 -0.73590323228E+03  0.75930632594E+03  0.77000000000E+02 0.  0.
<mgrwt>
<rscale>  0 0.38062839E+03</rscale>
<asrwt>0</asrwt>
<pdfrwt beam="1">  1        2 0.26178350E+00 0.38062839E+03</pdfrwt>
<pdfrwt beam="2">  1       -2 0.28236054E-02 0.38062839E+03</pdfrwt>
<totfact> 0.49506839E+03</totfact>
</mgrwt>
</event>
<event>
 4    1  0.6853809E-004  0.2681354E+03  0.7818608E-02  0.1102352E+00
         -2   -1    0    0    0  501 -0.00000000000E+00  0.00000000000E+00  0.17258428439E+02  0.17258428627E+02  0.25500000000E-02 0. -1.
          2   -1    0    0  501    0  0.00000000000E+00 -0.00000000000E+00 -0.10414705356E+04  0.10414705356E+04  0.25500000000E-02 0.  1.
    5000001    1    1    2    0    0 -0.44412144213E+02 -0.82593826068E+02 -0.73723788513E+03  0.74715652840E+03  0.77000000000E+02 0.  0.
   -5000001    1    1    2    0    0  0.44412144213E+02  0.82593826068E+02 -0.28697422200E+03  0.31157243580E+03  0.77000000000E+02 0.  0.
<mgrwt>
<rscale>  0 0.26813537E+03</rscale>
<asrwt>0</asrwt>
<pdfrwt beam="1">  1        2 0.14878147E+00 0.26813537E+03</pdfrwt>
<pdfrwt beam="2">  1       -2 0.24654904E-02 0.26813537E+03</pdfrwt>
<totfact> 0.15554962E+04</totfact>
</mgrwt>
</event>
<event>
 4    1  0.6853809E-004  0.2034320E+03  0.7818608E-02  0.1146875E+00
          2   -1    0    0  501    0  0.00000000000E+00  0.00000000000E+00  0.21008605544E+02  0.21008605699E+02  0.25500000000E-02 0.  1.
         -2   -1    0    0    0  501 -0.00000000000E+00 -0.00000000000E+00 -0.49247195028E+03  0.49247195028E+03  0.25500000000E-02 0. -1.
    5000001    1    1    2    0    0  0.51183211857E+02  0.41925515257E+02 -0.25163122467E+03  0.27133879788E+03  0.77000000000E+02 0.  0.
   -5000001    1    1    2    0    0 -0.51183211857E+02 -0.41925515257E+02 -0.21983212006E+03  0.24214175810E+03  0.77000000000E+02 0.  0.
<mgrwt>
<rscale>  0 0.20343204E+03</rscale>
<asrwt>0</asrwt>
<pdfrwt beam="1">  1        2 0.30012297E-02 0.20343204E+03</pdfrwt>
<pdfrwt beam="2">  1       -2 0.70353129E-01 0.20343204E+03</pdfrwt>
<totfact> 0.57703460E+03</totfact>
</mgrwt>
</event>
<event>
 4    1  0.6853809E-004  0.3251195E+03  0.7818608E-02  0.1073317E+00
          2   -1    0    0  501    0  0.00000000000E+00  0.00000000000E+00  0.20284414879E+03  0.20284414880E+03  0.25500000000E-02 0.  1.
         -2   -1    0    0    0  501 -0.00000000000E+00 -0.00000000000E+00 -0.13027574787E+03  0.13027574790E+03  0.25500000000E-02 0. -1.
    5000001    1    1    2    0    0 -0.84828732953E+02  0.71467124619E+02  0.12902793371E+03  0.18676367825E+03  0.77000000000E+02 0.  0.
   -5000001    1    1    2    0    0  0.84828732953E+02 -0.71467124619E+02 -0.56459532799E+02  0.14635621845E+03  0.77000000000E+02 0.  0.
<mgrwt>
<rscale>  0 0.32511951E+03</rscale>
<asrwt>0</asrwt>
<pdfrwt beam="1">  1        2 0.28977735E-01 0.32511951E+03</pdfrwt>
<pdfrwt beam="2">  1       -2 0.18610821E-01 0.32511951E+03</pdfrwt>
<totfact> 0.43401319E+03</totfact>
</mgrwt>
</event>
<event>
 4    1  0.6853809E-004  0.5162094E+03  0.7818608E-02  0.1009633E+00
         -2   -1    0    0    0  501 -0.00000000000E+00  0.00000000000E+00  0.62278403205E+03  0.62278403206E+03  0.25500000000E-02 0. -1.
          2   -1    0    0  501    0  0.00000000000E+00 -0.00000000000E+00 -0.10696811077E+03  0.10696811080E+03  0.25500000000E-02 0.  1.
    5000001    1    1    2    0    0 -0.44610839812E+02  0.23852365849E+03  0.19784144575E+03  0.32241882753E+03  0.77000000000E+02 0.  0.
   -5000001    1    1    2    0    0  0.44610839812E+02 -0.23852365849E+03  0.31797447553E+03  0.40733331533E+03  0.77000000000E+02 0.  0.
<mgrwt>
<rscale>  0 0.51620938E+03</rscale>
<asrwt>0</asrwt>
<pdfrwt beam="1">  1        2 0.15281159E-01 0.51620938E+03</pdfrwt>
<pdfrwt beam="2">  1       -2 0.88969148E-01 0.51620938E+03</pdfrwt>
<totfact> 0.42967355E+02</totfact>
</mgrwt>
</event>
<event>
 4    1  0.6853809E-004  0.1699106E+03  0.7818608E-02  0.1177941E+00
          2   -1    0    0  501    0  0.00000000000E+00  0.00000000000E+00  0.30425393527E+04  0.30425393527E+04  0.25500000000E-02 0.  1.
         -2   -1    0    0    0  501 -0.00000000000E+00 -0.00000000000E+00 -0.23721635456E+01  0.23721649162E+01  0.25500000000E-02 0. -1.
    5000001    1    1    2    0    0 -0.15449467585E+02  0.32243702089E+02  0.14632418620E+04  0.14657025923E+04  0.77000000000E+02 0.  0.
   -5000001    1    1    2    0    0  0.15449467585E+02 -0.32243702089E+02  0.15769253272E+04  0.15792089253E+04  0.77000000000E+02 0.  0.
<mgrwt>
<rscale>  0 0.16991060E+03</rscale>
<asrwt>0</asrwt>
<pdfrwt beam="1">  1        2 0.43465133E+00 0.16991060E+03</pdfrwt>
<pdfrwt beam="2">  1       -2 0.33887838E-03 0.16991060E+03</pdfrwt>
<totfact> 0.26393395E+04</totfact>
</mgrwt>
</event>
<event>
 4    1  0.6853809E-004  0.4144500E+03  0.7818608E-02  0.1038888E+00
          2   -1    0    0  501    0  0.00000000000E+00  0.00000000000E+00  0.13429980357E+04  0.13429980357E+04  0.25500000000E-02 0.  1.
         -2   -1    0    0    0  501 -0.00000000000E+00 -0.00000000000E+00 -0.31974874187E+02  0.31974874289E+02  0.25500000000E-02 0. -1.
    5000001    1    1    2    0    0 -0.18005816933E+03 -0.66719616757E+02  0.69486961727E+03  0.72501395614E+03  0.77000000000E+02 0.  0.
   -5000001    1    1    2    0    0  0.18005816933E+03  0.66719616757E+02  0.61615354425E+03  0.64995895385E+03  0.77000000000E+02 0.  0.
<mgrwt>
<rscale>  0 0.41444996E+03</rscale>
<asrwt>0</asrwt>
<pdfrwt beam="1">  1        2 0.19185687E+00 0.41444996E+03</pdfrwt>
<pdfrwt beam="2">  1       -2 0.45678390E-02 0.41444996E+03</pdfrwt>
<totfact> 0.42400348E+03</totfact>
</mgrwt>
</event>
<event>
 4    1  0.6853809E-004  0.3420518E+03  0.7818608E-02  0.1065925E+00
          2   -1    0    0  501    0  0.00000000000E+00  0.00000000000E+00  0.63845211607E+03  0.63845211608E+03  0.25500000000E-02 0. -1.
         -2   -1    0    0    0  501 -0.00000000000E+00 -0.00000000000E+00 -0.45813706091E+02  0.45813706162E+02  0.25500000000E-02 0.  1.
    5000001    1    1    2    0    0  0.82879132321E+02 -0.11352547709E+03  0.41574388612E+03  0.44556589117E+03  0.77000000000E+02 0.  0.
   -5000001    1    1    2    0    0 -0.82879132321E+02  0.11352547709E+03  0.17689452386E+03  0.23869993107E+03  0.77000000000E+02 0.  0.
<mgrwt>
<rscale>  0 0.34205180E+03</rscale>
<asrwt>0</asrwt>
<pdfrwt beam="1">  1        2 0.91207434E-01 0.34205180E+03</pdfrwt>
<pdfrwt beam="2">  1       -2 0.65448159E-02 0.34205180E+03</pdfrwt>
<totfact> 0.66482920E+03</totfact>
</mgrwt>
</event>
<event>
 4    1  0.6853809E-004  0.3559909E+03  0.7818608E-02  0.1060183E+00
          2   -1    0    0  501    0  0.00000000000E+00  0.00000000000E+00  0.22234969733E+03  0.22234969735E+03  0.25500000000E-02 0.  1.
         -2   -1    0    0    0  501 -0.00000000000E+00 -0.00000000000E+00 -0.14248894606E+03  0.14248894609E+03  0.25500000000E-02 0. -1.
    5000001    1    1    2    0    0  0.95745585852E+02 -0.12653259347E+03  0.15341149514E+02  0.17703690374E+03  0.77000000000E+02 0.  0.
   -5000001    1    1    2    0    0 -0.95745585852E+02  0.12653259347E+03  0.64519601754E+02  0.18780173969E+03  0.77000000000E+02 0.  0.
<mgrwt>
<rscale>  0 0.35599087E+03</rscale>
<asrwt>0</asrwt>
<pdfrwt beam="1">  1        2 0.31764242E-01 0.35599087E+03</pdfrwt>
<pdfrwt beam="2">  1       -2 0.20355564E-01 0.35599087E+03</pdfrwt>
<totfact> 0.33712800E+03</totfact>
</mgrwt>
</event>
<event>
 4    1  0.6853809E-004  0.4063973E+03  0.7818608E-02  0.1041587E+00
          2   -1    0    0  501    0  0.00000000000E+00  0.00000000000E+00  0.64266577205E+03  0.64266577205E+03  0.25500000000E-02 0.  1.
         -2   -1    0    0    0  501 -0.00000000000E+00 -0.00000000000E+00 -0.64247518704E+02  0.64247518754E+02  0.25500000000E-02 0. -1.
    5000001    1    1    2    0    0  0.15922464738E+03 -0.85331669086E+02  0.19837814719E+03  0.27913593707E+03  0.77000000000E+02 0.  0.
   -5000001    1    1    2    0    0 -0.15922464738E+03  0.85331669086E+02  0.38004010615E+03  0.42777735373E+03  0.77000000000E+02 0.  0.
<mgrwt>
<rscale>  0 0.40639725E+03</rscale>
<asrwt>0</asrwt>
<pdfrwt beam="1">  1        2 0.91809393E-01 0.40639725E+03</pdfrwt>
<pdfrwt beam="2">  1       -2 0.91782173E-02 0.40639725E+03</pdfrwt>
<totfact> 0.38910809E+03</totfact>
</mgrwt>
</event>
<event>
 4    1  0.6853809E-004  0.2529828E+03  0.7818608E-02  0.1111434E+00
          2   -1    0    0  501    0  0.00000000000E+00  0.00000000000E+00  0.74399070667E+02  0.74399070711E+02  0.25500000000E-02 0.  1.
         -2   -1    0    0    0  501 -0.00000000000E+00 -0.00000000000E+00 -0.21505742991E+03  0.21505742993E+03  0.25500000000E-02 0. -1.
    5000001    1    1    2    0    0  0.27579769871E+02 -0.36516841411E+02  0.31861374127E+02  0.95069819470E+02  0.77000000000E+02 0.  0.
   -5000001    1    1    2    0    0 -0.27579769871E+02  0.36516841411E+02 -0.17251973337E+03  0.19438668117E+03  0.77000000000E+02 0.  0.
<mgrwt>
<rscale>  0 0.25298279E+03</rscale>
<asrwt>0</asrwt>
<pdfrwt beam="1">  1        2 0.10628439E-01 0.25298279E+03</pdfrwt>
<pdfrwt beam="2">  1       -2 0.30722490E-01 0.25298279E+03</pdfrwt>
<totfact> 0.57450341E+03</totfact>
</mgrwt>
</event>
<event>
 4    1  0.6853809E-004  0.2958619E+03  0.7818608E-02  0.1087328E+00
          2   -1    0    0  501    0  0.00000000000E+00  0.00000000000E+00  0.39982215560E+03  0.39982215560E+03  0.25500000000E-02 0.  1.
         -2   -1    0    0    0  501 -0.00000000000E+00 -0.00000000000E+00 -0.54733234820E+02  0.54733234880E+02  0.25500000000E-02 0. -1.
    5000001    1    1    2    0    0  0.73035561986E+02  0.97909204709E+02  0.12313723182E+03  0.18976876335E+03  0.77000000000E+02 0.  0.
   -5000001    1    1    2    0    0 -0.73035561986E+02 -0.97909204709E+02  0.22195168895E+03  0.26478662714E+03  0.77000000000E+02 0.  0.
<mgrwt>
<rscale>  0 0.29586186E+03</rscale>
<asrwt>0</asrwt>
<pdfrwt beam="1">  1        2 0.57117451E-01 0.29586186E+03</pdfrwt>
<pdfrwt beam="2">  1       -2 0.78190335E-02 0.29586186E+03</pdfrwt>
<totfact> 0.84647290E+03</totfact>
</mgrwt>
</event>
<event>
 4    1  0.6853809E-004  0.1711879E+03  0.7818608E-02  0.1176615E+00
          2   -1    0    0  501    0  0.00000000000E+00  0.00000000000E+00  0.10338794109E+04  0.10338794109E+04  0.25500000000E-02 0.  1.
         -2   -1    0    0    0  501 -0.00000000000E+00 -0.00000000000E+00 -0.70862461276E+01  0.70862465864E+01  0.25500000000E-02 0. -1.
    5000001    1    1    2    0    0 -0.23496393358E+02  0.22612483394E+02  0.62451450265E+03  0.63008790572E+03  0.77000000000E+02 0.  0.
   -5000001    1    1    2    0    0  0.23496393358E+02 -0.22612483394E+02  0.40227866215E+03  0.41087775180E+03  0.77000000000E+02 0.  0.
<mgrwt>
<rscale>  0 0.17118790E+03</rscale>
<asrwt>0</asrwt>
<pdfrwt beam="1">  1        2 0.14769712E+00 0.17118790E+03</pdfrwt>
<pdfrwt beam="2">  1       -2 0.10123205E-02 0.17118790E+03</pdfrwt>
<totfact> 0.55826412E+04</totfact>
</mgrwt>
</event>
<event>
 4    1  0.6853809E-004  0.2486239E+03  0.7818608E-02  0.1114178E+00
         -2   -1    0    0    0  501 -0.00000000000E+00  0.00000000000E+00  0.32715096603E+02  0.32715096703E+02  0.25500000000E-02 0. -1.
          2   -1    0    0  501    0  0.00000000000E+00 -0.00000000000E+00 -0.47236480863E+03  0.47236480864E+03  0.25500000000E-02 0.  1.
    5000001    1    1    2    0    0 -0.55126368239E+02 -0.64256897118E+02 -0.12120605781E+03  0.16669665189E+03  0.77000000000E+02 0.  0.
   -5000001    1    1    2    0    0  0.55126368239E+02  0.64256897118E+02 -0.31844365421E+03  0.33838325345E+03  0.77000000000E+02 0.  0.
<mgrwt>
<rscale>  0 0.24862390E+03</rscale>
<asrwt>0</asrwt>
<pdfrwt beam="1">  1        2 0.67480683E-01 0.24862390E+03</pdfrwt>
<pdfrwt beam="2">  1       -2 0.46735855E-02 0.24862390E+03</pdfrwt>
<totfact> 0.15439252E+04</totfact>
</mgrwt>
</event>
<event>
 4    1  0.6853809E-004  0.2185794E+03  0.7818608E-02  0.1134947E+00
         -2   -1    0    0    0  501 -0.00000000000E+00  0.00000000000E+00  0.21855199341E+02  0.21855199489E+02  0.25500000000E-02 0. -1.
          2   -1    0    0  501    0  0.00000000000E+00 -0.00000000000E+00 -0.54651700533E+03  0.54651700533E+03  0.25500000000E-02 0.  1.
    5000001    1    1    2    0    0 -0.97946768842E+00 -0.63777551557E+02 -0.37705996012E+03  0.39009197501E+03  0.77000000000E+02 0.  0.
   -5000001    1    1    2    0    0  0.97946768842E+00  0.63777551557E+02 -0.14760184586E+03  0.17828022981E+03  0.77000000000E+02 0.  0.
<mgrwt>
<rscale>  0 0.21857940E+03</rscale>
<asrwt>0</asrwt>
<pdfrwt beam="1">  1        2 0.78073850E-01 0.21857940E+03</pdfrwt>
<pdfrwt beam="2">  1       -2 0.31221717E-02 0.21857940E+03</pdfrwt>
<totfact> 0.23857467E+04</totfact>
</mgrwt>
</event>
<event>
 4    1  0.6853809E-004  0.2247523E+03  0.7818608E-02  0.1130389E+00
         -2   -1    0    0    0  501 -0.00000000000E+00  0.00000000000E+00  0.27451633466E+01  0.27451645309E+01  0.25500000000E-02 0. -1.
          2   -1    0    0  501    0  0.00000000000E+00 -0.00000000000E+00 -0.46002335037E+04  0.46002335037E+04  0.25500000000E-02 0.  1.
    5000001    1    1    2    0    0  0.19755371191E+02 -0.54424727691E+02 -0.34836047414E+04  0.34849366307E+04  0.77000000000E+02 0.  0.
   -5000001    1    1    2    0    0 -0.19755371191E+02  0.54424727691E+02 -0.11138835989E+04  0.11180420375E+04  0.77000000000E+02 0.  0.
<mgrwt>
<rscale>  0 0.22475226E+03</rscale>
<asrwt>0</asrwt>
<pdfrwt beam="1">  1        2 0.65717127E+00 0.22475226E+03</pdfrwt>
<pdfrwt beam="2">  1       -2 0.39216923E-03 0.22475226E+03</pdfrwt>
<totfact> 0.22500595E+03</totfact>
</mgrwt>
</event>
<event>
 4    1  0.6853809E-004  0.1977945E+03  0.7818608E-02  0.1151613E+00
          2   -1    0    0  501    0  0.00000000000E+00  0.00000000000E+00  0.71701175719E+03  0.71701175720E+03  0.25500000000E-02 0.  1.
         -2   -1    0    0    0  501 -0.00000000000E+00 -0.00000000000E+00 -0.13640871326E+02  0.13640871565E+02  0.25500000000E-02 0. -1.
    5000001    1    1    2    0    0  0.10171551875E+02 -0.55827607752E+02  0.25885774625E+03  0.27596469892E+03  0.77000000000E+02 0.  0.
   -5000001    1    1    2    0    0 -0.10171551875E+02  0.55827607752E+02  0.44451313961E+03  0.45468792984E+03  0.77000000000E+02 0.  0.
<mgrwt>
<rscale>  0 0.19779449E+03</rscale>
<asrwt>0</asrwt>
<pdfrwt beam="1">  1        2 0.10243026E+00 0.19779449E+03</pdfrwt>
<pdfrwt beam="2">  1       -2 0.19486958E-02 0.19779449E+03</pdfrwt>
<totfact> 0.34726403E+04</totfact>
</mgrwt>
</event>
<event>
 4    1  0.6853809E-004  0.3644500E+03  0.7818608E-02  0.1056836E+00
          2   -1    0    0  501    0  0.00000000000E+00  0.00000000000E+00  0.66704306760E+03  0.66704306760E+03  0.25500000000E-02 0.  1.
         -2   -1    0    0    0  501 -0.00000000000E+00 -0.00000000000E+00 -0.49780808660E+02  0.49780808725E+02  0.25500000000E-02 0. -1.
    5000001    1    1    2    0    0 -0.12561930987E+03 -0.77719614129E+02  0.45391834930E+03  0.48351982096E+03  0.77000000000E+02 0.  0.
   -5000001    1    1    2    0    0  0.12561930987E+03  0.77719614129E+02  0.16334390964E+03  0.23330405536E+03  0.77000000000E+02 0.  0.
<mgrwt>
<rscale>  0 0.36444996E+03</rscale>
<asrwt>0</asrwt>
<pdfrwt beam="1">  1        2 0.95291864E-01 0.36444996E+03</pdfrwt>
<pdfrwt beam="2">  1       -2 0.71115443E-02 0.36444996E+03</pdfrwt>
<totfact> 0.55570674E+03</totfact>
</mgrwt>
</event>
<event>
 4    1  0.6853809E-004  0.2489934E+03  0.7818608E-02  0.1113943E+00
          2   -1    0    0  501    0  0.00000000000E+00  0.00000000000E+00  0.15608134369E+04  0.15608134369E+04  0.25500000000E-02 0.  1.
         -2   -1    0    0    0  501 -0.00000000000E+00 -0.00000000000E+00 -0.99303519100E+01  0.99303522374E+01  0.25500000000E-02 0. -1.
    5000001    1    1    2    0    0  0.52272387305E+02  0.54355865659E+02  0.38231968078E+03  0.39722072065E+03  0.77000000000E+02 0.  0.
   -5000001    1    1    2    0    0 -0.52272387305E+02 -0.54355865659E+02  0.11685634043E+04  0.11735230685E+04  0.77000000000E+02 0.  0.
<mgrwt>
<rscale>  0 0.24899339E+03</rscale>
<asrwt>0</asrwt>
<pdfrwt beam="1">  1        2 0.22297322E+00 0.24899339E+03</pdfrwt>
<pdfrwt beam="2">  1       -2 0.14186226E-02 0.24899339E+03</pdfrwt>
<totfact> 0.18526132E+04</totfact>
</mgrwt>
</event>
<event>
 4    1  0.6853809E-004  0.1714853E+03  0.7818608E-02  0.1176308E+00
         -2   -1    0    0    0  501 -0.00000000000E+00  0.00000000000E+00  0.27192601235E+02  0.27192601355E+02  0.25500000000E-02 0. -1.
          2   -1    0    0  501    0  0.00000000000E+00 -0.00000000000E+00 -0.27036036454E+03  0.27036036456E+03  0.25500000000E-02 0.  1.
    5000001    1    1    2    0    0 -0.35693937244E+02 -0.11273264602E+02 -0.11350881552E+03  0.14217733592E+03  0.77000000000E+02 0.  0.
   -5000001    1    1    2    0    0  0.35693937244E+02  0.11273264602E+02 -0.12965894779E+03  0.15537562999E+03  0.77000000000E+02 0.  0.
<mgrwt>
<rscale>  0 0.17148530E+03</rscale>
<asrwt>0</asrwt>
<pdfrwt beam="1">  1        2 0.38622908E-01 0.17148530E+03</pdfrwt>
<pdfrwt beam="2">  1       -2 0.38846575E-02 0.17148530E+03</pdfrwt>
<totfact> 0.36095425E+04</totfact>
</mgrwt>
</event>
<event>
 4    1  0.6853809E-004  0.2019304E+03  0.7818608E-02  0.1148121E+00
         -2   -1    0    0    0  501 -0.00000000000E+00  0.00000000000E+00  0.31774945724E+02  0.31774945826E+02  0.25500000000E-02 0. -1.
          2   -1    0    0  501    0  0.00000000000E+00 -0.00000000000E+00 -0.32081779736E+03  0.32081779737E+03  0.25500000000E-02 0.  1.
    5000001    1    1    2    0    0 -0.23565715279E+02  0.58476306080E+02 -0.11477870890E+03  0.15191436182E+03  0.77000000000E+02 0.  0.
   -5000001    1    1    2    0    0  0.23565715279E+02 -0.58476306080E+02 -0.17426414273E+03  0.20067838137E+03  0.77000000000E+02 0.  0.
<mgrwt>
<rscale>  0 0.20193037E+03</rscale>
<asrwt>0</asrwt>
<pdfrwt beam="1">  1        2 0.45831112E-01 0.20193037E+03</pdfrwt>
<pdfrwt beam="2">  1       -2 0.45392782E-02 0.20193037E+03</pdfrwt>
<totfact> 0.24149540E+04</totfact>
</mgrwt>
</event>
<event>
 4    1  0.6853809E-004  0.2672480E+03  0.7818608E-02  0.1102865E+00
          2   -1    0    0  501    0  0.00000000000E+00  0.00000000000E+00  0.19592600006E+04  0.19592600006E+04  0.25500000000E-02 0.  1.
         -2   -1    0    0    0  501 -0.00000000000E+00 -0.00000000000E+00 -0.91133225746E+01  0.91133229313E+01  0.25500000000E-02 0. -1.
    5000001    1    1    2    0    0 -0.10698852425E+03  0.13590332130E+02  0.84854210227E+03  0.85882707268E+03  0.77000000000E+02 0.  0.
   -5000001    1    1    2    0    0  0.10698852425E+03 -0.13590332130E+02  0.11016045758E+04  0.11095462509E+04  0.77000000000E+02 0.  0.
<mgrwt>
<rscale>  0 0.26724797E+03</rscale>
<asrwt>0</asrwt>
<pdfrwt beam="1">  1        2 0.27989391E+00 0.26724797E+03</pdfrwt>
<pdfrwt beam="2">  1       -2 0.13019050E-02 0.26724797E+03</pdfrwt>
<totfact> 0.13411492E+04</totfact>
</mgrwt>
</event>
<event>
 4    1  0.6853809E-004  0.2348450E+03  0.7818608E-02  0.1123275E+00
         -2   -1    0    0    0  501 -0.00000000000E+00  0.00000000000E+00  0.24696535525E+02  0.24696535657E+02  0.25500000000E-02 0. -1.
          2   -1    0    0  501    0  0.00000000000E+00 -0.00000000000E+00 -0.55829881964E+03  0.55829881965E+03  0.25500000000E-02 0.  1.
    5000001    1    1    2    0    0 -0.57964719391E+02 -0.35873573448E+02 -0.40749874089E+03  0.42027496451E+03  0.77000000000E+02 0.  0.
   -5000001    1    1    2    0    0  0.57964719391E+02  0.35873573448E+02 -0.12610354322E+03  0.16272039079E+03  0.77000000000E+02 0.  0.
<mgrwt>
<rscale>  0 0.23484503E+03</rscale>
<asrwt>0</asrwt>
<pdfrwt beam="1">  1        2 0.79756966E-01 0.23484503E+03</pdfrwt>
<pdfrwt beam="2">  1       -2 0.35280769E-02 0.23484503E+03</pdfrwt>
<totfact> 0.19510632E+04</totfact>
</mgrwt>
</event>
<event>
 4    1  0.6853809E-004  0.1990961E+03  0.7818608E-02  0.1150504E+00
          2   -1    0    0  501    0  0.00000000000E+00  0.00000000000E+00  0.63310995437E+03  0.63310995438E+03  0.25500000000E-02 0.  1.
         -2   -1    0    0    0  501 -0.00000000000E+00 -0.00000000000E+00 -0.15652592443E+02  0.15652592650E+02  0.25500000000E-02 0. -1.
    5000001    1    1    2    0    0  0.20589888442E+02  0.47785293916E+02  0.19244698934E+03  0.21371060228E+03  0.77000000000E+02 0.  0.
   -5000001    1    1    2    0    0 -0.20589888442E+02 -0.47785293916E+02  0.42501037259E+03  0.43505194475E+03  0.77000000000E+02 0.  0.
<mgrwt>
<rscale>  0 0.19909608E+03</rscale>
<asrwt>0</asrwt>
<pdfrwt beam="1">  1        2 0.90444302E-01 0.19909608E+03</pdfrwt>
<pdfrwt beam="2">  1       -2 0.22360841E-02 0.19909608E+03</pdfrwt>
<totfact> 0.32835534E+04</totfact>
</mgrwt>
</event>
<event>
 4    1  0.6853809E-004  0.2666775E+03  0.7818608E-02  0.1103196E+00
         -2   -1    0    0    0  501 -0.00000000000E+00  0.00000000000E+00  0.24536963671E+02  0.24536963804E+02  0.25500000000E-02 0. -1.
          2   -1    0    0  501    0  0.00000000000E+00 -0.00000000000E+00 -0.72458951987E+03  0.72458951987E+03  0.25500000000E-02 0.  1.
    5000001    1    1    2    0    0 -0.44855130927E+02 -0.73284833308E+02 -0.53778700331E+03  0.55002409992E+03  0.77000000000E+02 0.  0.
   -5000001    1    1    2    0    0  0.44855130927E+02  0.73284833308E+02 -0.16226555288E+03  0.19910238375E+03  0.77000000000E+02 0.  0.
<mgrwt>
<rscale>  0 0.26667753E+03</rscale>
<asrwt>0</asrwt>
<pdfrwt beam="1">  1        2 0.10351278E+00 0.26667753E+03</pdfrwt>
<pdfrwt beam="2">  1       -2 0.35052810E-02 0.26667753E+03</pdfrwt>
<totfact> 0.14670847E+04</totfact>
</mgrwt>
</event>
<event>
 4    1  0.6853809E-004  0.2497820E+03  0.7818608E-02  0.1113443E+00
          2   -1    0    0  501    0  0.00000000000E+00  0.00000000000E+00  0.96398309857E+03  0.96398309858E+03  0.25500000000E-02 0.  1.
         -2   -1    0    0    0  501 -0.00000000000E+00 -0.00000000000E+00 -0.16180540422E+02  0.16180540622E+02  0.25500000000E-02 0. -1.
    5000001    1    1    2    0    0 -0.93311462147E+02  0.31008478445E+02  0.47209071545E+03  0.48833103354E+03  0.77000000000E+02 0.  0.
   -5000001    1    1    2    0    0  0.93311462147E+02 -0.31008478445E+02  0.47571184270E+03  0.49183260565E+03  0.77000000000E+02 0.  0.
<mgrwt>
<rscale>  0 0.24978205E+03</rscale>
<asrwt>0</asrwt>
<pdfrwt beam="1">  1        2 0.13771187E+00 0.24978205E+03</pdfrwt>
<pdfrwt beam="2">  1       -2 0.23115059E-02 0.24978205E+03</pdfrwt>
<totfact> 0.18942957E+04</totfact>
</mgrwt>
</event>
<event>
 4    1  0.6853809E-004  0.3259560E+03  0.7818608E-02  0.1072940E+00
         -2   -1    0    0    0  501 -0.00000000000E+00  0.00000000000E+00  0.23339854288E+02  0.23339854427E+02  0.25500000000E-02 0. -1.
          2   -1    0    0  501    0  0.00000000000E+00 -0.00000000000E+00 -0.11380457403E+04  0.11380457403E+04  0.25500000000E-02 0.  1.
    5000001    1    1    2    0    0  0.11829203433E+03  0.81154569258E+02 -0.53123035562E+03  0.55562015822E+03  0.77000000000E+02 0.  0.
   -5000001    1    1    2    0    0 -0.11829203433E+03 -0.81154569258E+02 -0.58347553043E+03  0.60576543654E+03  0.77000000000E+02 0.  0.
<mgrwt>
<rscale>  0 0.32595596E+03</rscale>
<asrwt>0</asrwt>
<pdfrwt beam="1">  1        2 0.16257793E+00 0.32595596E+03</pdfrwt>
<pdfrwt beam="2">  1       -2 0.33342656E-02 0.32595596E+03</pdfrwt>
<totfact> 0.87989193E+03</totfact>
</mgrwt>
</event>
<event>
 4    1  0.6853809E-004  0.1977817E+03  0.7818608E-02  0.1151624E+00
          2   -1    0    0  501    0  0.00000000000E+00  0.00000000000E+00  0.23663746888E+04  0.23663746888E+04  0.25500000000E-02 0.  1.
         -2   -1    0    0    0  501 -0.00000000000E+00 -0.00000000000E+00 -0.41326517864E+01  0.41326525731E+01  0.25500000000E-02 0. -1.
    5000001    1    1    2    0    0  0.51006547655E+02 -0.16209547233E+02  0.80477221237E+03  0.81021708889E+03  0.77000000000E+02 0.  0.
   -5000001    1    1    2    0    0 -0.51006547655E+02  0.16209547233E+02  0.15574698246E+04  0.15602902525E+04  0.77000000000E+02 0.  0.
<mgrwt>
<rscale>  0 0.19778173E+03</rscale>
<asrwt>0</asrwt>
<pdfrwt beam="1">  1        2 0.33805324E+00 0.19778173E+03</pdfrwt>
<pdfrwt beam="2">  1       -2 0.59037939E-03 0.19778173E+03</pdfrwt>
<totfact> 0.26380449E+04</totfact>
</mgrwt>
</event>
<event>
 4    1  0.6853809E-004  0.6483182E+03  0.7818608E-02  0.9809940E-01
          2   -1    0    0  501    0  0.00000000000E+00  0.00000000000E+00  0.50380036113E+03  0.50380036113E+03  0.25500000000E-02 0.  1.
         -2   -1    0    0    0  501 -0.00000000000E+00 -0.00000000000E+00 -0.20857292505E+03  0.20857292506E+03  0.25500000000E-02 0. -1.
    5000001    1    1    2    0    0  0.85574333148E+02 -0.21117864948E+03 -0.91184861560E+02  0.25722182541E+03  0.77000000000E+02 0.  0.
   -5000001    1    1    2    0    0 -0.85574333148E+02  0.21117864948E+03  0.38641229764E+03  0.45515146079E+03  0.77000000000E+02 0.  0.
<mgrwt>
<rscale>  0 0.64831818E+03</rscale>
<asrwt>0</asrwt>
<pdfrwt beam="1">  1        2 0.71971479E-01 0.64831818E+03</pdfrwt>
<pdfrwt beam="2">  1       -2 0.29796133E-01 0.64831818E+03</pdfrwt>
<totfact> 0.69401433E+02</totfact>
</mgrwt>
</event>
<event>
 4    1  0.6853809E-004  0.6095017E+03  0.7818608E-02  0.9885887E-01
          2   -1    0    0  501    0  0.00000000000E+00  0.00000000000E+00  0.11957786094E+04  0.11957786094E+04  0.25500000000E-02 0.  1.
         -2   -1    0    0    0  501 -0.00000000000E+00 -0.00000000000E+00 -0.77667462242E+02  0.77667462284E+02  0.25500000000E-02 0. -1.
    5000001    1    1    2    0    0 -0.25790285480E+03 -0.13807644937E+03  0.63625038474E+03  0.70450162560E+03  0.77000000000E+02 0.  0.
   -5000001    1    1    2    0    0  0.25790285480E+03  0.13807644937E+03  0.48186076245E+03  0.56894444612E+03  0.77000000000E+02 0.  0.
<mgrwt>
<rscale>  0 0.60950173E+03</rscale>
<asrwt>0</asrwt>
<pdfrwt beam="1">  1        2 0.17082550E+00 0.60950173E+03</pdfrwt>
<pdfrwt beam="2">  1       -2 0.11095352E-01 0.60950173E+03</pdfrwt>
<totfact> 0.12543700E+03</totfact>
</mgrwt>
</event>
<event>
 4    1  0.6853809E-004  0.1917833E+03  0.7818608E-02  0.1156863E+00
          2   -1    0    0  501    0  0.00000000000E+00  0.00000000000E+00  0.10740465102E+03  0.10740465105E+03  0.25500000000E-02 0.  1.
         -2   -1    0    0    0  501 -0.00000000000E+00 -0.00000000000E+00 -0.85612746664E+02  0.85612746702E+02  0.25500000000E-02 0. -1.
    5000001    1    1    2    0    0 -0.32015215827E+02  0.46467321427E+02  0.17811193586E+01  0.95479622911E+02  0.77000000000E+02 0.  0.
   -5000001    1    1    2    0    0  0.32015215827E+02 -0.46467321427E+02  0.20010784998E+02  0.97537774843E+02  0.77000000000E+02 0.  0.
<mgrwt>
<rscale>  0 0.19178329E+03</rscale>
<asrwt>0</asrwt>
<pdfrwt beam="1">  1        2 0.15343522E-01 0.19178329E+03</pdfrwt>
<pdfrwt beam="2">  1       -2 0.12230392E-01 0.19178329E+03</pdfrwt>
<totfact> 0.17436179E+04</totfact>
</mgrwt>
</event>
<event>
 4    1  0.6853809E-004  0.3902018E+03  0.7818608E-02  0.1047226E+00
          2   -1    0    0  501    0  0.00000000000E+00  0.00000000000E+00  0.27293868492E+04  0.27293868492E+04  0.25500000000E-02 0.  1.
         -2   -1    0    0    0  501 -0.00000000000E+00 -0.00000000000E+00 -0.13946120340E+02  0.13946120573E+02  0.25500000000E-02 0. -1.
    5000001    1    1    2    0    0 -0.85951484242E+02  0.12554699663E+03  0.69127574531E+03  0.71199779639E+03  0.77000000000E+02 0.  0.
   -5000001    1    1    2    0    0  0.85951484242E+02 -0.12554699663E+03  0.20241649835E+04  0.20313351734E+04  0.77000000000E+02 0.  0.
<mgrwt>
<rscale>  0 0.39020178E+03</rscale>
<asrwt>0</asrwt>
<pdfrwt beam="1">  1        2 0.38991261E+00 0.39020178E+03</pdfrwt>
<pdfrwt beam="2">  1       -2 0.19923019E-02 0.39020178E+03</pdfrwt>
<totfact> 0.29623099E+03</totfact>
</mgrwt>
</event>
<event>
 4    1  0.6853809E-004  0.3772624E+03  0.7818608E-02  0.1051950E+00
         -2   -1    0    0    0  501 -0.00000000000E+00  0.00000000000E+00  0.80222618069E+02  0.80222618110E+02  0.25500000000E-02 0. -1.
          2   -1    0    0  501    0  0.00000000000E+00 -0.00000000000E+00 -0.44353740658E+03  0.44353740659E+03  0.25500000000E-02 0.  1.
    5000001    1    1    2    0    0 -0.93271611928E+02 -0.14473565495E+03 -0.17863845846E+03  0.25978587769E+03  0.77000000000E+02 0.  0.
   -5000001    1    1    2    0    0  0.93271611928E+02  0.14473565495E+03 -0.18467633005E+03  0.26397414701E+03  0.77000000000E+02 0.  0.
<mgrwt>
<rscale>  0 0.37726241E+03</rscale>
<asrwt>0</asrwt>
<pdfrwt beam="1">  1        2 0.63362486E-01 0.37726241E+03</pdfrwt>
<pdfrwt beam="2">  1       -2 0.11460374E-01 0.37726241E+03</pdfrwt>
<totfact> 0.41425930E+03</totfact>
</mgrwt>
</event>
<event>
 4    1  0.6853809E-004  0.3510676E+03  0.7818608E-02  0.1062178E+00
         -2   -1    0    0    0  501 -0.00000000000E+00  0.00000000000E+00  0.33490164221E+02  0.33490164318E+02  0.25500000000E-02 0. -1.
          2   -1    0    0  501    0  0.00000000000E+00 -0.00000000000E+00 -0.92003485997E+03  0.92003485997E+03  0.25500000000E-02 0.  1.
    5000001    1    1    2    0    0 -0.14413212094E+03 -0.15663735576E+02 -0.61209973092E+03  0.63373062218E+03  0.77000000000E+02 0.  0.
   -5000001    1    1    2    0    0  0.14413212094E+03  0.15663735576E+02 -0.27444496482E+03  0.31979440210E+03  0.77000000000E+02 0.  0.
<mgrwt>
<rscale>  0 0.35106762E+03</rscale>
<asrwt>0</asrwt>
<pdfrwt beam="1">  1        2 0.13143354E+00 0.35106762E+03</pdfrwt>
<pdfrwt beam="2">  1       -2 0.47843097E-02 0.35106762E+03</pdfrwt>
<totfact> 0.68567414E+03</totfact>
</mgrwt>
</event>
<event>
 4    1  0.6853809E-004  0.1751581E+03  0.7818608E-02  0.1172573E+00
         -2   -1    0    0    0  501 -0.00000000000E+00  0.00000000000E+00  0.78979039995E+01  0.78979044112E+01  0.25500000000E-02 0. -1.
          2   -1    0    0  501    0  0.00000000000E+00 -0.00000000000E+00 -0.97115549123E+03  0.97115549124E+03  0.25500000000E-02 0.  1.
    5000001    1    1    2    0    0  0.10566698010E+02  0.20317461132E+02 -0.28666369171E+03  0.29770711527E+03  0.77000000000E+02 0.  0.
   -5000001    1    1    2    0    0 -0.10566698010E+02 -0.20317461132E+02 -0.67659389552E+03  0.68134628038E+03  0.77000000000E+02 0.  0.
<mgrwt>
<rscale>  0 0.17515813E+03</rscale>
<asrwt>0</asrwt>
<pdfrwt beam="1">  1        2 0.13873642E+00 0.17515813E+03</pdfrwt>
<pdfrwt beam="2">  1       -2 0.11282726E-02 0.17515813E+03</pdfrwt>
<totfact> 0.52041500E+04</totfact>
</mgrwt>
</event>
<event>
 4    1  0.6853809E-004  0.2743131E+03  0.7818608E-02  0.1098836E+00
          2   -1    0    0  501    0  0.00000000000E+00  0.00000000000E+00  0.25772056318E+04  0.25772056318E+04  0.25500000000E-02 0.  1.
         -2   -1    0    0    0  501 -0.00000000000E+00 -0.00000000000E+00 -0.72993458707E+01  0.72993463161E+01  0.25500000000E-02 0. -1.
    5000001    1    1    2    0    0 -0.35428009273E+01  0.11303555363E+03  0.11939331211E+04  0.12017465978E+04  0.77000000000E+02 0.  0.
   -5000001    1    1    2    0    0  0.35428009273E+01 -0.11303555363E+03  0.13759731649E+04  0.13827583803E+04  0.77000000000E+02 0.  0.
<mgrwt>
<rscale>  0 0.27431308E+03</rscale>
<asrwt>0</asrwt>
<pdfrwt beam="1">  1        2 0.36817190E+00 0.27431308E+03</pdfrwt>
<pdfrwt beam="2">  1       -2 0.10427647E-02 0.27431308E+03</pdfrwt>
<totfact> 0.92011283E+03</totfact>
</mgrwt>
</event>
<event>
 4    1  0.6853809E-004  0.1953623E+03  0.7818608E-02  0.1153712E+00
         -2   -1    0    0    0  501 -0.00000000000E+00  0.00000000000E+00  0.14111882038E+02  0.14111882268E+02  0.25500000000E-02 0. -1.
          2   -1    0    0  501    0  0.00000000000E+00 -0.00000000000E+00 -0.67613985683E+03  0.67613985683E+03  0.25500000000E-02 0.  1.
    5000001    1    1    2    0    0 -0.38784510803E+02  0.45730786030E+02 -0.31641934829E+03  0.33112799194E+03  0.77000000000E+02 0.  0.
   -5000001    1    1    2    0    0  0.38784510803E+02 -0.45730786030E+02 -0.34560862650E+03  0.35912374716E+03  0.77000000000E+02 0.  0.
<mgrwt>
<rscale>  0 0.19536229E+03</rscale>
<asrwt>0</asrwt>
<pdfrwt beam="1">  1        2 0.96591387E-01 0.19536229E+03</pdfrwt>
<pdfrwt beam="2">  1       -2 0.20159836E-02 0.19536229E+03</pdfrwt>
<totfact> 0.35368523E+04</totfact>
</mgrwt>
</event>
<event>
 4    1  0.6853809E-004  0.2615449E+03  0.7818608E-02  0.1106219E+00
         -2   -1    0    0    0  501 -0.00000000000E+00  0.00000000000E+00  0.12197226038E+02  0.12197226304E+02  0.25500000000E-02 0. -1.
          2   -1    0    0  501    0  0.00000000000E+00 -0.00000000000E+00 -0.14020761449E+04  0.14020761449E+04  0.25500000000E-02 0.  1.
    5000001    1    1    2    0    0 -0.74532328384E+02  0.48485829332E+02 -0.10039890060E+04  0.10108555128E+04  0.77000000000E+02 0.  0.
   -5000001    1    1    2    0    0  0.74532328384E+02 -0.48485829332E+02 -0.38588991288E+03  0.40341785841E+03  0.77000000000E+02 0.  0.
<mgrwt>
<rscale>  0 0.26154495E+03</rscale>
<asrwt>0</asrwt>
<pdfrwt beam="1">  1        2 0.20029649E+00 0.26154495E+03</pdfrwt>
<pdfrwt beam="2">  1       -2 0.17424618E-02 0.26154495E+03</pdfrwt>
<totfact> 0.16532281E+04</totfact>
</mgrwt>
</event>
<event>
 4    1  0.6853809E-004  0.2055823E+03  0.7818608E-02  0.1145113E+00
         -2   -1    0    0    0  501 -0.00000000000E+00  0.00000000000E+00  0.43297972997E+01  0.43297980506E+01  0.25500000000E-02 0. -1.
          2   -1    0    0  501    0  0.00000000000E+00 -0.00000000000E+00 -0.24403026827E+04  0.24403026827E+04  0.25500000000E-02 0.  1.
    5000001    1    1    2    0    0 -0.50580826321E+02  0.21615421731E+02 -0.16953240235E+04  0.16979629534E+04  0.77000000000E+02 0.  0.
   -5000001    1    1    2    0    0  0.50580826321E+02 -0.21615421731E+02 -0.74064886187E+03  0.74666952733E+03  0.77000000000E+02 0.  0.
<mgrwt>
<rscale>  0 0.20558226E+03</rscale>
<asrwt>0</asrwt>
<pdfrwt beam="1">  1        2 0.34861379E+00 0.20558226E+03</pdfrwt>
<pdfrwt beam="2">  1       -2 0.61854409E-03 0.20558226E+03</pdfrwt>
<totfact> 0.22737711E+04</totfact>
</mgrwt>
</event>
<event>
 4    1  0.6853809E-004  0.3830248E+03  0.7818608E-02  0.1049821E+00
         -2   -1    0    0    0  501 -0.00000000000E+00  0.00000000000E+00  0.18021104917E+02  0.18021105097E+02  0.25500000000E-02 0. -1.
          2   -1    0    0  501    0  0.00000000000E+00 -0.00000000000E+00 -0.20352249431E+04  0.20352249431E+04  0.25500000000E-02 0.  1.
    5000001    1    1    2    0    0 -0.98238820104E+02 -0.11606452092E+03 -0.14767326401E+04  0.14865362858E+04  0.77000000000E+02 0.  0.
   -5000001    1    1    2    0    0  0.98238820104E+02  0.11606452092E+03 -0.54047119809E+03  0.56670976236E+03  0.77000000000E+02 0.  0.
<mgrwt>
<rscale>  0 0.38302482E+03</rscale>
<asrwt>0</asrwt>
<pdfrwt beam="1">  1        2 0.29074627E+00 0.38302482E+03</pdfrwt>
<pdfrwt beam="2">  1       -2 0.25744449E-02 0.38302482E+03</pdfrwt>
<totfact> 0.45136154E+03</totfact>
</mgrwt>
</event>
<event>
 4    1  0.6853809E-004  0.2680794E+03  0.7818608E-02  0.1102384E+00
          2   -1    0    0  501    0  0.00000000000E+00  0.00000000000E+00  0.11727243903E+04  0.11727243903E+04  0.25500000000E-02 0.  1.
         -2   -1    0    0    0  501 -0.00000000000E+00 -0.00000000000E+00 -0.15320425329E+02  0.15320425542E+02  0.25500000000E-02 0. -1.
    5000001    1    1    2    0    0  0.13113207462E+02  0.10234238213E+03  0.41337454575E+03  0.43295892931E+03  0.77000000000E+02 0.  0.
   -5000001    1    1    2    0    0 -0.13113207462E+02 -0.10234238213E+03  0.74402941925E+03  0.75508588658E+03  0.77000000000E+02 0.  0.
<mgrwt>
<rscale>  0 0.26807937E+03</rscale>
<asrwt>0</asrwt>
<pdfrwt beam="1">  1        2 0.16753204E+00 0.26807937E+03</pdfrwt>
<pdfrwt beam="2">  1       -2 0.21886324E-02 0.26807937E+03</pdfrwt>
<totfact> 0.15649629E+04</totfact>
</mgrwt>
</event>
<event>
 4    1  0.6853809E-004  0.2987083E+03  0.7818608E-02  0.1085888E+00
         -2   -1    0    0    0  501 -0.00000000000E+00  0.00000000000E+00  0.66483187930E+03  0.66483187931E+03  0.25500000000E-02 0. -1.
          2   -1    0    0  501    0  0.00000000000E+00 -0.00000000000E+00 -0.33552326431E+02  0.33552326528E+02  0.25500000000E-02 0.  1.
    5000001    1    1    2    0    0  0.81993384855E+02 -0.55542653701E+02  0.50514524810E+03  0.52048883102E+03  0.77000000000E+02 0.  0.
   -5000001    1    1    2    0    0 -0.81993384855E+02  0.55542653701E+02  0.12613430477E+03  0.17789537481E+03  0.77000000000E+02 0.  0.
<mgrwt>
<rscale>  0 0.29870826E+03</rscale>
<asrwt>0</asrwt>
<pdfrwt beam="1">  1        2 0.47931897E-02 0.29870826E+03</pdfrwt>
<pdfrwt beam="2">  1       -2 0.94975979E-01 0.29870826E+03</pdfrwt>
<totfact> 0.16110505E+03</totfact>
</mgrwt>
</event>
<event>
 4    1  0.6853809E-004  0.6974887E+03  0.7818608E-02  0.9721536E-01
         -2   -1    0    0    0  501 -0.00000000000E+00  0.00000000000E+00  0.17278063559E+03  0.17278063561E+03  0.25500000000E-02 0. -1.
          2   -1    0    0  501    0  0.00000000000E+00 -0.00000000000E+00 -0.70391358372E+03  0.70391358372E+03  0.25500000000E-02 0.  1.
    5000001    1    1    2    0    0  0.54646007711E+02  0.30591900845E+03 -0.43937311281E+03  0.54364543422E+03  0.77000000000E+02 0.  0.
   -5000001    1    1    2    0    0 -0.54646007711E+02 -0.30591900845E+03 -0.91759835307E+02  0.33304878511E+03  0.77000000000E+02 0.  0.
<mgrwt>
<rscale>  0 0.69748874E+03</rscale>
<asrwt>0</asrwt>
<pdfrwt beam="1">  1        2 0.10055908E+00 0.69748874E+03</pdfrwt>
<pdfrwt beam="2">  1       -2 0.24682948E-01 0.69748874E+03</pdfrwt>
<totfact> 0.65796830E+02</totfact>
</mgrwt>
</event>
<event>
 4    1  0.6853809E-004  0.2534163E+03  0.7818608E-02  0.1111165E+00
         -2   -1    0    0    0  501 -0.00000000000E+00  0.00000000000E+00  0.25540442893E+02  0.25540443021E+02  0.25500000000E-02 0. -1.
          2   -1    0    0  501    0  0.00000000000E+00 -0.00000000000E+00 -0.62860933167E+03  0.62860933168E+03  0.25500000000E-02 0.  1.
    5000001    1    1    2    0    0 -0.17759438565E+02  0.74218974549E+02 -0.47084466548E+03  0.48316410551E+03  0.77000000000E+02 0.  0.
   -5000001    1    1    2    0    0  0.17759438565E+02 -0.74218974549E+02 -0.13222422330E+03  0.17098566919E+03  0.77000000000E+02 0.  0.
<mgrwt>
<rscale>  0 0.25341634E+03</rscale>
<asrwt>0</asrwt>
<pdfrwt beam="1">  1        2 0.89801323E-01 0.25341634E+03</pdfrwt>
<pdfrwt beam="2">  1       -2 0.36486351E-02 0.25341634E+03</pdfrwt>
<totfact> 0.16284275E+04</totfact>
</mgrwt>
</event>
<event>
 4    1  0.6853809E-004  0.2111664E+03  0.7818608E-02  0.1140646E+00
         -2   -1    0    0    0  501 -0.00000000000E+00  0.00000000000E+00  0.15903272765E+03  0.15903272767E+03  0.25500000000E-02 0. -1.
          2   -1    0    0  501    0  0.00000000000E+00 -0.00000000000E+00 -0.70097576701E+02  0.70097576747E+02  0.25500000000E-02 0.  1.
    5000001    1    1    2    0    0 -0.51589712340E+02  0.48862561924E+02  0.58605187032E+02  0.12005255651E+03  0.77000000000E+02 0.  0.
   -5000001    1    1    2    0    0  0.51589712340E+02 -0.48862561924E+02  0.30329963913E+02  0.10907774791E+03  0.77000000000E+02 0.  0.
<mgrwt>
<rscale>  0 0.21116637E+03</rscale>
<asrwt>0</asrwt>
<pdfrwt beam="1">  1        2 0.10013940E-01 0.21116637E+03</pdfrwt>
<pdfrwt beam="2">  1       -2 0.22718961E-01 0.21116637E+03</pdfrwt>
<totfact> 0.10464716E+04</totfact>
</mgrwt>
</event>
<event>
 4    1  0.6853809E-004  0.4963765E+03  0.7818608E-02  0.1014729E+00
         -2   -1    0    0    0  501 -0.00000000000E+00  0.00000000000E+00  0.20300514851E+02  0.20300515012E+02  0.25500000000E-02 0. -1.
          2   -1    0    0  501    0  0.00000000000E+00 -0.00000000000E+00 -0.30342779329E+04  0.30342779329E+04  0.25500000000E-02 0.  1.
    5000001    1    1    2    0    0  0.21306941575E+03  0.35159907089E+02 -0.20918740510E+04  0.21044003517E+04  0.77000000000E+02 0.  0.
   -5000001    1    1    2    0    0 -0.21306941575E+03 -0.35159907089E+02 -0.92210336706E+03  0.95017809622E+03  0.77000000000E+02 0.  0.
<mgrwt>
<rscale>  0 0.49637649E+03</rscale>
<asrwt>0</asrwt>
<pdfrwt beam="1">  1        2 0.43346799E+00 0.49637649E+03</pdfrwt>
<pdfrwt beam="2">  1       -2 0.29000755E-02 0.49637649E+03</pdfrwt>
<totfact> 0.11533184E+03</totfact>
</mgrwt>
</event>
<event>
 4    1  0.6853809E-004  0.2359346E+03  0.7818608E-02  0.1122531E+00
          2   -1    0    0  501    0  0.00000000000E+00  0.00000000000E+00  0.59810221649E+02  0.59810221703E+02  0.25500000000E-02 0.  1.
         -2   -1    0    0    0  501 -0.00000000000E+00 -0.00000000000E+00 -0.23267399555E+03  0.23267399557E+03  0.25500000000E-02 0. -1.
    5000001    1    1    2    0    0  0.87146045993E+02  0.17880437849E+01 -0.61960999248E+02  0.13177934535E+03  0.77000000000E+02 0.  0.
   -5000001    1    1    2    0    0 -0.87146045993E+02 -0.17880437849E+01 -0.11090277466E+03  0.16070487192E+03  0.77000000000E+02 0.  0.
<mgrwt>
<rscale>  0 0.23593459E+03</rscale>
<asrwt>0</asrwt>
<pdfrwt beam="1">  1        2 0.85443175E-02 0.23593459E+03</pdfrwt>
<pdfrwt beam="2">  1       -2 0.33239142E-01 0.23593459E+03</pdfrwt>
<totfact> 0.65068214E+03</totfact>
</mgrwt>
</event>
<event>
 4    1  0.6853809E-004  0.2149951E+03  0.7818608E-02  0.1137670E+00
         -2   -1    0    0    0  501 -0.00000000000E+00  0.00000000000E+00  0.33023152472E+02  0.33023152571E+02  0.25500000000E-02 0. -1.
          2   -1    0    0  501    0  0.00000000000E+00 -0.00000000000E+00 -0.34992805423E+03  0.34992805424E+03  0.25500000000E-02 0.  1.
    5000001    1    1    2    0    0 -0.27969385933E+02 -0.66032487543E+02 -0.19764517618E+03  0.22390889135E+03  0.77000000000E+02 0.  0.
   -5000001    1    1    2    0    0  0.27969385933E+02  0.66032487543E+02 -0.11925972558E+03  0.15904231546E+03  0.77000000000E+02 0.  0.
<mgrwt>
<rscale>  0 0.21499514E+03</rscale>
<asrwt>0</asrwt>
<pdfrwt beam="1">  1        2 0.49989720E-01 0.21499514E+03</pdfrwt>
<pdfrwt beam="2">  1       -2 0.47175934E-02 0.21499514E+03</pdfrwt>
<totfact> 0.20860781E+04</totfact>
</mgrwt>
</event>
<event>
 4    1  0.6853809E-004  0.2765278E+03  0.7818608E-02  0.1097601E+00
          2   -1    0    0  501    0  0.00000000000E+00  0.00000000000E+00  0.78789689790E+03  0.78789689790E+03  0.25500000000E-02 0.  1.
         -2   -1    0    0    0  501 -0.00000000000E+00 -0.00000000000E+00 -0.24263206259E+02  0.24263206393E+02  0.25500000000E-02 0. -1.
    5000001    1    1    2    0    0 -0.90099246880E+02  0.70463785381E+02  0.35173801663E+03  0.37779842731E+03  0.77000000000E+02 0.  0.
   -5000001    1    1    2    0    0  0.90099246880E+02 -0.70463785381E+02  0.41189567501E+03  0.43436167698E+03  0.77000000000E+02 0.  0.
<mgrwt>
<rscale>  0 0.27652779E+03</rscale>
<asrwt>0</asrwt>
<pdfrwt beam="1">  1        2 0.11255670E+00 0.27652779E+03</pdfrwt>
<pdfrwt beam="2">  1       -2 0.34661722E-02 0.27652779E+03</pdfrwt>
<totfact> 0.13497248E+04</totfact>
</mgrwt>
</event>
<event>
 4    1  0.6853809E-004  0.2484864E+03  0.7818608E-02  0.1114265E+00
         -2   -1    0    0    0  501 -0.00000000000E+00  0.00000000000E+00  0.52482563823E+02  0.52482563885E+02  0.25500000000E-02 0. -1.
          2   -1    0    0  501    0  0.00000000000E+00 -0.00000000000E+00 -0.29412380107E+03  0.29412380108E+03  0.25500000000E-02 0.  1.
    5000001    1    1    2    0    0 -0.35936751196E+02  0.76271670367E+02 -0.52506789929E+02  0.12567728823E+03  0.77000000000E+02 0.  0.
   -5000001    1    1    2    0    0  0.35936751196E+02 -0.76271670367E+02 -0.18913444732E+03  0.22092907674E+03  0.77000000000E+02 0.  0.
<mgrwt>
<rscale>  0 0.24848639E+03</rscale>
<asrwt>0</asrwt>
<pdfrwt beam="1">  1        2 0.42017685E-01 0.24848639E+03</pdfrwt>
<pdfrwt beam="2">  1       -2 0.74975093E-02 0.24848639E+03</pdfrwt>
<totfact> 0.12481867E+04</totfact>
</mgrwt>
</event>
<event>
 4    1  0.6853809E-004  0.1889316E+03  0.7818608E-02  0.1159428E+00
          2   -1    0    0  501    0  0.00000000000E+00  0.00000000000E+00  0.83690720721E+03  0.83690720722E+03  0.25500000000E-02 0.  1.
         -2   -1    0    0    0  501 -0.00000000000E+00 -0.00000000000E+00 -0.10662820026E+02  0.10662820331E+02  0.25500000000E-02 0. -1.
    5000001    1    1    2    0    0  0.11912094846E+02 -0.52945033254E+02  0.38149058963E+03  0.39294929002E+03  0.77000000000E+02 0.  0.
   -5000001    1    1    2    0    0 -0.11912094846E+02  0.52945033254E+02  0.44475379756E+03  0.45462073753E+03  0.77000000000E+02 0.  0.
<mgrwt>
<rscale>  0 0.18893164E+03</rscale>
<asrwt>0</asrwt>
<pdfrwt beam="1">  1        2 0.11955817E+00 0.18893164E+03</pdfrwt>
<pdfrwt beam="2">  1       -2 0.15232600E-02 0.18893164E+03</pdfrwt>
<totfact> 0.41058124E+04</totfact>
</mgrwt>
</event>
<event>
 4    1  0.6853809E-004  0.2819122E+03  0.7818608E-02  0.1094649E+00
         -2   -1    0    0    0  501 -0.00000000000E+00  0.00000000000E+00  0.91927164268E+01  0.91927167804E+01  0.25500000000E-02 0. -1.
          2   -1    0    0  501    0  0.00000000000E+00 -0.00000000000E+00 -0.21613440565E+04  0.21613440565E+04  0.25500000000E-02 0.  1.
    5000001    1    1    2    0    0  0.79741117421E+01 -0.10153317043E+03 -0.15359169955E+04  0.15412146470E+04  0.77000000000E+02 0.  0.
   -5000001    1    1    2    0    0 -0.79741117421E+01  0.10153317043E+03 -0.61623434453E+03  0.62932212620E+03  0.77000000000E+02 0.  0.
<mgrwt>
<rscale>  0 0.28191221E+03</rscale>
<asrwt>0</asrwt>
<pdfrwt beam="1">  1        2 0.30876311E+00 0.28191221E+03</pdfrwt>
<pdfrwt beam="2">  1       -2 0.13132466E-02 0.28191221E+03</pdfrwt>
<totfact> 0.10563664E+04</totfact>
</mgrwt>
</event>
<event>
 4    1  0.6853809E-004  0.3139908E+03  0.7818608E-02  0.1078449E+00
          2   -1    0    0  501    0  0.00000000000E+00  0.00000000000E+00  0.43177563986E+02  0.43177564061E+02  0.25500000000E-02 0.  1.
         -2   -1    0    0    0  501 -0.00000000000E+00 -0.00000000000E+00 -0.57084177595E+03  0.57084177596E+03  0.25500000000E-02 0. -1.
    5000001    1    1    2    0    0 -0.10064056319E+03 -0.91711492671E+02 -0.23766619355E+03  0.28452370799E+03  0.77000000000E+02 0.  0.
   -5000001    1    1    2    0    0  0.10064056319E+03  0.91711492671E+02 -0.28999801841E+03  0.32949563203E+03  0.77000000000E+02 0.  0.
<mgrwt>
<rscale>  0 0.31399081E+03</rscale>
<asrwt>0</asrwt>
<pdfrwt beam="1">  1        2 0.61682238E-02 0.31399081E+03</pdfrwt>
<pdfrwt beam="2">  1       -2 0.81548821E-01 0.31399081E+03</pdfrwt>
<totfact> 0.16317133E+03</totfact>
</mgrwt>
</event>
<event>
 4    1  0.6853809E-004  0.3342049E+03  0.7818608E-02  0.1069291E+00
          2   -1    0    0  501    0  0.00000000000E+00  0.00000000000E+00  0.18628071485E+04  0.18628071485E+04  0.25500000000E-02 0.  1.
         -2   -1    0    0    0  501 -0.00000000000E+00 -0.00000000000E+00 -0.14989866331E+02  0.14989866548E+02  0.25500000000E-02 0. -1.
    5000001    1    1    2    0    0 -0.10103492147E+03  0.65662786888E+02  0.14096767787E+04  0.14169111749E+04  0.77000000000E+02 0.  0.
   -5000001    1    1    2    0    0  0.10103492147E+03 -0.65662786888E+02  0.43814050343E+03  0.46088584019E+03  0.77000000000E+02 0.  0.
<mgrwt>
<rscale>  0 0.33420491E+03</rscale>
<asrwt>0</asrwt>
<pdfrwt beam="1">  1        2 0.26611528E+00 0.33420491E+03</pdfrwt>
<pdfrwt beam="2">  1       -2 0.21414097E-02 0.33420491E+03</pdfrwt>
<totfact> 0.72199147E+03</totfact>
</mgrwt>
</event>
<event>
 4    1  0.6853809E-004  0.2310153E+03  0.7818608E-02  0.1125927E+00
         -2   -1    0    0    0  501 -0.00000000000E+00  0.00000000000E+00  0.25010158513E+02  0.25010158643E+02  0.25500000000E-02 0. -1.
          2   -1    0    0  501    0  0.00000000000E+00 -0.00000000000E+00 -0.53346402870E+03  0.53346402871E+03  0.25500000000E-02 0.  1.
    5000001    1    1    2    0    0  0.23019342930E+02  0.67604694713E+02 -0.37048558048E+03  0.38508291346E+03  0.77000000000E+02 0.  0.
   -5000001    1    1    2    0    0 -0.23019342930E+02 -0.67604694713E+02 -0.13796828971E+03  0.17339127389E+03  0.77000000000E+02 0.  0.
<mgrwt>
<rscale>  0 0.23101532E+03</rscale>
<asrwt>0</asrwt>
<pdfrwt beam="1">  1        2 0.76209140E-01 0.23101532E+03</pdfrwt>
<pdfrwt beam="2">  1       -2 0.35728801E-02 0.23101532E+03</pdfrwt>
<totfact> 0.20124586E+04</totfact>
</mgrwt>
</event>
<event>
 4    1  0.6853809E-004  0.1849692E+03  0.7818608E-02  0.1163079E+00
         -2   -1    0    0    0  501 -0.00000000000E+00  0.00000000000E+00  0.15984514441E+04  0.15984514441E+04  0.25500000000E-02 0. -1.
          2   -1    0    0  501    0  0.00000000000E+00 -0.00000000000E+00 -0.53510563019E+01  0.53510569095E+01  0.25500000000E-02 0.  1.
    5000001    1    1    2    0    0  0.26338393073E+01  0.45779562629E+02  0.99459400286E+03  0.99862352065E+03  0.77000000000E+02 0.  0.
   -5000001    1    1    2    0    0 -0.26338393073E+01 -0.45779562629E+02  0.59850638497E+03  0.60517898040E+03  0.77000000000E+02 0.  0.
<mgrwt>
<rscale>  0 0.18496923E+03</rscale>
<asrwt>0</asrwt>
<pdfrwt beam="1">  1        2 0.76443687E-03 0.18496923E+03</pdfrwt>
<pdfrwt beam="2">  1       -2 0.22835014E+00 0.18496923E+03</pdfrwt>
<totfact> 0.19915948E+03</totfact>
</mgrwt>
</event>
<event>
 4    1  0.6853809E-004  0.2618689E+03  0.7818608E-02  0.1106026E+00
         -2   -1    0    0    0  501 -0.00000000000E+00  0.00000000000E+00  0.13136986958E+02  0.13136987205E+02  0.25500000000E-02 0. -1.
          2   -1    0    0  501    0  0.00000000000E+00 -0.00000000000E+00 -0.13050051157E+04  0.13050051157E+04  0.25500000000E-02 0.  1.
    5000001    1    1    2    0    0  0.78579676314E+02  0.67397041421E+02 -0.75823046280E+03  0.76912909283E+03  0.77000000000E+02 0.  0.
   -5000001    1    1    2    0    0 -0.78579676314E+02 -0.67397041421E+02 -0.53363766599E+03  0.54901301012E+03  0.77000000000E+02 0.  0.
<mgrwt>
<rscale>  0 0.26186894E+03</rscale>
<asrwt>0</asrwt>
<pdfrwt beam="1">  1        2 0.18642922E+00 0.26186894E+03</pdfrwt>
<pdfrwt beam="2">  1       -2 0.18767133E-02 0.26186894E+03</pdfrwt>
<totfact> 0.16651915E+04</totfact>
</mgrwt>
</event>
<event>
 4    1  0.6853809E-004  0.3136335E+03  0.7818608E-02  0.1078617E+00
         -2   -1    0    0    0  501 -0.00000000000E+00  0.00000000000E+00  0.30931615732E+02  0.30931615837E+02  0.25500000000E-02 0. -1.
          2   -1    0    0  501    0  0.00000000000E+00 -0.00000000000E+00 -0.79502771752E+03  0.79502771753E+03  0.25500000000E-02 0.  1.
    5000001    1    1    2    0    0  0.11941173719E+03  0.56523592884E+02 -0.29050111524E+03  0.32828947209E+03  0.77000000000E+02 0.  0.
   -5000001    1    1    2    0    0 -0.11941173719E+03 -0.56523592884E+02 -0.47359498655E+03  0.49766986127E+03  0.77000000000E+02 0.  0.
<mgrwt>
<rscale>  0 0.31363349E+03</rscale>
<asrwt>0</asrwt>
<pdfrwt beam="1">  1        2 0.11357538E+00 0.31363349E+03</pdfrwt>
<pdfrwt beam="2">  1       -2 0.44188027E-02 0.31363349E+03</pdfrwt>
<totfact> 0.93011424E+03</totfact>
</mgrwt>
</event>
<event>
 4    1  0.6853809E-004  0.2781735E+03  0.7818608E-02  0.1096691E+00
          2   -1    0    0  501    0  0.00000000000E+00  0.00000000000E+00  0.11123101926E+03  0.11123101929E+03  0.25500000000E-02 0.  1.
         -2   -1    0    0    0  501 -0.00000000000E+00 -0.00000000000E+00 -0.17391848868E+03  0.17391848870E+03  0.25500000000E-02 0. -1.
    5000001    1    1    2    0    0 -0.50872959137E+02  0.55225740309E+02  0.59062021057E+02  0.12269988873E+03  0.77000000000E+02 0.  0.
   -5000001    1    1    2    0    0  0.50872959137E+02 -0.55225740309E+02 -0.12174949048E+03  0.16244961925E+03  0.77000000000E+02 0.  0.
<mgrwt>
<rscale>  0 0.27817355E+03</rscale>
<asrwt>0</asrwt>
<pdfrwt beam="1">  1        2 0.15890146E-01 0.27817355E+03</pdfrwt>
<pdfrwt beam="2">  1       -2 0.24845498E-01 0.27817355E+03</pdfrwt>
<totfact> 0.51956366E+03</totfact>
</mgrwt>
</event>
<event>
 4    1  0.6853809E-004  0.2042140E+03  0.7818608E-02  0.1146232E+00
         -2   -1    0    0    0  501 -0.00000000000E+00  0.00000000000E+00  0.18817207854E+02  0.18817208027E+02  0.25500000000E-02 0. -1.
          2   -1    0    0  501    0  0.00000000000E+00 -0.00000000000E+00 -0.55405854800E+03  0.55405854801E+03  0.25500000000E-02 0.  1.
    5000001    1    1    2    0    0 -0.24482553824E+02 -0.31736959613E+02 -0.11680747540E+03  0.14553218323E+03  0.77000000000E+02 0.  0.
   -5000001    1    1    2    0    0  0.24482553824E+02  0.31736959613E+02 -0.41843386475E+03  0.42734357280E+03  0.77000000000E+02 0.  0.
<mgrwt>
<rscale>  0 0.20421396E+03</rscale>
<asrwt>0</asrwt>
<pdfrwt beam="1">  1        2 0.79151211E-01 0.20421396E+03</pdfrwt>
<pdfrwt beam="2">  1       -2 0.26881729E-02 0.20421396E+03</pdfrwt>
<totfact> 0.29176349E+04</totfact>
</mgrwt>
</event>
<event>
 4    1  0.6853809E-004  0.2323911E+03  0.7818608E-02  0.1124968E+00
         -2   -1    0    0    0  501 -0.00000000000E+00  0.00000000000E+00  0.77422745066E+01  0.77422749265E+01  0.25500000000E-02 0. -1.
          2   -1    0    0  501    0  0.00000000000E+00 -0.00000000000E+00 -0.17438557467E+04  0.17438557467E+04  0.25500000000E-02 0.  1.
    5000001    1    1    2    0    0 -0.60416540475E+02  0.58952567548E+02 -0.10273854862E+04  0.10337192563E+04  0.77000000000E+02 0.  0.
   -5000001    1    1    2    0    0  0.60416540475E+02 -0.58952567548E+02 -0.70872798593E+03  0.71787876527E+03  0.77000000000E+02 0.  0.
<mgrwt>
<rscale>  0 0.23239114E+03</rscale>
<asrwt>0</asrwt>
<pdfrwt beam="1">  1        2 0.24912200E+00 0.23239114E+03</pdfrwt>
<pdfrwt beam="2">  1       -2 0.11060404E-02 0.23239114E+03</pdfrwt>
<totfact> 0.21548425E+04</totfact>
</mgrwt>
</event>
<event>
 4    1  0.6853809E-004  0.1833358E+03  0.7818608E-02  0.1164613E+00
         -2   -1    0    0    0  501 -0.00000000000E+00  0.00000000000E+00  0.64451680197E+02  0.64451680247E+02  0.25500000000E-02 0. -1.
          2   -1    0    0  501    0  0.00000000000E+00 -0.00000000000E+00 -0.13037682939E+03  0.13037682942E+03  0.25500000000E-02 0.  1.
    5000001    1    1    2    0    0  0.11837607975E+02 -0.22287996916E+02  0.12585935576E+02  0.82001765490E+02  0.77000000000E+02 0.  0.
   -5000001    1    1    2    0    0 -0.11837607975E+02  0.22287996916E+02 -0.78511084774E+02  0.11282674418E+03  0.77000000000E+02 0.  0.
<mgrwt>
<rscale>  0 0.18333582E+03</rscale>
<asrwt>0</asrwt>
<pdfrwt beam="1">  1        2 0.18625261E-01 0.18333582E+03</pdfrwt>
<pdfrwt beam="2">  1       -2 0.92073829E-02 0.18333582E+03</pdfrwt>
<totfact> 0.21772748E+04</totfact>
</mgrwt>
</event>
<event>
 4    1  0.6853809E-004  0.2019720E+03  0.7818608E-02  0.1148086E+00
          2   -1    0    0  501    0  0.00000000000E+00  0.00000000000E+00  0.33522148223E+03  0.33522148224E+03  0.25500000000E-02 0.  1.
         -2   -1    0    0    0  501 -0.00000000000E+00 -0.00000000000E+00 -0.30422191578E+02  0.30422191685E+02  0.25500000000E-02 0. -1.
    5000001    1    1    2    0    0  0.16565494272E+02  0.50220485480E+02  0.82926324736E+02  0.12490911935E+03  0.77000000000E+02 0.  0.
   -5000001    1    1    2    0    0 -0.16565494272E+02 -0.50220485480E+02  0.22187296591E+03  0.24073455457E+03  0.77000000000E+02 0.  0.
<mgrwt>
<rscale>  0 0.20197200E+03</rscale>
<asrwt>0</asrwt>
<pdfrwt beam="1">  1        2 0.47888785E-01 0.20197200E+03</pdfrwt>
<pdfrwt beam="2">  1       -2 0.43460272E-02 0.20197200E+03</pdfrwt>
<totfact> 0.24600089E+04</totfact>
</mgrwt>
</event>
<event>
 4    1  0.6853809E-004  0.2473472E+03  0.7818608E-02  0.1114993E+00
         -2   -1    0    0    0  501 -0.00000000000E+00  0.00000000000E+00  0.74524667890E+02  0.74524667934E+02  0.25500000000E-02 0. -1.
          2   -1    0    0  501    0  0.00000000000E+00 -0.00000000000E+00 -0.20523616493E+03  0.20523616494E+03  0.25500000000E-02 0.  1.
    5000001    1    1    2    0    0 -0.86013715457E+02  0.41417897272E+02 -0.83323196668E+02  0.14827527294E+03  0.77000000000E+02 0.  0.
   -5000001    1    1    2    0    0  0.86013715457E+02 -0.41417897272E+02 -0.47388300367E+02  0.13148555994E+03  0.77000000000E+02 0.  0.
<mgrwt>
<rscale>  0 0.24734718E+03</rscale>
<asrwt>0</asrwt>
<pdfrwt beam="1">  1        2 0.29319452E-01 0.24734718E+03</pdfrwt>
<pdfrwt beam="2">  1       -2 0.10646381E-01 0.24734718E+03</pdfrwt>
<totfact> 0.10619049E+04</totfact>
</mgrwt>
</event>
<event>
 4    1  0.6853809E-004  0.1885389E+03  0.7818608E-02  0.1159786E+00
          2   -1    0    0  501    0  0.00000000000E+00  0.00000000000E+00  0.27895582478E+03  0.27895582480E+03  0.25500000000E-02 0.  1.
         -2   -1    0    0    0  501 -0.00000000000E+00 -0.00000000000E+00 -0.31857108618E+02  0.31857108720E+02  0.25500000000E-02 0. -1.
    5000001    1    1    2    0    0  0.11685723307E+02  0.53083699357E+02  0.12055884054E+03  0.15302898189E+03  0.77000000000E+02 0.  0.
   -5000001    1    1    2    0    0 -0.11685723307E+02 -0.53083699357E+02  0.12653987562E+03  0.15778395162E+03  0.77000000000E+02 0.  0.
<mgrwt>
<rscale>  0 0.18853887E+03</rscale>
<asrwt>0</asrwt>
<pdfrwt beam="1">  1        2 0.39850830E-01 0.18853887E+03</pdfrwt>
<pdfrwt beam="2">  1       -2 0.45510158E-02 0.18853887E+03</pdfrwt>
<totfact> 0.27779629E+04</totfact>
</mgrwt>
</event>
<event>
 4    1  0.6853809E-004  0.2237016E+03  0.7818608E-02  0.1131153E+00
          2   -1    0    0  501    0  0.00000000000E+00  0.00000000000E+00  0.15437226439E+04  0.15437226439E+04  0.25500000000E-02 0.  1.
         -2   -1    0    0    0  501 -0.00000000000E+00 -0.00000000000E+00 -0.81041757423E+01  0.81041761435E+01  0.25500000000E-02 0. -1.
    5000001    1    1    2    0    0 -0.49554258104E+02  0.49773906796E+02  0.48615058334E+03  0.49719659691E+03  0.77000000000E+02 0.  0.
   -5000001    1    1    2    0    0  0.49554258104E+02 -0.49773906796E+02  0.10494678848E+04  0.10546302232E+04  0.77000000000E+02 0.  0.
<mgrwt>
<rscale>  0 0.22370159E+03</rscale>
<asrwt>0</asrwt>
<pdfrwt beam="1">  1        2 0.22053183E+00 0.22370159E+03</pdfrwt>
<pdfrwt beam="2">  1       -2 0.11577393E-02 0.22370159E+03</pdfrwt>
<totfact> 0.25264703E+04</totfact>
</mgrwt>
</event>
<event>
 4    1  0.6853809E-004  0.2153346E+03  0.7818608E-02  0.1137410E+00
          2   -1    0    0  501    0  0.00000000000E+00  0.00000000000E+00  0.15576609968E+04  0.15576609968E+04  0.25500000000E-02 0.  1.
         -2   -1    0    0    0  501 -0.00000000000E+00 -0.00000000000E+00 -0.74420826337E+01  0.74420830706E+01  0.25500000000E-02 0. -1.
    5000001    1    1    2    0    0 -0.47721636019E+02 -0.56025542818E+02  0.88934486583E+03  0.89570056736E+03  0.77000000000E+02 0.  0.
   -5000001    1    1    2    0    0  0.47721636019E+02  0.56025542818E+02  0.66087404831E+03  0.66940251249E+03  0.77000000000E+02 0.  0.
<mgrwt>
<rscale>  0 0.21533455E+03</rscale>
<asrwt>0</asrwt>
<pdfrwt beam="1">  1        2 0.22252303E+00 0.21533455E+03</pdfrwt>
<pdfrwt beam="2">  1       -2 0.10631546E-02 0.21533455E+03</pdfrwt>
<totfact> 0.28074023E+04</totfact>
</mgrwt>
</event>
<event>
 4    1  0.6853809E-004  0.2683502E+03  0.7818608E-02  0.1102228E+00
         -2   -1    0    0    0  501 -0.00000000000E+00  0.00000000000E+00  0.69069908012E+02  0.69069908059E+02  0.25500000000E-02 0. -1.
          2   -1    0    0  501    0  0.00000000000E+00 -0.00000000000E+00 -0.26064835131E+03  0.26064835132E+03  0.25500000000E-02 0.  1.
    5000001    1    1    2    0    0 -0.68587636380E+01 -0.10694990335E+03 -0.12559932259E+03  0.18217989544E+03  0.77000000000E+02 0.  0.
   -5000001    1    1    2    0    0  0.68587636380E+01  0.10694990335E+03 -0.65979120701E+02  0.14753836394E+03  0.77000000000E+02 0.  0.
<mgrwt>
<rscale>  0 0.26835020E+03</rscale>
<asrwt>0</asrwt>
<pdfrwt beam="1">  1        2 0.37235478E-01 0.26835020E+03</pdfrwt>
<pdfrwt beam="2">  1       -2 0.98671298E-02 0.26835020E+03</pdfrwt>
<totfact> 0.92742255E+03</totfact>
</mgrwt>
</event>
<event>
 4    1  0.6853809E-004  0.2655695E+03  0.7818608E-02  0.1103842E+00
         -2   -1    0    0    0  501 -0.00000000000E+00  0.00000000000E+00  0.26726810998E+02  0.26726811120E+02  0.25500000000E-02 0. -1.
          2   -1    0    0  501    0  0.00000000000E+00 -0.00000000000E+00 -0.65970442673E+03  0.65970442674E+03  0.25500000000E-02 0.  1.
    5000001    1    1    2    0    0 -0.43714224959E+02 -0.90909530670E+02 -0.21547431260E+03  0.25006730219E+03  0.77000000000E+02 0.  0.
   -5000001    1    1    2    0    0  0.43714224959E+02  0.90909530670E+02 -0.41750330313E+03  0.43636393567E+03  0.77000000000E+02 0.  0.
<mgrwt>
<rscale>  0 0.26556954E+03</rscale>
<asrwt>0</asrwt>
<pdfrwt beam="1">  1        2 0.94243480E-01 0.26556954E+03</pdfrwt>
<pdfrwt beam="2">  1       -2 0.38181163E-02 0.26556954E+03</pdfrwt>
<totfact> 0.14418074E+04</totfact>
</mgrwt>
</event>
<event>
 4    1  0.6853809E-004  0.4056730E+03  0.7818608E-02  0.1041833E+00
          2   -1    0    0  501    0  0.00000000000E+00  0.00000000000E+00  0.82910831123E+03  0.82910831124E+03  0.25500000000E-02 0.  1.
         -2   -1    0    0    0  501 -0.00000000000E+00 -0.00000000000E+00 -0.49622764011E+02  0.49622764076E+02  0.25500000000E-02 0. -1.
    5000001    1    1    2    0    0  0.11548116053E+03  0.64938117957E+02  0.67760516180E+03  0.69471621033E+03  0.77000000000E+02 0.  0.
   -5000001    1    1    2    0    0 -0.11548116053E+03 -0.64938117957E+02  0.10188038542E+03  0.18401486498E+03  0.77000000000E+02 0.  0.
<mgrwt>
<rscale>  0 0.40567300E+03</rscale>
<asrwt>0</asrwt>
<pdfrwt beam="1">  1        2 0.11844403E+00 0.40567300E+03</pdfrwt>
<pdfrwt beam="2">  1       -2 0.70889669E-02 0.40567300E+03</pdfrwt>
<totfact> 0.42853096E+03</totfact>
</mgrwt>
</event>
<event>
 4    1  0.6853809E-004  0.2220754E+03  0.7818608E-02  0.1132345E+00
         -2   -1    0    0    0  501 -0.00000000000E+00  0.00000000000E+00  0.83882617216E+01  0.83882621092E+01  0.25500000000E-02 0. -1.
          2   -1    0    0  501    0  0.00000000000E+00 -0.00000000000E+00 -0.14698356845E+04  0.14698356845E+04  0.25500000000E-02 0.  1.
    5000001    1    1    2    0    0 -0.20790039204E+02 -0.69988097799E+02 -0.94844083988E+03  0.95435820650E+03  0.77000000000E+02 0.  0.
   -5000001    1    1    2    0    0  0.20790039204E+02  0.69988097799E+02 -0.51300658287E+03  0.52386574008E+03  0.77000000000E+02 0.  0.
<mgrwt>
<rscale>  0 0.22207536E+03</rscale>
<asrwt>0</asrwt>
<pdfrwt beam="1">  1        2 0.20997636E+00 0.22207536E+03</pdfrwt>
<pdfrwt beam="2">  1       -2 0.11983241E-02 0.22207536E+03</pdfrwt>
<totfact> 0.26161806E+04</totfact>
</mgrwt>
</event>
<event>
 4    1  0.6853809E-004  0.1009714E+04  0.7818608E-02  0.9297954E-01
         -2   -1    0    0    0  501 -0.00000000000E+00  0.00000000000E+00  0.58947854853E+03  0.58947854854E+03  0.25500000000E-02 0.  1.
          2   -1    0    0  501    0  0.00000000000E+00 -0.00000000000E+00 -0.43238310103E+03  0.43238310103E+03  0.25500000000E-02 0. -1.
    5000001    1    1    2    0    0  0.43648392975E+02 -0.48682626977E+03 -0.22890705656E+02  0.49533623283E+03  0.77000000000E+02 0.  0.
   -5000001    1    1    2    0    0 -0.43648392975E+02  0.48682626977E+03  0.17998615316E+03  0.52652541674E+03  0.77000000000E+02 0.  0.
<mgrwt>
<rscale>  0 0.10097139E+04</rscale>
<asrwt>0</asrwt>
<pdfrwt beam="1">  1        2 0.61769014E-01 0.10097139E+04</pdfrwt>
<pdfrwt beam="2">  1       -2 0.84211221E-01 0.10097139E+04</pdfrwt>
<totfact> 0.97394422E+01</totfact>
</mgrwt>
</event>
<event>
 4    1  0.6853809E-004  0.6386707E+03  0.7818608E-02  0.9828273E-01
          2   -1    0    0  501    0  0.00000000000E+00  0.00000000000E+00  0.99557148904E+03  0.99557148905E+03  0.25500000000E-02 0.  1.
         -2   -1    0    0    0  501 -0.00000000000E+00 -0.00000000000E+00 -0.10242868584E+03  0.10242868587E+03  0.25500000000E-02 0. -1.
    5000001    1    1    2    0    0  0.28205032050E+03 -0.62723875195E+02  0.25390320492E+03  0.39227860671E+03  0.77000000000E+02 0.  0.
   -5000001    1    1    2    0    0 -0.28205032050E+03  0.62723875195E+02  0.63923959828E+03  0.70572156820E+03  0.77000000000E+02 0.  0.
<mgrwt>
<rscale>  0 0.63867074E+03</rscale>
<asrwt>0</asrwt>
<pdfrwt beam="1">  1        2 0.14222451E+00 0.63867074E+03</pdfrwt>
<pdfrwt beam="2">  1       -2 0.14632669E-01 0.63867074E+03</pdfrwt>
<totfact> 0.10374158E+03</totfact>
</mgrwt>
</event>
<event>
 4    1  0.6853809E-004  0.1998574E+03  0.7818608E-02  0.1149859E+00
         -2   -1    0    0    0  501 -0.00000000000E+00  0.00000000000E+00  0.77676192140E+01  0.77676196325E+01  0.25500000000E-02 0. -1.
          2   -1    0    0  501    0  0.00000000000E+00 -0.00000000000E+00 -0.12855607861E+04  0.12855607861E+04  0.25500000000E-02 0.  1.
    5000001    1    1    2    0    0  0.27114390536E+02  0.57631693848E+02 -0.63643559164E+03  0.64423277208E+03  0.77000000000E+02 0.  0.
   -5000001    1    1    2    0    0 -0.27114390536E+02 -0.57631693848E+02 -0.64135757521E+03  0.64909563362E+03  0.77000000000E+02 0.  0.
<mgrwt>
<rscale>  0 0.19985742E+03</rscale>
<asrwt>0</asrwt>
<pdfrwt beam="1">  1        2 0.18365141E+00 0.19985742E+03</pdfrwt>
<pdfrwt beam="2">  1       -2 0.11096607E-02 0.19985742E+03</pdfrwt>
<totfact> 0.36114395E+04</totfact>
</mgrwt>
</event>
<event>
 4    1  0.6853809E-004  0.4646043E+03  0.7818608E-02  0.1023454E+00
         -2   -1    0    0    0  501 -0.00000000000E+00  0.00000000000E+00  0.14178413763E+03  0.14178413766E+03  0.25500000000E-02 0. -1.
          2   -1    0    0  501    0  0.00000000000E+00 -0.00000000000E+00 -0.38060886545E+03  0.38060886546E+03  0.25500000000E-02 0.  1.
    5000001    1    1    2    0    0 -0.17875951604E+03 -0.97065955555E+02 -0.21116180797E+03  0.30314200212E+03  0.77000000000E+02 0.  0.
   -5000001    1    1    2    0    0  0.17875951604E+03  0.97065955555E+02 -0.27662919848E+02  0.21925100100E+03  0.77000000000E+02 0.  0.
<mgrwt>
<rscale>  0 0.46460435E+03</rscale>
<asrwt>0</asrwt>
<pdfrwt beam="1">  1        2 0.54372695E-01 0.46460435E+03</pdfrwt>
<pdfrwt beam="2">  1       -2 0.20254877E-01 0.46460435E+03</pdfrwt>
<totfact> 0.18954146E+03</totfact>
</mgrwt>
</event>
<event>
 4    1  0.6853809E-004  0.2090119E+03  0.7818608E-02  0.1142351E+00
         -2   -1    0    0    0  501 -0.00000000000E+00  0.00000000000E+00  0.23647831746E+01  0.23647845495E+01  0.25500000000E-02 0. -1.
          2   -1    0    0  501    0  0.00000000000E+00 -0.00000000000E+00 -0.46183911708E+04  0.46183911708E+04  0.25500000000E-02 0.  1.
    5000001    1    1    2    0    0 -0.46723735982E+02  0.19938438452E+02 -0.33937309161E+04  0.33949844152E+04  0.77000000000E+02 0.  0.
   -5000001    1    1    2    0    0  0.46723735982E+02 -0.19938438452E+02 -0.12222954716E+04  0.12257715402E+04  0.77000000000E+02 0.  0.
<mgrwt>
<rscale>  0 0.20901193E+03</rscale>
<asrwt>0</asrwt>
<pdfrwt beam="1">  1        2 0.65976438E+00 0.20901193E+03</pdfrwt>
<pdfrwt beam="2">  1       -2 0.33782923E-03 0.20901193E+03</pdfrwt>
<totfact> 0.27032300E+03</totfact>
</mgrwt>
</event>
<event>
 4    1  0.6853809E-004  0.3390410E+03  0.7818608E-02  0.1067205E+00
          2   -1    0    0  501    0  0.00000000000E+00  0.00000000000E+00  0.24742747640E+04  0.24742747640E+04  0.25500000000E-02 0.  1.
         -2   -1    0    0    0  501 -0.00000000000E+00 -0.00000000000E+00 -0.11614394118E+02  0.11614394398E+02  0.25500000000E-02 0. -1.
    5000001    1    1    2    0    0 -0.13385495595E+03  0.69605703725E+02  0.12811127330E+04  0.12922619463E+04  0.77000000000E+02 0.  0.
   -5000001    1    1    2    0    0  0.13385495595E+03 -0.69605703725E+02  0.11815476369E+04  0.11936272121E+04  0.77000000000E+02 0.  0.
<mgrwt>
<rscale>  0 0.33904102E+03</rscale>
<asrwt>0</asrwt>
<pdfrwt beam="1">  1        2 0.35346841E+00 0.33904102E+03</pdfrwt>
<pdfrwt beam="2">  1       -2 0.16591964E-02 0.33904102E+03</pdfrwt>
<totfact> 0.52497978E+03</totfact>
</mgrwt>
</event>
<event>
 4    1  0.6853809E-004  0.2204006E+03  0.7818608E-02  0.1133585E+00
          2   -1    0    0  501    0  0.00000000000E+00  0.00000000000E+00  0.44741775992E+03  0.44741775993E+03  0.25500000000E-02 0.  1.
         -2   -1    0    0    0  501 -0.00000000000E+00 -0.00000000000E+00 -0.27142666446E+02  0.27142666566E+02  0.25500000000E-02 0. -1.
    5000001    1    1    2    0    0 -0.63504100512E+02 -0.31498770468E+02  0.13585569118E+03  0.17149551641E+03  0.77000000000E+02 0.  0.
   -5000001    1    1    2    0    0  0.63504100512E+02  0.31498770468E+02  0.28441940229E+03  0.30306491008E+03  0.77000000000E+02 0.  0.
<mgrwt>
<rscale>  0 0.22040064E+03</rscale>
<asrwt>0</asrwt>
<pdfrwt beam="1">  1        2 0.63916821E-01 0.22040064E+03</pdfrwt>
<pdfrwt beam="2">  1       -2 0.38775239E-02 0.22040064E+03</pdfrwt>
<totfact> 0.21534419E+04</totfact>
</mgrwt>
</event>
<event>
 4    1  0.6853809E-004  0.2834900E+03  0.7818608E-02  0.1093798E+00
          2   -1    0    0  501    0  0.00000000000E+00  0.00000000000E+00  0.10211642721E+04  0.10211642721E+04  0.25500000000E-02 0.  1.
         -2   -1    0    0    0  501 -0.00000000000E+00 -0.00000000000E+00 -0.19675226148E+02  0.19675226313E+02  0.25500000000E-02 0. -1.
    5000001    1    1    2    0    0  0.21320173108E+01  0.84948857686E+02  0.80664605269E+03  0.81475622626E+03  0.77000000000E+02 0.  0.
   -5000001    1    1    2    0    0 -0.21320173108E+01 -0.84948857686E+02  0.19484299322E+03  0.22608327211E+03  0.77000000000E+02 0.  0.
<mgrwt>
<rscale>  0 0.28348995E+03</rscale>
<asrwt>0</asrwt>
<pdfrwt beam="1">  1        2 0.14588064E+00 0.28348995E+03</pdfrwt>
<pdfrwt beam="2">  1       -2 0.28107461E-02 0.28348995E+03</pdfrwt>
<totfact> 0.13189057E+04</totfact>
</mgrwt>
</event>
<event>
 4    1  0.6853809E-004  0.3101226E+03  0.7818608E-02  0.1080287E+00
          2   -1    0    0  501    0  0.00000000000E+00  0.00000000000E+00  0.20521219158E+03  0.20521219159E+03  0.25500000000E-02 0.  1.
         -2   -1    0    0    0  501 -0.00000000000E+00 -0.00000000000E+00 -0.11716658287E+03  0.11716658290E+03  0.25500000000E-02 0. -1.
    5000001    1    1    2    0    0 -0.10719696477E+03  0.54841076355E+02  0.10653487842E+03  0.17826220360E+03  0.77000000000E+02 0.  0.
   -5000001    1    1    2    0    0  0.10719696477E+03 -0.54841076355E+02 -0.18489269717E+02  0.14411657089E+03  0.77000000000E+02 0.  0.
<mgrwt>
<rscale>  0 0.31012263E+03</rscale>
<asrwt>0</asrwt>
<pdfrwt beam="1">  1        2 0.29316027E-01 0.31012263E+03</pdfrwt>
<pdfrwt beam="2">  1       -2 0.16738083E-01 0.31012263E+03</pdfrwt>
<totfact> 0.51180547E+03</totfact>
</mgrwt>
</event>
<event>
 4    1  0.6853809E-004  0.2003473E+03  0.7818608E-02  0.1149446E+00
         -2   -1    0    0    0  501 -0.00000000000E+00  0.00000000000E+00  0.44814807355E+01  0.44814814610E+01  0.25500000000E-02 0. -1.
          2   -1    0    0  501    0  0.00000000000E+00 -0.00000000000E+00 -0.22391608452E+04  0.22391608452E+04  0.25500000000E-02 0.  1.
    5000001    1    1    2    0    0  0.11917573599E+02  0.51689257138E+02 -0.71481463682E+03  0.72090413570E+03  0.77000000000E+02 0.  0.
   -5000001    1    1    2    0    0 -0.11917573599E+02 -0.51689257138E+02 -0.15198647277E+04  0.15227381910E+04  0.77000000000E+02 0.  0.
<mgrwt>
<rscale>  0 0.20034727E+03</rscale>
<asrwt>0</asrwt>
<pdfrwt beam="1">  1        2 0.31987940E+00 0.20034727E+03</pdfrwt>
<pdfrwt beam="2">  1       -2 0.64021302E-03 0.20034727E+03</pdfrwt>
<totfact> 0.27100347E+04</totfact>
</mgrwt>
</event>
<event>
 4    1  0.6853809E-004  0.1854763E+03  0.7818608E-02  0.1162606E+00
         -2   -1    0    0    0  501 -0.00000000000E+00  0.00000000000E+00  0.54075226512E+01  0.54075232524E+01  0.25500000000E-02 0. -1.
          2   -1    0    0  501    0  0.00000000000E+00 -0.00000000000E+00 -0.15904439406E+04  0.15904439406E+04  0.25500000000E-02 0.  1.
    5000001    1    1    2    0    0 -0.28734013018E+02  0.39202696020E+02 -0.94373151993E+03  0.94811427401E+03  0.77000000000E+02 0.  0.
   -5000001    1    1    2    0    0  0.28734013018E+02 -0.39202696020E+02 -0.64130489800E+03  0.64773718982E+03  0.77000000000E+02 0.  0.
<mgrwt>
<rscale>  0 0.18547627E+03</rscale>
<asrwt>0</asrwt>
<pdfrwt beam="1">  1        2 0.22720598E+00 0.18547627E+03</pdfrwt>
<pdfrwt beam="2">  1       -2 0.77250430E-03 0.18547627E+03</pdfrwt>
<totfact> 0.42449980E+04</totfact>
</mgrwt>
</event>
<event>
 4    1  0.6853809E-004  0.2439068E+03  0.7818608E-02  0.1117217E+00
          2   -1    0    0  501    0  0.00000000000E+00  0.00000000000E+00  0.85495742534E+02  0.85495742572E+02  0.25500000000E-02 0.  1.
         -2   -1    0    0    0  501 -0.00000000000E+00 -0.00000000000E+00 -0.17395750595E+03  0.17395750597E+03  0.25500000000E-02 0. -1.
    5000001    1    1    2    0    0 -0.26929262672E+02 -0.72004938541E+02 -0.10282091358E+03  0.14970316173E+03  0.77000000000E+02 0.  0.
   -5000001    1    1    2    0    0  0.26929262672E+02  0.72004938541E+02  0.14359150161E+02  0.10975008681E+03  0.77000000000E+02 0.  0.
<mgrwt>
<rscale>  0 0.24390675E+03</rscale>
<asrwt>0</asrwt>
<pdfrwt beam="1">  1        2 0.12213678E-01 0.24390675E+03</pdfrwt>
<pdfrwt beam="2">  1       -2 0.24851072E-01 0.24390675E+03</pdfrwt>
<totfact> 0.70731374E+03</totfact>
</mgrwt>
</event>
<event>
 4    1  0.6853809E-004  0.2105271E+03  0.7818608E-02  0.1141149E+00
         -2   -1    0    0    0  501 -0.00000000000E+00  0.00000000000E+00  0.12671079161E+02  0.12671079418E+02  0.25500000000E-02 0. -1.
          2   -1    0    0  501    0  0.00000000000E+00 -0.00000000000E+00 -0.87446510175E+03  0.87446510176E+03  0.25500000000E-02 0.  1.
    5000001    1    1    2    0    0  0.43497897994E+02  0.55262391575E+02 -0.49129202261E+03  0.50223784259E+03  0.77000000000E+02 0.  0.
   -5000001    1    1    2    0    0 -0.43497897994E+02 -0.55262391575E+02 -0.37050199998E+03  0.38489833858E+03  0.77000000000E+02 0.  0.
<mgrwt>
<rscale>  0 0.21052712E+03</rscale>
<asrwt>0</asrwt>
<pdfrwt beam="1">  1        2 0.12492355E+00 0.21052712E+03</pdfrwt>
<pdfrwt beam="2">  1       -2 0.18101547E-02 0.21052712E+03</pdfrwt>
<totfact> 0.30469469E+04</totfact>
</mgrwt>
</event>
<event>
 4    1  0.6853809E-004  0.3426325E+03  0.7818608E-02  0.1065680E+00
          2   -1    0    0  501    0  0.00000000000E+00  0.00000000000E+00  0.36335366161E+03  0.36335366162E+03  0.25500000000E-02 0.  1.
         -2   -1    0    0    0  501 -0.00000000000E+00 -0.00000000000E+00 -0.80773246012E+02  0.80773246052E+02  0.25500000000E-02 0. -1.
    5000001    1    1    2    0    0  0.71777286934E+02  0.91927620941E+02  0.26972448904E+03  0.30378111593E+03  0.77000000000E+02 0.  0.
   -5000001    1    1    2    0    0 -0.71777286934E+02 -0.91927620941E+02  0.12855926565E+02  0.14034579174E+03  0.77000000000E+02 0.  0.
<mgrwt>
<rscale>  0 0.34263248E+03</rscale>
<asrwt>0</asrwt>
<pdfrwt beam="1">  1        2 0.51907666E-01 0.34263248E+03</pdfrwt>
<pdfrwt beam="2">  1       -2 0.11539035E-01 0.34263248E+03</pdfrwt>
<totfact> 0.50835954E+03</totfact>
</mgrwt>
</event>
<event>
 4    1  0.6853809E-004  0.2850762E+03  0.7818608E-02  0.1092948E+00
          2   -1    0    0  501    0  0.00000000000E+00  0.00000000000E+00  0.16843740354E+04  0.16843740354E+04  0.25500000000E-02 0.  1.
         -2   -1    0    0    0  501 -0.00000000000E+00 -0.00000000000E+00 -0.12062116549E+02  0.12062116818E+02  0.25500000000E-02 0. -1.
    5000001    1    1    2    0    0  0.76831516950E+02  0.65955368473E+02  0.45349845690E+03  0.47100216883E+03  0.77000000000E+02 0.  0.
   -5000001    1    1    2    0    0 -0.76831516950E+02 -0.65955368473E+02  0.12188134619E+04  0.12254339834E+04  0.77000000000E+02 0.  0.
<mgrwt>
<rscale>  0 0.28507624E+03</rscale>
<asrwt>0</asrwt>
<pdfrwt beam="1">  1        2 0.24062486E+00 0.28507624E+03</pdfrwt>
<pdfrwt beam="2">  1       -2 0.17231595E-02 0.28507624E+03</pdfrwt>
<totfact> 0.12153117E+04</totfact>
</mgrwt>
</event>
<event>
 4    1  0.6853809E-004  0.3329518E+03  0.7818608E-02  0.1069838E+00
          2   -1    0    0  501    0  0.00000000000E+00  0.00000000000E+00  0.23294745341E+02  0.23294745480E+02  0.25500000000E-02 0.  1.
         -2   -1    0    0    0  501 -0.00000000000E+00 -0.00000000000E+00 -0.11897202582E+04  0.11897202582E+04  0.25500000000E-02 0. -1.
    5000001    1    1    2    0    0  0.10000930353E+03  0.72993926586E+02 -0.29050009165E+03  0.32503734764E+03  0.77000000000E+02 0.  0.
   -5000001    1    1    2    0    0 -0.10000930353E+03 -0.72993926586E+02 -0.87592542121E+03  0.88797765605E+03  0.77000000000E+02 0.  0.
<mgrwt>
<rscale>  0 0.33295183E+03</rscale>
<asrwt>0</asrwt>
<pdfrwt beam="1">  1        2 0.33278215E-02 0.33295183E+03</pdfrwt>
<pdfrwt beam="2">  1       -2 0.16996000E+00 0.33295183E+03</pdfrwt>
<totfact> 0.62218442E+02</totfact>
</mgrwt>
</event>
<event>
 4    1  0.6853809E-004  0.2861711E+03  0.7818608E-02  0.1092365E+00
         -2   -1    0    0    0  501 -0.00000000000E+00  0.00000000000E+00  0.73315663344E+02  0.73315663389E+02  0.25500000000E-02 0. -1.
          2   -1    0    0  501    0  0.00000000000E+00 -0.00000000000E+00 -0.27925097471E+03  0.27925097472E+03  0.25500000000E-02 0.  1.
    5000001    1    1    2    0    0 -0.96692603633E+02  0.34675068321E+02 -0.18081541797E+03  0.22175444829E+03  0.77000000000E+02 0.  0.
   -5000001    1    1    2    0    0  0.96692603633E+02 -0.34675068321E+02 -0.25119893390E+02  0.13081218982E+03  0.77000000000E+02 0.  0.
<mgrwt>
<rscale>  0 0.28617107E+03</rscale>
<asrwt>0</asrwt>
<pdfrwt beam="1">  1        2 0.39892996E-01 0.28617107E+03</pdfrwt>
<pdfrwt beam="2">  1       -2 0.10473666E-01 0.28617107E+03</pdfrwt>
<totfact> 0.78493370E+03</totfact>
</mgrwt>
</event>
<event>
 4    1  0.6853809E-004  0.3212945E+03  0.7818608E-02  0.1075055E+00
          2   -1    0    0  501    0  0.00000000000E+00  0.00000000000E+00  0.57379260701E+02  0.57379260757E+02  0.25500000000E-02 0.  1.
         -2   -1    0    0    0  501 -0.00000000000E+00 -0.00000000000E+00 -0.44977122378E+03  0.44977122379E+03  0.25500000000E-02 0. -1.
    5000001    1    1    2    0    0 -0.11645420903E+03 -0.29338785196E+02 -0.79601388206E+02  0.16336379073E+03  0.77000000000E+02 0.  0.
   -5000001    1    1    2    0    0  0.11645420903E+03  0.29338785196E+02 -0.31279057488E+03  0.34378669382E+03  0.77000000000E+02 0.  0.
<mgrwt>
<rscale>  0 0.32129451E+03</rscale>
<asrwt>0</asrwt>
<pdfrwt beam="1">  1        2 0.81970375E-02 0.32129451E+03</pdfrwt>
<pdfrwt beam="2">  1       -2 0.64253030E-01 0.32129451E+03</pdfrwt>
<totfact> 0.18945271E+03</totfact>
</mgrwt>
</event>
<event>
 4    1  0.6853809E-004  0.6155575E+03  0.7818608E-02  0.9873645E-01
          2   -1    0    0  501    0  0.00000000000E+00  0.00000000000E+00  0.15894704186E+04  0.15894704186E+04  0.25500000000E-02 0.  1.
         -2   -1    0    0    0  501 -0.00000000000E+00 -0.00000000000E+00 -0.59597061948E+02  0.59597062003E+02  0.25500000000E-02 0. -1.
    5000001    1    1    2    0    0  0.23626892856E+03 -0.16797567827E+03  0.58010766125E+03  0.65306411150E+03  0.77000000000E+02 0.  0.
   -5000001    1    1    2    0    0 -0.23626892856E+03  0.16797567827E+03  0.94976569545E+03  0.99600336915E+03  0.77000000000E+02 0.  0.
<mgrwt>
<rscale>  0 0.61555753E+03</rscale>
<asrwt>0</asrwt>
<pdfrwt beam="1">  1        2 0.22706720E+00 0.61555753E+03</pdfrwt>
<pdfrwt beam="2">  1       -2 0.85138662E-02 0.61555753E+03</pdfrwt>
<totfact> 0.11860396E+03</totfact>
</mgrwt>
</event>
<event>
 4    1  0.6853809E-004  0.3777504E+03  0.7818608E-02  0.1051768E+00
         -2   -1    0    0    0  501 -0.00000000000E+00  0.00000000000E+00  0.18516737764E+02  0.18516737940E+02  0.25500000000E-02 0. -1.
          2   -1    0    0  501    0  0.00000000000E+00 -0.00000000000E+00 -0.19265730467E+04  0.19265730467E+04  0.25500000000E-02 0.  1.
    5000001    1    1    2    0    0  0.79001721030E+02 -0.78576554490E+02 -0.27619126014E+03  0.30761365220E+03  0.77000000000E+02 0.  0.
   -5000001    1    1    2    0    0 -0.79001721030E+02  0.78576554490E+02 -0.16318650487E+04  0.16374761324E+04  0.77000000000E+02 0.  0.
<mgrwt>
<rscale>  0 0.37775044E+03</rscale>
<asrwt>0</asrwt>
<pdfrwt beam="1">  1        2 0.27522459E+00 0.37775044E+03</pdfrwt>
<pdfrwt beam="2">  1       -2 0.26452495E-02 0.37775044E+03</pdfrwt>
<totfact> 0.49042413E+03</totfact>
</mgrwt>
</event>
<event>
 4    1  0.6853809E-004  0.2479885E+03  0.7818608E-02  0.1114583E+00
         -2   -1    0    0    0  501 -0.00000000000E+00  0.00000000000E+00  0.25407437358E+02  0.25407437486E+02  0.25500000000E-02 0. -1.
          2   -1    0    0  501    0  0.00000000000E+00 -0.00000000000E+00 -0.60512103280E+03  0.60512103281E+03  0.25500000000E-02 0.  1.
    5000001    1    1    2    0    0 -0.39372100773E+02 -0.88835157374E+02 -0.28494807269E+03  0.31075110882E+03  0.77000000000E+02 0.  0.
   -5000001    1    1    2    0    0  0.39372100773E+02  0.88835157374E+02 -0.29476552276E+03  0.31977736147E+03  0.77000000000E+02 0.  0.
<mgrwt>
<rscale>  0 0.24798851E+03</rscale>
<asrwt>0</asrwt>
<pdfrwt beam="1">  1        2 0.86445853E-01 0.24798851E+03</pdfrwt>
<pdfrwt beam="2">  1       -2 0.36296343E-02 0.24798851E+03</pdfrwt>
<totfact> 0.17124781E+04</totfact>
</mgrwt>
</event>
<event>
 4    1  0.6853809E-004  0.2239605E+03  0.7818608E-02  0.1130964E+00
         -2   -1    0    0    0  501 -0.00000000000E+00  0.00000000000E+00  0.24661327152E+02  0.24661327284E+02  0.25500000000E-02 0. -1.
          2   -1    0    0  501    0  0.00000000000E+00 -0.00000000000E+00 -0.50847105074E+03  0.50847105075E+03  0.25500000000E-02 0.  1.
    5000001    1    1    2    0    0 -0.56664867217E+01 -0.75445137657E+02 -0.17102850206E+03  0.20224694407E+03  0.77000000000E+02 0.  0.
   -5000001    1    1    2    0    0  0.56664867217E+01  0.75445137657E+02 -0.31278122153E+03  0.33088543396E+03  0.77000000000E+02 0.  0.
<mgrwt>
<rscale>  0 0.22396045E+03</rscale>
<asrwt>0</asrwt>
<pdfrwt beam="1">  1        2 0.72638715E-01 0.22396045E+03</pdfrwt>
<pdfrwt beam="2">  1       -2 0.35230471E-02 0.22396045E+03</pdfrwt>
<totfact> 0.21629196E+04</totfact>
</mgrwt>
</event>
<event>
 4    1  0.6853809E-004  0.3728859E+03  0.7818608E-02  0.1053595E+00
         -2   -1    0    0    0  501 -0.00000000000E+00  0.00000000000E+00  0.43122396514E+02  0.43122396589E+02  0.25500000000E-02 0. -1.
          2   -1    0    0  501    0  0.00000000000E+00 -0.00000000000E+00 -0.80610021046E+03  0.80610021047E+03  0.25500000000E-02 0.  1.
    5000001    1    1    2    0    0  0.12141305736E+03  0.11866353780E+03 -0.38862103168E+03  0.43101910859E+03  0.77000000000E+02 0.  0.
   -5000001    1    1    2    0    0 -0.12141305736E+03 -0.11866353780E+03 -0.37435678227E+03  0.41820349847E+03  0.77000000000E+02 0.  0.
<mgrwt>
<rscale>  0 0.37288590E+03</rscale>
<asrwt>0</asrwt>
<pdfrwt beam="1">  1        2 0.11515716E+00 0.37288590E+03</pdfrwt>
<pdfrwt beam="2">  1       -2 0.61603429E-02 0.37288590E+03</pdfrwt>
<totfact> 0.55184984E+03</totfact>
</mgrwt>
</event>
<event>
 4    1  0.6853809E-004  0.2449553E+03  0.7818608E-02  0.1116535E+00
         -2   -1    0    0    0  501 -0.00000000000E+00  0.00000000000E+00  0.36053881278E+01  0.36053890296E+01  0.25500000000E-02 0. -1.
          2   -1    0    0  501    0  0.00000000000E+00 -0.00000000000E+00 -0.41606544333E+04  0.41606544333E+04  0.25500000000E-02 0.  1.
    5000001    1    1    2    0    0 -0.41076490517E+02  0.63027697266E+02 -0.10855092338E+04  0.10908341145E+04  0.77000000000E+02 0.  0.
   -5000001    1    1    2    0    0  0.41076490517E+02 -0.63027697266E+02 -0.30715398114E+04  0.30734257079E+04  0.77000000000E+02 0.  0.
<mgrwt>
<rscale>  0 0.24495531E+03</rscale>
<asrwt>0</asrwt>
<pdfrwt beam="1">  1        2 0.59437613E+00 0.24495531E+03</pdfrwt>
<pdfrwt beam="2">  1       -2 0.51505818E-03 0.24495531E+03</pdfrwt>
<totfact> 0.31656688E+03</totfact>
</mgrwt>
</event>
<event>
 4    1  0.6853809E-004  0.2737711E+03  0.7818608E-02  0.1099141E+00
          2   -1    0    0  501    0  0.00000000000E+00  0.00000000000E+00  0.12940883149E+04  0.12940883149E+04  0.25500000000E-02 0.  1.
         -2   -1    0    0    0  501 -0.00000000000E+00 -0.00000000000E+00 -0.14479420491E+02  0.14479420716E+02  0.25500000000E-02 0. -1.
    5000001    1    1    2    0    0 -0.36577731489E+02  0.10331820258E+03  0.77466459574E+03  0.78615953681E+03  0.77000000000E+02 0.  0.
   -5000001    1    1    2    0    0  0.36577731489E+02 -0.10331820258E+03  0.50494429869E+03  0.52240819882E+03  0.77000000000E+02 0.  0.
<mgrwt>
<rscale>  0 0.27377107E+03</rscale>
<asrwt>0</asrwt>
<pdfrwt beam="1">  1        2 0.18486975E+00 0.27377107E+03</pdfrwt>
<pdfrwt beam="2">  1       -2 0.20684888E-02 0.27377107E+03</pdfrwt>
<totfact> 0.14648444E+04</totfact>
</mgrwt>
</event>
<event>
 4    1  0.6853809E-004  0.2415320E+03  0.7818608E-02  0.1118776E+00
          2   -1    0    0  501    0  0.00000000000E+00  0.00000000000E+00  0.70597894202E+03  0.70597894202E+03  0.25500000000E-02 0.  1.
         -2   -1    0    0    0  501 -0.00000000000E+00 -0.00000000000E+00 -0.20658443290E+02  0.20658443447E+02  0.25500000000E-02 0. -1.
    5000001    1    1    2    0    0  0.74641192636E+02  0.55507124081E+02  0.34793794742E+03  0.36829629881E+03  0.77000000000E+02 0.  0.
   -5000001    1    1    2    0    0 -0.74641192636E+02 -0.55507124081E+02  0.33738255131E+03  0.35834108666E+03  0.77000000000E+02 0.  0.
<mgrwt>
<rscale>  0 0.24153199E+03</rscale>
<asrwt>0</asrwt>
<pdfrwt beam="1">  1        2 0.10085411E+00 0.24153199E+03</pdfrwt>
<pdfrwt beam="2">  1       -2 0.29512068E-02 0.24153199E+03</pdfrwt>
<totfact> 0.19457624E+04</totfact>
</mgrwt>
</event>
<event>
 4    1  0.6853809E-004  0.2509938E+03  0.7818608E-02  0.1112678E+00
         -2   -1    0    0    0  501 -0.00000000000E+00  0.00000000000E+00  0.52878078511E+01  0.52878084659E+01  0.25500000000E-02 0. -1.
          2   -1    0    0  501    0  0.00000000000E+00 -0.00000000000E+00 -0.29784498128E+04  0.29784498128E+04  0.25500000000E-02 0.  1.
    5000001    1    1    2    0    0 -0.56158799063E+02 -0.37061643939E+02 -0.62170769690E+03  0.63006097843E+03  0.77000000000E+02 0.  0.
   -5000001    1    1    2    0    0  0.56158799063E+02  0.37061643939E+02 -0.23514543080E+04  0.23536766428E+04  0.77000000000E+02 0.  0.
<mgrwt>
<rscale>  0 0.25099379E+03</rscale>
<asrwt>0</asrwt>
<pdfrwt beam="1">  1        2 0.42549175E+00 0.25099379E+03</pdfrwt>
<pdfrwt beam="2">  1       -2 0.75540308E-03 0.25099379E+03</pdfrwt>
<totfact> 0.91277785E+03</totfact>
</mgrwt>
</event>
<event>
 4    1  0.6853809E-004  0.2106628E+03  0.7818608E-02  0.1141042E+00
          2   -1    0    0  501    0  0.00000000000E+00  0.00000000000E+00  0.21914195726E+02  0.21914195874E+02  0.25500000000E-02 0.  1.
         -2   -1    0    0    0  501 -0.00000000000E+00 -0.00000000000E+00 -0.50627907747E+03  0.50627907748E+03  0.25500000000E-02 0. -1.
    5000001    1    1    2    0    0 -0.66490977653E+02  0.12541349380E+02 -0.30294814137E+03  0.31982012431E+03  0.77000000000E+02 0.  0.
   -5000001    1    1    2    0    0  0.66490977653E+02 -0.12541349380E+02 -0.18141674038E+03  0.20837314904E+03  0.77000000000E+02 0.  0.
<mgrwt>
<rscale>  0 0.21066275E+03</rscale>
<asrwt>0</asrwt>
<pdfrwt beam="1">  1        2 0.31305997E-02 0.21066275E+03</pdfrwt>
<pdfrwt beam="2">  1       -2 0.72325576E-01 0.21066275E+03</pdfrwt>
<totfact> 0.51478767E+03</totfact>
</mgrwt>
</event>
<event>
 4    1  0.6853809E-004  0.1952903E+03  0.7818608E-02  0.1153775E+00
          2   -1    0    0  501    0  0.00000000000E+00  0.00000000000E+00  0.78047717289E+03  0.78047717290E+03  0.25500000000E-02 0.  1.
         -2   -1    0    0    0  501 -0.00000000000E+00 -0.00000000000E+00 -0.12216335541E+02  0.12216335807E+02  0.25500000000E-02 0. -1.
    5000001    1    1    2    0    0 -0.81220280961E+01 -0.56222489545E+02  0.30514710179E+03  0.31979788836E+03  0.77000000000E+02 0.  0.
   -5000001    1    1    2    0    0  0.81220280961E+01  0.56222489545E+02  0.46311373556E+03  0.47289562034E+03  0.77000000000E+02 0.  0.
<mgrwt>
<rscale>  0 0.19529026E+03</rscale>
<asrwt>0</asrwt>
<pdfrwt beam="1">  1        2 0.11149678E+00 0.19529026E+03</pdfrwt>
<pdfrwt beam="2">  1       -2 0.17451902E-02 0.19529026E+03</pdfrwt>
<totfact> 0.36807769E+04</totfact>
</mgrwt>
</event>
<event>
 4    1  0.6853809E-004  0.1856868E+03  0.7818608E-02  0.1162410E+00
         -2   -1    0    0    0  501 -0.00000000000E+00  0.00000000000E+00  0.48418452215E+01  0.48418458930E+01  0.25500000000E-02 0. -1.
          2   -1    0    0  501    0  0.00000000000E+00 -0.00000000000E+00 -0.17802921745E+04  0.17802921745E+04  0.25500000000E-02 0.  1.
    5000001    1    1    2    0    0 -0.21474374448E+02  0.14293884156E+02 -0.13203873829E+04  0.13228821961E+04  0.77000000000E+02 0.  0.
   -5000001    1    1    2    0    0  0.21474374448E+02 -0.14293884156E+02 -0.45506294645E+03  0.46225182434E+03  0.77000000000E+02 0.  0.
<mgrwt>
<rscale>  0 0.18568683E+03</rscale>
<asrwt>0</asrwt>
<pdfrwt beam="1">  1        2 0.25432703E+00 0.18568683E+03</pdfrwt>
<pdfrwt beam="2">  1       -2 0.69169336E-03 0.18568683E+03</pdfrwt>
<totfact> 0.40203490E+04</totfact>
</mgrwt>
</event>
<event>
 4    1  0.6853809E-004  0.2750797E+03  0.7818608E-02  0.1098407E+00
          2   -1    0    0  501    0  0.00000000000E+00  0.00000000000E+00  0.88352106157E+03  0.88352106157E+03  0.25500000000E-02 0.  1.
         -2   -1    0    0    0  501 -0.00000000000E+00 -0.00000000000E+00 -0.21411165302E+02  0.21411165454E+02  0.25500000000E-02 0. -1.
    5000001    1    1    2    0    0  0.74055829889E+02  0.85749420103E+02  0.47147776978E+03  0.49097608535E+03  0.77000000000E+02 0.  0.
   -5000001    1    1    2    0    0 -0.74055829889E+02 -0.85749420103E+02  0.39063212649E+03  0.41395614168E+03  0.77000000000E+02 0.  0.
<mgrwt>
<rscale>  0 0.27507974E+03</rscale>
<asrwt>0</asrwt>
<pdfrwt beam="1">  1        2 0.12621726E+00 0.27507974E+03</pdfrwt>
<pdfrwt beam="2">  1       -2 0.30587386E-02 0.27507974E+03</pdfrwt>
<totfact> 0.14080804E+04</totfact>
</mgrwt>
</event>
<event>
 4    1  0.6853809E-004  0.1629959E+03  0.7818608E-02  0.1185355E+00
         -2   -1    0    0    0  501 -0.00000000000E+00  0.00000000000E+00  0.39974687790E+02  0.39974687871E+02  0.25500000000E-02 0. -1.
          2   -1    0    0  501    0  0.00000000000E+00 -0.00000000000E+00 -0.16615306353E+03  0.16615306355E+03  0.25500000000E-02 0.  1.
    5000001    1    1    2    0    0  0.12459857010E+02  0.23557419824E+02 -0.65173618209E+02  0.10433983216E+03  0.77000000000E+02 0.  0.
   -5000001    1    1    2    0    0 -0.12459857010E+02 -0.23557419824E+02 -0.61004757532E+02  0.10178791926E+03  0.77000000000E+02 0.  0.
<mgrwt>
<rscale>  0 0.16299591E+03</rscale>
<asrwt>0</asrwt>
<pdfrwt beam="1">  1        2 0.23736152E-01 0.16299591E+03</pdfrwt>
<pdfrwt beam="2">  1       -2 0.57106697E-02 0.16299591E+03</pdfrwt>
<totfact> 0.34198829E+04</totfact>
</mgrwt>
</event>
<event>
 4    1  0.6853809E-004  0.4525392E+03  0.7818608E-02  0.1026968E+00
         -2   -1    0    0    0  501 -0.00000000000E+00  0.00000000000E+00  0.40692758316E+02  0.40692758395E+02  0.25500000000E-02 0. -1.
          2   -1    0    0  501    0  0.00000000000E+00 -0.00000000000E+00 -0.12581584925E+04  0.12581584925E+04  0.25500000000E-02 0.  1.
    5000001    1    1    2    0    0 -0.17824329757E+02  0.15359501472E+03 -0.10282037439E+04  0.10426126194E+04  0.77000000000E+02 0.  0.
   -5000001    1    1    2    0    0  0.17824329757E+02 -0.15359501472E+03 -0.18926199029E+03  0.25623863145E+03  0.77000000000E+02 0.  0.
<mgrwt>
<rscale>  0 0.45253923E+03</rscale>
<asrwt>0</asrwt>
<pdfrwt beam="1">  1        2 0.17973690E+00 0.45253923E+03</pdfrwt>
<pdfrwt beam="2">  1       -2 0.58132520E-02 0.45253923E+03</pdfrwt>
<totfact> 0.32481151E+03</totfact>
</mgrwt>
</event>
<event>
 4    1  0.6853809E-004  0.2345817E+03  0.7818608E-02  0.1123456E+00
         -2   -1    0    0    0  501 -0.00000000000E+00  0.00000000000E+00  0.40739725333E+02  0.40739725412E+02  0.25500000000E-02 0. -1.
          2   -1    0    0  501    0  0.00000000000E+00 -0.00000000000E+00 -0.33768387708E+03  0.33768387709E+03  0.25500000000E-02 0.  1.
    5000001    1    1    2    0    0  0.66880637134E+02 -0.39019774139E+02 -0.21753042522E+03  0.24340100307E+03  0.77000000000E+02 0.  0.
   -5000001    1    1    2    0    0 -0.66880637134E+02  0.39019774139E+02 -0.79413726526E+02  0.13502259943E+03  0.77000000000E+02 0.  0.
<mgrwt>
<rscale>  0 0.23458174E+03</rscale>
<asrwt>0</asrwt>
<pdfrwt beam="1">  1        2 0.48240552E-01 0.23458174E+03</pdfrwt>
<pdfrwt beam="2">  1       -2 0.58199609E-02 0.23458174E+03</pdfrwt>
<totfact> 0.15846743E+04</totfact>
</mgrwt>
</event>
<event>
 4    1  0.6853809E-004  0.3771928E+03  0.7818608E-02  0.1051976E+00
          2   -1    0    0  501    0  0.00000000000E+00  0.00000000000E+00  0.18337521556E+04  0.18337521556E+04  0.25500000000E-02 0.  1.
         -2   -1    0    0    0  501 -0.00000000000E+00 -0.00000000000E+00 -0.19396627347E+02  0.19396627515E+02  0.25500000000E-02 0. -1.
    5000001    1    1    2    0    0 -0.11355105189E+03 -0.11645006504E+03  0.62990213866E+03  0.65510316999E+03  0.77000000000E+02 0.  0.
   -5000001    1    1    2    0    0  0.11355105189E+03  0.11645006504E+03  0.11844533896E+04  0.11980456131E+04  0.77000000000E+02 0.  0.
<mgrwt>
<rscale>  0 0.37719283E+03</rscale>
<asrwt>0</asrwt>
<pdfrwt beam="1">  1        2 0.26196444E+00 0.37719283E+03</pdfrwt>
<pdfrwt beam="2">  1       -2 0.27709484E-02 0.37719283E+03</pdfrwt>
<totfact> 0.50850104E+03</totfact>
</mgrwt>
</event>
<event>
 4    1  0.6853809E-004  0.3370517E+03  0.7818608E-02  0.1068059E+00
         -2   -1    0    0    0  501 -0.00000000000E+00  0.00000000000E+00  0.17418569389E+03  0.17418569391E+03  0.25500000000E-02 0. -1.
          2   -1    0    0  501    0  0.00000000000E+00 -0.00000000000E+00 -0.16304995380E+03  0.16304995382E+03  0.25500000000E-02 0.  1.
    5000001    1    1    2    0    0  0.10863925976E+03  0.40848513931E+02  0.10049260042E+03  0.17175230011E+03  0.77000000000E+02 0.  0.
   -5000001    1    1    2    0    0 -0.10863925976E+03 -0.40848513931E+02 -0.89356860334E+02  0.16548334762E+03  0.77000000000E+02 0.  0.
<mgrwt>
<rscale>  0 0.33705174E+03</rscale>
<asrwt>0</asrwt>
<pdfrwt beam="1">  1        2 0.23292851E-01 0.33705174E+03</pdfrwt>
<pdfrwt beam="2">  1       -2 0.24883670E-01 0.33705174E+03</pdfrwt>
<totfact> 0.33511197E+03</totfact>
</mgrwt>
</event>
<event>
 4    1  0.6853809E-004  0.2277210E+03  0.7818608E-02  0.1128254E+00
         -2   -1    0    0    0  501 -0.00000000000E+00  0.00000000000E+00  0.25642022230E+02  0.25642022357E+02  0.25500000000E-02 0. -1.
          2   -1    0    0  501    0  0.00000000000E+00 -0.00000000000E+00 -0.50558486873E+03  0.50558486874E+03  0.25500000000E-02 0.  1.
    5000001    1    1    2    0    0  0.35143130649E+02 -0.71397428179E+02 -0.17813752023E+03  0.20974891775E+03  0.77000000000E+02 0.  0.
   -5000001    1    1    2    0    0 -0.35143130649E+02  0.71397428179E+02 -0.30180532627E+03  0.32147797335E+03  0.77000000000E+02 0.  0.
<mgrwt>
<rscale>  0 0.22772104E+03</rscale>
<asrwt>0</asrwt>
<pdfrwt beam="1">  1        2 0.72226404E-01 0.22772104E+03</pdfrwt>
<pdfrwt beam="2">  1       -2 0.36631463E-02 0.22772104E+03</pdfrwt>
<totfact> 0.20557037E+04</totfact>
</mgrwt>
</event>
<event>
 4    1  0.6853809E-004  0.1875551E+03  0.7818608E-02  0.1160685E+00
         -2   -1    0    0    0  501 -0.00000000000E+00  0.00000000000E+00  0.29687678974E+01  0.29687689926E+01  0.25500000000E-02 0. -1.
          2   -1    0    0  501    0  0.00000000000E+00 -0.00000000000E+00 -0.29622492077E+04  0.29622492077E+04  0.25500000000E-02 0.  1.
    5000001    1    1    2    0    0 -0.42446267325E+02 -0.27309226159E+02 -0.11978199793E+04  0.12013530631E+04  0.77000000000E+02 0.  0.
   -5000001    1    1    2    0    0  0.42446267325E+02  0.27309226159E+02 -0.17614604604E+04  0.17638649135E+04  0.77000000000E+02 0.  0.
<mgrwt>
<rscale>  0 0.18755513E+03</rscale>
<asrwt>0</asrwt>
<pdfrwt beam="1">  1        2 0.42317657E+00 0.18755513E+03</pdfrwt>
<pdfrwt beam="2">  1       -2 0.42411168E-03 0.18755513E+03</pdfrwt>
<totfact> 0.21203225E+04</totfact>
</mgrwt>
</event>
<event>
 4    1  0.6853809E-004  0.1990721E+03  0.7818608E-02  0.1150524E+00
         -2   -1    0    0    0  501 -0.00000000000E+00  0.00000000000E+00  0.54158006392E+01  0.54158012395E+01  0.25500000000E-02 0. -1.
          2   -1    0    0  501    0  0.00000000000E+00 -0.00000000000E+00 -0.18293551411E+04  0.18293551411E+04  0.25500000000E-02 0.  1.
    5000001    1    1    2    0    0  0.35699656155E+02 -0.51558127001E+02 -0.84965185908E+03  0.85543555429E+03  0.77000000000E+02 0.  0.
   -5000001    1    1    2    0    0 -0.35699656155E+02  0.51558127001E+02 -0.97428748139E+03  0.97933538806E+03  0.77000000000E+02 0.  0.
<mgrwt>
<rscale>  0 0.19907208E+03</rscale>
<asrwt>0</asrwt>
<pdfrwt beam="1">  1        2 0.26133606E+00 0.19907208E+03</pdfrwt>
<pdfrwt beam="2">  1       -2 0.77368701E-03 0.19907208E+03</pdfrwt>
<totfact> 0.32550605E+04</totfact>
</mgrwt>
</event>
<event>
 4    1  0.6853809E-004  0.2028386E+03  0.7818608E-02  0.1147366E+00
         -2   -1    0    0    0  501 -0.00000000000E+00  0.00000000000E+00  0.86314489467E+02  0.86314489504E+02  0.25500000000E-02 0. -1.
          2   -1    0    0  501    0  0.00000000000E+00 -0.00000000000E+00 -0.11916745902E+03  0.11916745905E+03  0.25500000000E-02 0.  1.
    5000001    1    1    2    0    0 -0.51695874845E+02  0.40058406390E+02 -0.73804476764E+01  0.10129467116E+03  0.77000000000E+02 0.  0.
   -5000001    1    1    2    0    0  0.51695874845E+02 -0.40058406390E+02 -0.25472521877E+02  0.10418727739E+03  0.77000000000E+02 0.  0.
<mgrwt>
<rscale>  0 0.20283864E+03</rscale>
<asrwt>0</asrwt>
<pdfrwt beam="1">  1        2 0.17023923E-01 0.20283864E+03</pdfrwt>
<pdfrwt beam="2">  1       -2 0.12330641E-01 0.20283864E+03</pdfrwt>
<totfact> 0.15303945E+04</totfact>
</mgrwt>
</event>
<event>
 4    1  0.6853809E-004  0.2119494E+03  0.7818608E-02  0.1140032E+00
          2   -1    0    0  501    0  0.00000000000E+00  0.00000000000E+00  0.23247786113E+03  0.23247786115E+03  0.25500000000E-02 0.  1.
         -2   -1    0    0    0  501 -0.00000000000E+00 -0.00000000000E+00 -0.48308407851E+02  0.48308407918E+02  0.25500000000E-02 0. -1.
    5000001    1    1    2    0    0  0.43659982261E+02 -0.45464082185E+02  0.14037033498E+03  0.17206396416E+03  0.77000000000E+02 0.  0.
   -5000001    1    1    2    0    0 -0.43659982261E+02  0.45464082185E+02  0.43799118304E+02  0.10872230491E+03  0.77000000000E+02 0.  0.
<mgrwt>
<rscale>  0 0.21194938E+03</rscale>
<asrwt>0</asrwt>
<pdfrwt beam="1">  1        2 0.33211123E-01 0.21194938E+03</pdfrwt>
<pdfrwt beam="2">  1       -2 0.69012011E-02 0.21194938E+03</pdfrwt>
<totfact> 0.18108648E+04</totfact>
</mgrwt>
</event>
<event>
 4    1  0.6853809E-004  0.2368029E+03  0.7818608E-02  0.1121941E+00
          2   -1    0    0  501    0  0.00000000000E+00  0.00000000000E+00  0.25721212141E+02  0.25721212267E+02  0.25500000000E-02 0.  1.
         -2   -1    0    0    0  501 -0.00000000000E+00 -0.00000000000E+00 -0.54503273609E+03  0.54503273610E+03  0.25500000000E-02 0. -1.
    5000001    1    1    2    0    0  0.11746864422E+01  0.35245034484E+02 -0.45908563324E+03  0.46683210150E+03  0.77000000000E+02 0.  0.
   -5000001    1    1    2    0    0 -0.11746864422E+01 -0.35245034484E+02 -0.60225890712E+02  0.10392184687E+03  0.77000000000E+02 0.  0.
<mgrwt>
<rscale>  0 0.23680289E+03</rscale>
<asrwt>0</asrwt>
<pdfrwt beam="1">  1        2 0.36744592E-02 0.23680289E+03</pdfrwt>
<pdfrwt beam="2">  1       -2 0.77861812E-01 0.23680289E+03</pdfrwt>
<totfact> 0.35575615E+03</totfact>
</mgrwt>
</event>
<event>
 4    1  0.6853809E-004  0.1777901E+03  0.7818608E-02  0.1169959E+00
          2   -1    0    0  501    0  0.00000000000E+00  0.00000000000E+00  0.99212066048E+03  0.99212066048E+03  0.25500000000E-02 0.  1.
         -2   -1    0    0    0  501 -0.00000000000E+00 -0.00000000000E+00 -0.79650894347E+01  0.79650898429E+01  0.25500000000E-02 0. -1.
    5000001    1    1    2    0    0  0.43848841538E+02  0.63503580019E+01  0.51011499803E+03  0.51779277628E+03  0.77000000000E+02 0.  0.
   -5000001    1    1    2    0    0 -0.43848841538E+02 -0.63503580019E+01  0.47404057301E+03  0.48229297405E+03  0.77000000000E+02 0.  0.
<mgrwt>
<rscale>  0 0.17779010E+03</rscale>
<asrwt>0</asrwt>
<pdfrwt beam="1">  1        2 0.14173143E+00 0.17779010E+03</pdfrwt>
<pdfrwt beam="2">  1       -2 0.11378707E-02 0.17779010E+03</pdfrwt>
<totfact> 0.50038080E+04</totfact>
</mgrwt>
</event>
<event>
 4    1  0.6853809E-004  0.2253985E+03  0.7818608E-02  0.1129921E+00
         -2   -1    0    0    0  501 -0.00000000000E+00  0.00000000000E+00  0.31057768758E+02  0.31057768863E+02  0.25500000000E-02 0. -1.
          2   -1    0    0  501    0  0.00000000000E+00 -0.00000000000E+00 -0.40895136737E+03  0.40895136738E+03  0.25500000000E-02 0.  1.
    5000001    1    1    2    0    0 -0.36506167084E+02  0.65711808740E+02 -0.12357564236E+03  0.16386177537E+03  0.77000000000E+02 0.  0.
   -5000001    1    1    2    0    0  0.36506167084E+02 -0.65711808740E+02 -0.25431795626E+03  0.27614736087E+03  0.77000000000E+02 0.  0.
<mgrwt>
<rscale>  0 0.22539847E+03</rscale>
<asrwt>0</asrwt>
<pdfrwt beam="1">  1        2 0.58421621E-01 0.22539847E+03</pdfrwt>
<pdfrwt beam="2">  1       -2 0.44368244E-02 0.22539847E+03</pdfrwt>
<totfact> 0.19415902E+04</totfact>
</mgrwt>
</event>
<event>
 4    1  0.6853809E-004  0.3477179E+03  0.7818608E-02  0.1063556E+00
         -2   -1    0    0    0  501 -0.00000000000E+00  0.00000000000E+00  0.44575660579E+03  0.44575660580E+03  0.25500000000E-02 0. -1.
          2   -1    0    0  501    0  0.00000000000E+00 -0.00000000000E+00 -0.67810391927E+02  0.67810391975E+02  0.25500000000E-02 0.  1.
    5000001    1    1    2    0    0 -0.16620935139E+02 -0.14716813871E+03  0.11717358024E+03  0.20394451315E+03  0.77000000000E+02 0.  0.
   -5000001    1    1    2    0    0  0.16620935139E+02  0.14716813871E+03  0.26077263362E+03  0.30962248462E+03  0.77000000000E+02 0.  0.
<mgrwt>
<rscale>  0 0.34771788E+03</rscale>
<asrwt>0</asrwt>
<pdfrwt beam="1">  1        2 0.96871990E-02 0.34771788E+03</pdfrwt>
<pdfrwt beam="2">  1       -2 0.63679514E-01 0.34771788E+03</pdfrwt>
<totfact> 0.15654421E+03</totfact>
</mgrwt>
</event>
<event>
 4    1  0.6853809E-004  0.2250180E+03  0.7818608E-02  0.1130196E+00
          2   -1    0    0  501    0  0.00000000000E+00  0.00000000000E+00  0.13029679326E+03  0.13029679328E+03  0.25500000000E-02 0.  1.
         -2   -1    0    0    0  501 -0.00000000000E+00 -0.00000000000E+00 -0.97149508840E+02  0.97149508873E+02  0.25500000000E-02 0. -1.
    5000001    1    1    2    0    0  0.18151569712E+02 -0.71235360906E+02  0.53371370003E+02  0.11908593226E+03  0.77000000000E+02 0.  0.
   -5000001    1    1    2    0    0 -0.18151569712E+02  0.71235360906E+02 -0.20224085584E+02  0.10836036990E+03  0.77000000000E+02 0.  0.
<mgrwt>
<rscale>  0 0.22501795E+03</rscale>
<asrwt>0</asrwt>
<pdfrwt beam="1">  1        2 0.18613828E-01 0.22501795E+03</pdfrwt>
<pdfrwt beam="2">  1       -2 0.13878501E-01 0.22501795E+03</pdfrwt>
<totfact> 0.11471167E+04</totfact>
</mgrwt>
</event>
<event>
 4    1  0.6853809E-004  0.3103849E+03  0.7818608E-02  0.1080162E+00
         -2   -1    0    0    0  501 -0.00000000000E+00  0.00000000000E+00  0.47527552715E+02  0.47527552784E+02  0.25500000000E-02 0. -1.
          2   -1    0    0  501    0  0.00000000000E+00 -0.00000000000E+00 -0.50675238998E+03  0.50675238999E+03  0.25500000000E-02 0.  1.
    5000001    1    1    2    0    0  0.12762769202E+03  0.15743841627E+02 -0.30146668906E+03  0.33667174062E+03  0.77000000000E+02 0.  0.
   -5000001    1    1    2    0    0 -0.12762769202E+03 -0.15743841627E+02 -0.15775814821E+03  0.21760820215E+03  0.77000000000E+02 0.  0.
<mgrwt>
<rscale>  0 0.31038493E+03</rscale>
<asrwt>0</asrwt>
<pdfrwt beam="1">  1        2 0.72393195E-01 0.31038493E+03</pdfrwt>
<pdfrwt beam="2">  1       -2 0.67896507E-02 0.31038493E+03</pdfrwt>
<totfact> 0.81452246E+03</totfact>
</mgrwt>
</event>
<event>
 4    1  0.6853809E-004  0.2956179E+03  0.7818608E-02  0.1087452E+00
         -2   -1    0    0    0  501 -0.00000000000E+00  0.00000000000E+00  0.38143507685E+03  0.38143507686E+03  0.25500000000E-02 0. -1.
          2   -1    0    0  501    0  0.00000000000E+00 -0.00000000000E+00 -0.57277075059E+02  0.57277075115E+02  0.25500000000E-02 0.  1.
    5000001    1    1    2    0    0  0.37273482597E+02 -0.10740904933E+03  0.24326175485E+03  0.27934082723E+03  0.77000000000E+02 0.  0.
   -5000001    1    1    2    0    0 -0.37273482597E+02  0.10740904933E+03  0.80896246941E+02  0.15937132475E+03  0.77000000000E+02 0.  0.
<mgrwt>
<rscale>  0 0.29561790E+03</rscale>
<asrwt>0</asrwt>
<pdfrwt beam="1">  1        2 0.81824394E-02 0.29561790E+03</pdfrwt>
<pdfrwt beam="2">  1       -2 0.54490725E-01 0.29561790E+03</pdfrwt>
<totfact> 0.26652996E+03</totfact>
</mgrwt>
</event>
<event>
 4    1  0.6853809E-004  0.2254872E+03  0.7818608E-02  0.1129857E+00
         -2   -1    0    0    0  501 -0.00000000000E+00  0.00000000000E+00  0.20020653367E+02  0.20020653530E+02  0.25500000000E-02 0. -1.
          2   -1    0    0  501    0  0.00000000000E+00 -0.00000000000E+00 -0.63490005004E+03  0.63490005004E+03  0.25500000000E-02 0.  1.
    5000001    1    1    2    0    0  0.27753518621E+02  0.73649582508E+02 -0.37784510229E+03  0.39356122793E+03  0.77000000000E+02 0.  0.
   -5000001    1    1    2    0    0 -0.27753518621E+02 -0.73649582508E+02 -0.23703429438E+03  0.26135947565E+03  0.77000000000E+02 0.  0.
<mgrwt>
<rscale>  0 0.22548715E+03</rscale>
<asrwt>0</asrwt>
<pdfrwt beam="1">  1        2 0.90699995E-01 0.22548715E+03</pdfrwt>
<pdfrwt beam="2">  1       -2 0.28600937E-02 0.22548715E+03</pdfrwt>
<totfact> 0.22976854E+04</totfact>
</mgrwt>
</event>
<event>
 4    1  0.6853809E-004  0.3798757E+03  0.7818608E-02  0.1050980E+00
         -2   -1    0    0    0  501 -0.00000000000E+00  0.00000000000E+00  0.29972647416E+03  0.29972647417E+03  0.25500000000E-02 0.  1.
          2   -1    0    0  501    0  0.00000000000E+00 -0.00000000000E+00 -0.12036438652E+03  0.12036438655E+03  0.25500000000E-02 0. -1.
    5000001    1    1    2    0    0  0.11361554675E+03  0.58753261230E+02 -0.40167134552E+02  0.15460542315E+03  0.77000000000E+02 0.  0.
   -5000001    1    1    2    0    0 -0.11361554675E+03 -0.58753261230E+02  0.21952922219E+03  0.26548543757E+03  0.77000000000E+02 0.  0.
<mgrwt>
<rscale>  0 0.37987573E+03</rscale>
<asrwt>0</asrwt>
<pdfrwt beam="1">  1        2 0.17194913E-01 0.37987573E+03</pdfrwt>
<pdfrwt beam="2">  1       -2 0.42818066E-01 0.37987573E+03</pdfrwt>
<totfact> 0.17422463E+03</totfact>
</mgrwt>
</event>
<event>
 4    1  0.6853809E-004  0.2337632E+03  0.7818608E-02  0.1124019E+00
         -2   -1    0    0    0  501 -0.00000000000E+00  0.00000000000E+00  0.98216293280E+02  0.98216293313E+02  0.25500000000E-02 0. -1.
          2   -1    0    0  501    0  0.00000000000E+00 -0.00000000000E+00 -0.13909408733E+03  0.13909408736E+03  0.25500000000E-02 0.  1.
    5000001    1    1    2    0    0  0.77018771885E+02  0.39595032458E+02 -0.49546471760E+01  0.11598795777E+03  0.77000000000E+02 0.  0.
   -5000001    1    1    2    0    0 -0.77018771885E+02 -0.39595032458E+02 -0.35923146879E+02  0.12132242291E+03  0.77000000000E+02 0.  0.
<mgrwt>
<rscale>  0 0.23376318E+03</rscale>
<asrwt>0</asrwt>
<pdfrwt beam="1">  1        2 0.19870584E-01 0.23376318E+03</pdfrwt>
<pdfrwt beam="2">  1       -2 0.14030899E-01 0.23376318E+03</pdfrwt>
<totfact> 0.10478395E+04</totfact>
</mgrwt>
</event>
<event>
 4    1  0.6853809E-004  0.2426111E+03  0.7818608E-02  0.1118066E+00
         -2   -1    0    0    0  501 -0.00000000000E+00  0.00000000000E+00  0.18025053904E+03  0.18025053906E+03  0.25500000000E-02 0. -1.
          2   -1    0    0  501    0  0.00000000000E+00 -0.00000000000E+00 -0.81636547354E+02  0.81636547394E+02  0.25500000000E-02 0.  1.
    5000001    1    1    2    0    0  0.21404933670E+02  0.80469880859E+02  0.28471502317E+01  0.11344901575E+03  0.77000000000E+02 0.  0.
   -5000001    1    1    2    0    0 -0.21404933670E+02 -0.80469880859E+02  0.95766841457E+02  0.14843807070E+03  0.77000000000E+02 0.  0.
<mgrwt>
<rscale>  0 0.24261106E+03</rscale>
<asrwt>0</asrwt>
<pdfrwt beam="1">  1        2 0.11662364E-01 0.24261106E+03</pdfrwt>
<pdfrwt beam="2">  1       -2 0.25750077E-01 0.24261106E+03</pdfrwt>
<totfact> 0.70251946E+03</totfact>
</mgrwt>
</event>
<event>
 4    1  0.6853809E-004  0.4116899E+03  0.7818608E-02  0.1039805E+00
         -2   -1    0    0    0  501 -0.00000000000E+00  0.00000000000E+00  0.13210827206E+02  0.13210827452E+02  0.25500000000E-02 0. -1.
          2   -1    0    0  501    0  0.00000000000E+00 -0.00000000000E+00 -0.32073803637E+04  0.32073803637E+04  0.25500000000E-02 0.  1.
    5000001    1    1    2    0    0 -0.72148885630E+02 -0.17450252148E+03 -0.18164815818E+04  0.18278924829E+04  0.77000000000E+02 0.  0.
   -5000001    1    1    2    0    0  0.72148885630E+02  0.17450252148E+03 -0.13776879546E+04  0.13926987082E+04  0.77000000000E+02 0.  0.
<mgrwt>
<rscale>  0 0.41168992E+03</rscale>
<asrwt>0</asrwt>
<pdfrwt beam="1">  1        2 0.45819670E+00 0.41168992E+03</pdfrwt>
<pdfrwt beam="2">  1       -2 0.18872631E-02 0.41168992E+03</pdfrwt>
<totfact> 0.17782262E+03</totfact>
</mgrwt>
</event>
<event>
 4    1  0.6853809E-004  0.2783467E+03  0.7818608E-02  0.1096595E+00
         -2   -1    0    0    0  501 -0.00000000000E+00  0.00000000000E+00  0.10572625756E+02  0.10572626063E+02  0.25500000000E-02 0. -1.
          2   -1    0    0  501    0  0.00000000000E+00 -0.00000000000E+00 -0.18320165164E+04  0.18320165164E+04  0.25500000000E-02 0.  1.
    5000001    1    1    2    0    0 -0.97806362589E+02 -0.39455548647E+02 -0.59205066412E+03  0.60628030957E+03  0.77000000000E+02 0.  0.
   -5000001    1    1    2    0    0  0.97806362589E+02  0.39455548647E+02 -0.12293932265E+04  0.12363088329E+04  0.77000000000E+02 0.  0.
<mgrwt>
<rscale>  0 0.27834673E+03</rscale>
<asrwt>0</asrwt>
<pdfrwt beam="1">  1        2 0.26171644E+00 0.27834673E+03</pdfrwt>
<pdfrwt beam="2">  1       -2 0.15103763E-02 0.27834673E+03</pdfrwt>
<totfact> 0.12466794E+04</totfact>
</mgrwt>
</event>
<event>
 4    1  0.6853809E-004  0.1848457E+03  0.7818608E-02  0.1163194E+00
          2   -1    0    0  501    0  0.00000000000E+00  0.00000000000E+00  0.46023411579E+03  0.46023411580E+03  0.25500000000E-02 0.  1.
         -2   -1    0    0    0  501 -0.00000000000E+00 -0.00000000000E+00 -0.18560084356E+02  0.18560084531E+02  0.25500000000E-02 0. -1.
    5000001    1    1    2    0    0 -0.35778721529E+02 -0.16586511588E+02  0.13659436869E+03  0.16168565440E+03  0.77000000000E+02 0.  0.
   -5000001    1    1    2    0    0  0.35778721529E+02  0.16586511588E+02  0.30507966275E+03  0.31710854593E+03  0.77000000000E+02 0.  0.
<mgrwt>
<rscale>  0 0.18484571E+03</rscale>
<asrwt>0</asrwt>
<pdfrwt beam="1">  1        2 0.65747726E-01 0.18484571E+03</pdfrwt>
<pdfrwt beam="2">  1       -2 0.26514408E-02 0.18484571E+03</pdfrwt>
<totfact> 0.36210446E+04</totfact>
</mgrwt>
</event>
<event>
 4    1  0.6853809E-004  0.2048925E+03  0.7818608E-02  0.1145676E+00
          2   -1    0    0  501    0  0.00000000000E+00  0.00000000000E+00  0.19188080500E+04  0.19188080500E+04  0.25500000000E-02 0.  1.
         -2   -1    0    0    0  501 -0.00000000000E+00 -0.00000000000E+00 -0.54696605677E+01  0.54696611621E+01  0.25500000000E-02 0. -1.
    5000001    1    1    2    0    0 -0.66326195367E+02  0.52887831154E+01  0.84590591588E+03  0.85200525464E+03  0.77000000000E+02 0.  0.
   -5000001    1    1    2    0    0  0.66326195367E+02 -0.52887831154E+01  0.10674324735E+04  0.10722724565E+04  0.77000000000E+02 0.  0.
<mgrwt>
<rscale>  0 0.20489245E+03</rscale>
<asrwt>0</asrwt>
<pdfrwt beam="1">  1        2 0.27411552E+00 0.20489245E+03</pdfrwt>
<pdfrwt beam="2">  1       -2 0.78137988E-03 0.20489245E+03</pdfrwt>
<totfact> 0.29097020E+04</totfact>
</mgrwt>
</event>
<event>
 4    1  0.6853809E-004  0.1760883E+03  0.7818608E-02  0.1171643E+00
         -2   -1    0    0    0  501 -0.00000000000E+00  0.00000000000E+00  0.14150782666E+03  0.14150782669E+03  0.25500000000E-02 0. -1.
          2   -1    0    0  501    0  0.00000000000E+00 -0.00000000000E+00 -0.54779837628E+02  0.54779837687E+02  0.25500000000E-02 0.  1.
    5000001    1    1    2    0    0  0.26785494692E+02  0.30439480446E+02  0.58267442222E+02  0.10472879031E+03  0.77000000000E+02 0.  0.
   -5000001    1    1    2    0    0 -0.26785494692E+02 -0.30439480446E+02  0.28460546813E+02  0.91558874068E+02  0.77000000000E+02 0.  0.
<mgrwt>
<rscale>  0 0.17608834E+03</rscale>
<asrwt>0</asrwt>
<pdfrwt beam="1">  1        2 0.78256910E-02 0.17608834E+03</pdfrwt>
<pdfrwt beam="2">  1       -2 0.20215404E-01 0.17608834E+03</pdfrwt>
<totfact> 0.17172224E+04</totfact>
</mgrwt>
</event>
<event>
 4    1  0.6853809E-004  0.2664550E+03  0.7818608E-02  0.1103326E+00
         -2   -1    0    0    0  501 -0.00000000000E+00  0.00000000000E+00  0.61866540356E+02  0.61866540409E+02  0.25500000000E-02 0. -1.
          2   -1    0    0  501    0  0.00000000000E+00 -0.00000000000E+00 -0.28690082425E+03  0.28690082426E+03  0.25500000000E-02 0.  1.
    5000001    1    1    2    0    0  0.88151597436E+02 -0.63637575469E+02 -0.11207078225E+03  0.17409567880E+03  0.77000000000E+02 0.  0.
   -5000001    1    1    2    0    0 -0.88151597436E+02  0.63637575469E+02 -0.11296350165E+03  0.17467168588E+03  0.77000000000E+02 0.  0.
<mgrwt>
<rscale>  0 0.26645496E+03</rscale>
<asrwt>0</asrwt>
<pdfrwt beam="1">  1        2 0.40985831E-01 0.26645496E+03</pdfrwt>
<pdfrwt beam="2">  1       -2 0.88380774E-02 0.26645496E+03</pdfrwt>
<totfact> 0.99481664E+03</totfact>
</mgrwt>
</event>
<event>
 4    1  0.6853809E-004  0.2048417E+03  0.7818608E-02  0.1145717E+00
          2   -1    0    0  501    0  0.00000000000E+00  0.00000000000E+00  0.39796061263E+02  0.39796061344E+02  0.25500000000E-02 0.  1.
         -2   -1    0    0    0  501 -0.00000000000E+00 -0.00000000000E+00 -0.26359458611E+03  0.26359458612E+03  0.25500000000E-02 0. -1.
    5000001    1    1    2    0    0  0.66288179779E+02  0.12918137693E+02 -0.11213462101E+03  0.15186893787E+03  0.77000000000E+02 0.  0.
   -5000001    1    1    2    0    0 -0.66288179779E+02 -0.12918137693E+02 -0.11166390384E+03  0.15152170960E+03  0.77000000000E+02 0.  0.
<mgrwt>
<rscale>  0 0.20484166E+03</rscale>
<asrwt>0</asrwt>
<pdfrwt beam="1">  1        2 0.56851518E-02 0.20484166E+03</pdfrwt>
<pdfrwt beam="2">  1       -2 0.37656369E-01 0.20484166E+03</pdfrwt>
<totfact> 0.86245575E+03</totfact>
</mgrwt>
</event>
<event>
 4    1  0.6853809E-004  0.3064390E+03  0.7818608E-02  0.1082065E+00
          2   -1    0    0  501    0  0.00000000000E+00  0.00000000000E+00  0.26960212947E+04  0.26960212947E+04  0.25500000000E-02 0.  1.
         -2   -1    0    0    0  501 -0.00000000000E+00 -0.00000000000E+00 -0.87077263397E+01  0.87077267131E+01  0.25500000000E-02 0. -1.
    5000001    1    1    2    0    0  0.12010153437E+03  0.53510983475E+02  0.14858159757E+04  0.14936083548E+04  0.77000000000E+02 0.  0.
   -5000001    1    1    2    0    0 -0.12010153437E+03 -0.53510983475E+02  0.12014975926E+04  0.12111206666E+04  0.77000000000E+02 0.  0.
<mgrwt>
<rscale>  0 0.30643901E+03</rscale>
<asrwt>0</asrwt>
<pdfrwt beam="1">  1        2 0.38514599E+00 0.30643901E+03</pdfrwt>
<pdfrwt beam="2">  1       -2 0.12439606E-02 0.30643901E+03</pdfrwt>
<totfact> 0.61927943E+03</totfact>
</mgrwt>
</event>
<event>
 4    1  0.6853809E-004  0.3203302E+03  0.7818608E-02  0.1075497E+00
         -2   -1    0    0    0  501 -0.00000000000E+00  0.00000000000E+00  0.53868134140E+02  0.53868134200E+02  0.25500000000E-02 0. -1.
          2   -1    0    0  501    0  0.00000000000E+00 -0.00000000000E+00 -0.47621573288E+03  0.47621573289E+03  0.25500000000E-02 0.  1.
    5000001    1    1    2    0    0  0.75342496295E+02 -0.76327982228E+01 -0.40689671097E+03  0.42098537356E+03  0.77000000000E+02 0.  0.
   -5000001    1    1    2    0    0 -0.75342496295E+02  0.76327982228E+01 -0.15450887773E+02  0.10909849353E+03  0.77000000000E+02 0.  0.
<mgrwt>
<rscale>  0 0.32033016E+03</rscale>
<asrwt>0</asrwt>
<pdfrwt beam="1">  1        2 0.68030817E-01 0.32033016E+03</pdfrwt>
<pdfrwt beam="2">  1       -2 0.76954480E-02 0.32033016E+03</pdfrwt>
<totfact> 0.71876992E+03</totfact>
</mgrwt>
</event>
<event>
 4    1  0.6853809E-004  0.1945058E+03  0.7818608E-02  0.1154459E+00
         -2   -1    0    0    0  501 -0.00000000000E+00  0.00000000000E+00  0.15987574421E+02  0.15987574625E+02  0.25500000000E-02 0. -1.
          2   -1    0    0  501    0  0.00000000000E+00 -0.00000000000E+00 -0.59159218799E+03  0.59159218799E+03  0.25500000000E-02 0.  1.
    5000001    1    1    2    0    0 -0.25744931438E+01  0.39742423402E+02 -0.42549510233E+03  0.43423630703E+03  0.77000000000E+02 0.  0.
   -5000001    1    1    2    0    0  0.25744931438E+01 -0.39742423402E+02 -0.15010951124E+03  0.17334345559E+03  0.77000000000E+02 0.  0.
<mgrwt>
<rscale>  0 0.19450578E+03</rscale>
<asrwt>0</asrwt>
<pdfrwt beam="1">  1        2 0.84513156E-01 0.19450578E+03</pdfrwt>
<pdfrwt beam="2">  1       -2 0.22839396E-02 0.19450578E+03</pdfrwt>
<totfact> 0.34319411E+04</totfact>
</mgrwt>
</event>
<event>
 4    1  0.6853809E-004  0.3668629E+03  0.7818608E-02  0.1055899E+00
         -2   -1    0    0    0  501 -0.00000000000E+00  0.00000000000E+00  0.48255615542E+02  0.48255615609E+02  0.25500000000E-02 0. -1.
          2   -1    0    0  501    0  0.00000000000E+00 -0.00000000000E+00 -0.69726811805E+03  0.69726811806E+03  0.25500000000E-02 0.  1.
    5000001    1    1    2    0    0  0.20653270833E+01 -0.16509793617E+03 -0.28108704153E+03  0.33496345923E+03  0.77000000000E+02 0.  0.
   -5000001    1    1    2    0    0 -0.20653270833E+01  0.16509793617E+03 -0.36792546098E+03  0.41056027443E+03  0.77000000000E+02 0.  0.
<mgrwt>
<rscale>  0 0.36686293E+03</rscale>
<asrwt>0</asrwt>
<pdfrwt beam="1">  1        2 0.99609725E-01 0.36686293E+03</pdfrwt>
<pdfrwt beam="2">  1       -2 0.68936598E-02 0.36686293E+03</pdfrwt>
<totfact> 0.55342173E+03</totfact>
</mgrwt>
</event>
<event>
 4    1  0.6853809E-004  0.2062902E+03  0.7818608E-02  0.1144538E+00
         -2   -1    0    0    0  501 -0.00000000000E+00  0.00000000000E+00  0.31955985204E+02  0.31955985305E+02  0.25500000000E-02 0. -1.
          2   -1    0    0  501    0  0.00000000000E+00 -0.00000000000E+00 -0.33292385727E+03  0.33292385728E+03  0.25500000000E-02 0.  1.
    5000001    1    1    2    0    0  0.66033588393E+01 -0.63614854314E+02 -0.10646125511E+03  0.14612820698E+03  0.77000000000E+02 0.  0.
   -5000001    1    1    2    0    0 -0.66033588393E+01  0.63614854314E+02 -0.19450661696E+03  0.21875163560E+03  0.77000000000E+02 0.  0.
<mgrwt>
<rscale>  0 0.20629018E+03</rscale>
<asrwt>0</asrwt>
<pdfrwt beam="1">  1        2 0.47560549E-01 0.20629018E+03</pdfrwt>
<pdfrwt beam="2">  1       -2 0.45651409E-02 0.20629018E+03</pdfrwt>
<totfact> 0.23051276E+04</totfact>
</mgrwt>
</event>
<event>
 4    1  0.6853809E-004  0.1730484E+03  0.7818608E-02  0.1174706E+00
          2   -1    0    0  501    0  0.00000000000E+00  0.00000000000E+00  0.18118524314E+04  0.18118524314E+04  0.25500000000E-02 0.  1.
         -2   -1    0    0    0  501 -0.00000000000E+00 -0.00000000000E+00 -0.41319218557E+01  0.41319226426E+01  0.25500000000E-02 0. -1.
    5000001    1    1    2    0    0  0.37032596372E+02 -0.11184222992E+02  0.98577689133E+03  0.98953604255E+03  0.77000000000E+02 0.  0.
   -5000001    1    1    2    0    0 -0.37032596372E+02  0.11184222992E+02  0.82194361820E+03  0.82644831147E+03  0.77000000000E+02 0.  0.
<mgrwt>
<rscale>  0 0.17304836E+03</rscale>
<asrwt>0</asrwt>
<pdfrwt beam="1">  1        2 0.25883582E+00 0.17304836E+03</pdfrwt>
<pdfrwt beam="2">  1       -2 0.59027515E-03 0.17304836E+03</pdfrwt>
<totfact> 0.48466284E+04</totfact>
</mgrwt>
</event>
<event>
 4    1  0.6853809E-004  0.5026762E+03  0.7818608E-02  0.1013083E+00
          2   -1    0    0  501    0  0.00000000000E+00  0.00000000000E+00  0.20540954386E+04  0.20540954387E+04  0.25500000000E-02 0.  1.
         -2   -1    0    0    0  501 -0.00000000000E+00 -0.00000000000E+00 -0.30753607769E+02  0.30753607874E+02  0.25500000000E-02 0. -1.
    5000001    1    1    2    0    0  0.12898962557E+03  0.15182775342E+03  0.15611457287E+04  0.15756887308E+04  0.77000000000E+02 0.  0.
   -5000001    1    1    2    0    0 -0.12898962557E+03 -0.15182775342E+03  0.46219610220E+03  0.50916031572E+03  0.77000000000E+02 0.  0.
<mgrwt>
<rscale>  0 0.50267622E+03</rscale>
<asrwt>0</asrwt>
<pdfrwt beam="1">  1        2 0.29344213E+00 0.50267622E+03</pdfrwt>
<pdfrwt beam="2">  1       -2 0.43933736E-02 0.50267622E+03</pdfrwt>
<totfact> 0.19583111E+03</totfact>
</mgrwt>
</event>
<event>
 4    1  0.6853809E-004  0.2197922E+03  0.7818608E-02  0.1134038E+00
          2   -1    0    0  501    0  0.00000000000E+00  0.00000000000E+00  0.10538873345E+04  0.10538873345E+04  0.25500000000E-02 0.  1.
         -2   -1    0    0    0  501 -0.00000000000E+00 -0.00000000000E+00 -0.11459623570E+02  0.11459623854E+02  0.25500000000E-02 0. -1.
    5000001    1    1    2    0    0 -0.10775741381E+02  0.72912453902E+02  0.65089523141E+03  0.65956496633E+03  0.77000000000E+02 0.  0.
   -5000001    1    1    2    0    0  0.10775741381E+02 -0.72912453902E+02  0.39153247954E+03  0.40578199205E+03  0.77000000000E+02 0.  0.
<mgrwt>
<rscale>  0 0.21979220E+03</rscale>
<asrwt>0</asrwt>
<pdfrwt beam="1">  1        2 0.15055534E+00 0.21979220E+03</pdfrwt>
<pdfrwt beam="2">  1       -2 0.16370890E-02 0.21979220E+03</pdfrwt>
<totfact> 0.27632653E+04</totfact>
</mgrwt>
</event>
<event>
 4    1  0.6853809E-004  0.2095883E+03  0.7818608E-02  0.1141892E+00
         -2   -1    0    0    0  501 -0.00000000000E+00  0.00000000000E+00  0.73890247026E+01  0.73890251426E+01  0.25500000000E-02 0. -1.
          2   -1    0    0  501    0  0.00000000000E+00 -0.00000000000E+00 -0.14862329677E+04  0.14862329677E+04  0.25500000000E-02 0.  1.
    5000001    1    1    2    0    0  0.37962870520E+02  0.33664825091E+02 -0.38464802194E+03  0.39554721686E+03  0.77000000000E+02 0.  0.
   -5000001    1    1    2    0    0 -0.37962870520E+02 -0.33664825091E+02 -0.10941959210E+04  0.10980747760E+04  0.77000000000E+02 0.  0.
<mgrwt>
<rscale>  0 0.20958829E+03</rscale>
<asrwt>0</asrwt>
<pdfrwt beam="1">  1        2 0.21231881E+00 0.20958829E+03</pdfrwt>
<pdfrwt beam="2">  1       -2 0.10555759E-02 0.20958829E+03</pdfrwt>
<totfact> 0.30744257E+04</totfact>
</mgrwt>
</event>
<event>
 4    1  0.6853809E-004  0.3993119E+03  0.7818608E-02  0.1044018E+00
         -2   -1    0    0    0  501 -0.00000000000E+00  0.00000000000E+00  0.12409904981E+02  0.12409905243E+02  0.25500000000E-02 0. -1.
          2   -1    0    0  501    0  0.00000000000E+00 -0.00000000000E+00 -0.32121518360E+04  0.32121518360E+04  0.25500000000E-02 0.  1.
    5000001    1    1    2    0    0  0.16509434421E+03  0.76420339793E+02 -0.18335372455E+04  0.18441485952E+04  0.77000000000E+02 0.  0.
   -5000001    1    1    2    0    0 -0.16509434421E+03 -0.76420339793E+02 -0.13662046855E+04  0.13804131460E+04  0.77000000000E+02 0.  0.
<mgrwt>
<rscale>  0 0.39931191E+03</rscale>
<asrwt>0</asrwt>
<pdfrwt beam="1">  1        2 0.45887830E+00 0.39931191E+03</pdfrwt>
<pdfrwt beam="2">  1       -2 0.17728456E-02 0.39931191E+03</pdfrwt>
<totfact> 0.19418025E+03</totfact>
</mgrwt>
</event>
<event>
 4    1  0.6853809E-004  0.4627028E+03  0.7818608E-02  0.1024000E+00
         -2   -1    0    0    0  501 -0.00000000000E+00  0.00000000000E+00  0.13844719934E+04  0.13844719934E+04  0.25500000000E-02 0. -1.
          2   -1    0    0  501    0  0.00000000000E+00 -0.00000000000E+00 -0.38659843280E+02  0.38659843364E+02  0.25500000000E-02 0.  1.
    5000001    1    1    2    0    0  0.20814214441E+03  0.47663671868E+01  0.87338370498E+03  0.90115146710E+03  0.77000000000E+02 0.  0.
   -5000001    1    1    2    0    0 -0.20814214441E+03 -0.47663671868E+01  0.47242844512E+03  0.52198036964E+03  0.77000000000E+02 0.  0.
<mgrwt>
<rscale>  0 0.46270280E+03</rscale>
<asrwt>0</asrwt>
<pdfrwt beam="1">  1        2 0.55228350E-02 0.46270280E+03</pdfrwt>
<pdfrwt beam="2">  1       -2 0.19778171E+00 0.46270280E+03</pdfrwt>
<totfact> 0.20452988E+02</totfact>
</mgrwt>
</event>
<event>
 4    1  0.6853809E-004  0.3557135E+03  0.7818608E-02  0.1060294E+00
          2   -1    0    0  501    0  0.00000000000E+00  0.00000000000E+00  0.70134270248E+03  0.70134270248E+03  0.25500000000E-02 0.  1.
         -2   -1    0    0    0  501 -0.00000000000E+00 -0.00000000000E+00 -0.45103526796E+02  0.45103526868E+02  0.25500000000E-02 0. -1.
    5000001    1    1    2    0    0  0.14315984348E+03 -0.52125762367E+02  0.22336114818E+03  0.28112459587E+03  0.77000000000E+02 0.  0.
   -5000001    1    1    2    0    0 -0.14315984348E+03  0.52125762367E+02  0.43287802751E+03  0.46532163348E+03  0.77000000000E+02 0.  0.
<mgrwt>
<rscale>  0 0.35571353E+03</rscale>
<asrwt>0</asrwt>
<pdfrwt beam="1">  1        2 0.10019182E+00 0.35571353E+03</pdfrwt>
<pdfrwt beam="2">  1       -2 0.64433606E-02 0.35571353E+03</pdfrwt>
<totfact> 0.61002975E+03</totfact>
</mgrwt>
</event>
<event>
 4    1  0.6853809E-004  0.2750083E+03  0.7818608E-02  0.1098447E+00
          2   -1    0    0  501    0  0.00000000000E+00  0.00000000000E+00  0.35339792672E+03  0.35339792673E+03  0.25500000000E-02 0.  1.
         -2   -1    0    0    0  501 -0.00000000000E+00 -0.00000000000E+00 -0.53501713251E+02  0.53501713312E+02  0.25500000000E-02 0. -1.
    5000001    1    1    2    0    0 -0.48312910224E+01  0.87411088187E+02  0.42086535844E+02  0.12395287899E+03  0.77000000000E+02 0.  0.
   -5000001    1    1    2    0    0  0.48312910224E+01 -0.87411088187E+02  0.25780967763E+03  0.28294676105E+03  0.77000000000E+02 0.  0.
<mgrwt>
<rscale>  0 0.27500832E+03</rscale>
<asrwt>0</asrwt>
<pdfrwt beam="1">  1        2 0.50485416E-01 0.27500832E+03</pdfrwt>
<pdfrwt beam="2">  1       -2 0.76431023E-02 0.27500832E+03</pdfrwt>
<totfact> 0.99934973E+03</totfact>
</mgrwt>
</event>
<event>
 4    1  0.6853809E-004  0.7686405E+03  0.7818608E-02  0.9606552E-01
          2   -1    0    0  501    0  0.00000000000E+00  0.00000000000E+00  0.60585519897E+03  0.60585519898E+03  0.25500000000E-02 0.  1.
         -2   -1    0    0    0  501 -0.00000000000E+00 -0.00000000000E+00 -0.24379104577E+03  0.24379104578E+03  0.25500000000E-02 0. -1.
    5000001    1    1    2    0    0 -0.12380158310E+03  0.33416001313E+03  0.46631561924E+02  0.36755033522E+03  0.77000000000E+02 0.  0.
   -5000001    1    1    2    0    0  0.12380158310E+03 -0.33416001313E+03  0.31543259128E+03  0.48209590954E+03  0.77000000000E+02 0.  0.
<mgrwt>
<rscale>  0 0.76864055E+03</rscale>
<asrwt>0</asrwt>
<pdfrwt beam="1">  1        2 0.86550743E-01 0.76864055E+03</pdfrwt>
<pdfrwt beam="2">  1       -2 0.34827292E-01 0.76864055E+03</pdfrwt>
<totfact> 0.41665527E+02</totfact>
</mgrwt>
</event>
<event>
 4    1  0.6853809E-004  0.1999028E+03  0.7818608E-02  0.1149821E+00
          2   -1    0    0  501    0  0.00000000000E+00  0.00000000000E+00  0.94448792215E+03  0.94448792215E+03  0.25500000000E-02 0.  1.
         -2   -1    0    0    0  501 -0.00000000000E+00 -0.00000000000E+00 -0.10577455501E+02  0.10577455809E+02  0.25500000000E-02 0. -1.
    5000001    1    1    2    0    0 -0.61018174600E+02 -0.11870764393E+02  0.53403765959E+03  0.54312922453E+03  0.77000000000E+02 0.  0.
   -5000001    1    1    2    0    0  0.61018174600E+02  0.11870764393E+02  0.39987280705E+03  0.41193615342E+03  0.77000000000E+02 0.  0.
<mgrwt>
<rscale>  0 0.19990277E+03</rscale>
<asrwt>0</asrwt>
<pdfrwt beam="1">  1        2 0.13492677E+00 0.19990277E+03</pdfrwt>
<pdfrwt beam="2">  1       -2 0.15110659E-02 0.19990277E+03</pdfrwt>
<totfact> 0.35756521E+04</totfact>
</mgrwt>
</event>
<event>
 4    1  0.6853809E-004  0.3291857E+03  0.7818608E-02  0.1071498E+00
          2   -1    0    0  501    0  0.00000000000E+00  0.00000000000E+00  0.10606531560E+04  0.10606531560E+04  0.25500000000E-02 0.  1.
         -2   -1    0    0    0  501 -0.00000000000E+00 -0.00000000000E+00 -0.25541622140E+02  0.25541622267E+02  0.25500000000E-02 0. -1.
    5000001    1    1    2    0    0  0.13561687584E+03  0.47527759660E+02  0.44296800671E+03  0.47201745722E+03  0.77000000000E+02 0.  0.
   -5000001    1    1    2    0    0 -0.13561687584E+03 -0.47527759660E+02  0.59214352718E+03  0.61417732108E+03  0.77000000000E+02 0.  0.
<mgrwt>
<rscale>  0 0.32918568E+03</rscale>
<asrwt>0</asrwt>
<pdfrwt beam="1">  1        2 0.15152187E+00 0.32918568E+03</pdfrwt>
<pdfrwt beam="2">  1       -2 0.36488034E-02 0.32918568E+03</pdfrwt>
<totfact> 0.85038591E+03</totfact>
</mgrwt>
</event>
<event>
 4    1  0.6853809E-004  0.2760302E+03  0.7818608E-02  0.1097877E+00
          2   -1    0    0  501    0  0.00000000000E+00  0.00000000000E+00  0.16021659513E+04  0.16021659513E+04  0.25500000000E-02 0.  1.
         -2   -1    0    0    0  501 -0.00000000000E+00 -0.00000000000E+00 -0.11889007734E+02  0.11889008007E+02  0.25500000000E-02 0. -1.
    5000001    1    1    2    0    0  0.11197994429E+03 -0.23499840801E+02  0.76452297052E+03  0.77686300137E+03  0.77000000000E+02 0.  0.
   -5000001    1    1    2    0    0 -0.11197994429E+03  0.23499840801E+02  0.82575397308E+03  0.83719195797E+03  0.77000000000E+02 0.  0.
<mgrwt>
<rscale>  0 0.27603017E+03</rscale>
<asrwt>0</asrwt>
<pdfrwt beam="1">  1        2 0.22888071E+00 0.27603017E+03</pdfrwt>
<pdfrwt beam="2">  1       -2 0.16984307E-02 0.27603017E+03</pdfrwt>
<totfact> 0.13625146E+04</totfact>
</mgrwt>
</event>
<event>
 4    1  0.6853809E-004  0.2877794E+03  0.7818608E-02  0.1091514E+00
          2   -1    0    0  501    0  0.00000000000E+00  0.00000000000E+00  0.32973338335E+03  0.32973338336E+03  0.25500000000E-02 0.  1.
         -2   -1    0    0    0  501 -0.00000000000E+00 -0.00000000000E+00 -0.62790866873E+02  0.62790866925E+02  0.25500000000E-02 0. -1.
    5000001    1    1    2    0    0  0.10781335176E+03  0.10181586231E+02  0.20877289399E+03  0.24747223032E+03  0.77000000000E+02 0.  0.
   -5000001    1    1    2    0    0 -0.10781335176E+03 -0.10181586231E+02  0.58169622483E+02  0.14505201996E+03  0.77000000000E+02 0.  0.
<mgrwt>
<rscale>  0 0.28777939E+03</rscale>
<asrwt>0</asrwt>
<pdfrwt beam="1">  1        2 0.47104769E-01 0.28777939E+03</pdfrwt>
<pdfrwt beam="2">  1       -2 0.89701238E-02 0.28777939E+03</pdfrwt>
<totfact> 0.83941713E+03</totfact>
</mgrwt>
</event>
<event>
 4    1  0.6853809E-004  0.3897433E+03  0.7818608E-02  0.1047390E+00
         -2   -1    0    0    0  501 -0.00000000000E+00  0.00000000000E+00  0.42974170838E+03  0.42974170838E+03  0.25500000000E-02 0. -1.
          2   -1    0    0  501    0  0.00000000000E+00 -0.00000000000E+00 -0.88366925116E+02  0.88366925153E+02  0.25500000000E-02 0.  1.
    5000001    1    1    2    0    0  0.14929194506E+01  0.17594520537E+03  0.12685866696E+03  0.23017616185E+03  0.77000000000E+02 0.  0.
   -5000001    1    1    2    0    0 -0.14929194506E+01 -0.17594520537E+03  0.21451611629E+03  0.28793247168E+03  0.77000000000E+02 0.  0.
<mgrwt>
<rscale>  0 0.38974327E+03</rscale>
<asrwt>0</asrwt>
<pdfrwt beam="1">  1        2 0.12623846E-01 0.38974327E+03</pdfrwt>
<pdfrwt beam="2">  1       -2 0.61391674E-01 0.38974327E+03</pdfrwt>
<totfact> 0.12195748E+03</totfact>
</mgrwt>
</event>
<event>
 4    1  0.6853809E-004  0.2564429E+03  0.7818608E-02  0.1109299E+00
         -2   -1    0    0    0  501 -0.00000000000E+00  0.00000000000E+00  0.46161707303E+01  0.46161714346E+01  0.25500000000E-02 0. -1.
          2   -1    0    0  501    0  0.00000000000E+00 -0.00000000000E+00 -0.35615525179E+04  0.35615525179E+04  0.25500000000E-02 0.  1.
    5000001    1    1    2    0    0 -0.59443181469E+02  0.27377651980E+02 -0.28759826356E+04  0.28777574859E+04  0.77000000000E+02 0.  0.
   -5000001    1    1    2    0    0  0.59443181469E+02 -0.27377651980E+02 -0.68095371163E+03  0.68841120345E+03  0.77000000000E+02 0.  0.
<mgrwt>
<rscale>  0 0.25644286E+03</rscale>
<asrwt>0</asrwt>
<pdfrwt beam="1">  1        2 0.50879146E+00 0.25644286E+03</pdfrwt>
<pdfrwt beam="2">  1       -2 0.65945529E-03 0.25644286E+03</pdfrwt>
<totfact> 0.52762146E+03</totfact>
</mgrwt>
</event>
<event>
 4    1  0.6853809E-004  0.1717062E+03  0.7818608E-02  0.1176080E+00
          2   -1    0    0  501    0  0.00000000000E+00  0.00000000000E+00  0.41537361001E+03  0.41537361002E+03  0.25500000000E-02 0.  1.
         -2   -1    0    0    0  501 -0.00000000000E+00 -0.00000000000E+00 -0.17744871378E+02  0.17744871561E+02  0.25500000000E-02 0. -1.
    5000001    1    1    2    0    0  0.36644605747E+02 -0.92407699399E+01  0.18953522990E+03  0.20804043437E+03  0.77000000000E+02 0.  0.
   -5000001    1    1    2    0    0 -0.36644605747E+02  0.92407699399E+01  0.20809350873E+03  0.22507804721E+03  0.77000000000E+02 0.  0.
<mgrwt>
<rscale>  0 0.17170616E+03</rscale>
<asrwt>0</asrwt>
<pdfrwt beam="1">  1        2 0.59339079E-01 0.17170616E+03</pdfrwt>
<pdfrwt beam="2">  1       -2 0.25349820E-02 0.17170616E+03</pdfrwt>
<totfact> 0.42908823E+04</totfact>
</mgrwt>
</event>
<event>
 4    1  0.6853809E-004  0.2502790E+03  0.7818608E-02  0.1113129E+00
         -2   -1    0    0    0  501 -0.00000000000E+00  0.00000000000E+00  0.11007329787E+02  0.11007330083E+02  0.25500000000E-02 0. -1.
          2   -1    0    0  501    0  0.00000000000E+00 -0.00000000000E+00 -0.14226791626E+04  0.14226791626E+04  0.25500000000E-02 0.  1.
    5000001    1    1    2    0    0 -0.71465882827E+02 -0.51079771941E+02 -0.44873667788E+03  0.46369183903E+03  0.77000000000E+02 0.  0.
   -5000001    1    1    2    0    0  0.71465882827E+02  0.51079771941E+02 -0.96293515488E+03  0.96999465360E+03  0.77000000000E+02 0.  0.
<mgrwt>
<rscale>  0 0.25027904E+03</rscale>
<asrwt>0</asrwt>
<pdfrwt beam="1">  1        2 0.20323976E+00 0.25027904E+03</pdfrwt>
<pdfrwt beam="2">  1       -2 0.15724766E-02 0.25027904E+03</pdfrwt>
<totfact> 0.18718425E+04</totfact>
</mgrwt>
</event>
<event>
 4    1  0.6853809E-004  0.1615343E+03  0.7818608E-02  0.1186975E+00
         -2   -1    0    0    0  501 -0.00000000000E+00  0.00000000000E+00  0.71839164086E+01  0.71839168612E+01  0.25500000000E-02 0. -1.
          2   -1    0    0  501    0  0.00000000000E+00 -0.00000000000E+00 -0.90804624327E+03  0.90804624327E+03  0.25500000000E-02 0.  1.
    5000001    1    1    2    0    0  0.82362754585E+01  0.22535581695E+02 -0.42596945475E+03  0.43353738600E+03  0.77000000000E+02 0.  0.
   -5000001    1    1    2    0    0 -0.82362754585E+01 -0.22535581695E+02 -0.47489287210E+03  0.48169277413E+03  0.77000000000E+02 0.  0.
<mgrwt>
<rscale>  0 0.16153425E+03</rscale>
<asrwt>0</asrwt>
<pdfrwt beam="1">  1        2 0.12972082E+00 0.16153425E+03</pdfrwt>
<pdfrwt beam="2">  1       -2 0.10262744E-02 0.16153425E+03</pdfrwt>
<totfact> 0.64592524E+04</totfact>
</mgrwt>
</event>
<event>
 4    1  0.6853809E-004  0.2409838E+03  0.7818608E-02  0.1119139E+00
         -2   -1    0    0    0  501 -0.00000000000E+00  0.00000000000E+00  0.21527923666E+02  0.21527923817E+02  0.25500000000E-02 0. -1.
          2   -1    0    0  501    0  0.00000000000E+00 -0.00000000000E+00 -0.67439371965E+03  0.67439371966E+03  0.25500000000E-02 0.  1.
    5000001    1    1    2    0    0 -0.57001983590E+02  0.61215026812E+02 -0.21117998708E+03  0.23983847186E+03  0.77000000000E+02 0.  0.
   -5000001    1    1    2    0    0  0.57001983590E+02 -0.61215026812E+02 -0.44168580891E+03  0.45608317162E+03  0.77000000000E+02 0.  0.
<mgrwt>
<rscale>  0 0.24098379E+03</rscale>
<asrwt>0</asrwt>
<pdfrwt beam="1">  1        2 0.96341947E-01 0.24098379E+03</pdfrwt>
<pdfrwt beam="2">  1       -2 0.30754181E-02 0.24098379E+03</pdfrwt>
<totfact> 0.19313352E+04</totfact>
</mgrwt>
</event>
<event>
 4    1  0.6853809E-004  0.2675917E+03  0.7818608E-02  0.1102666E+00
         -2   -1    0    0    0  501 -0.00000000000E+00  0.00000000000E+00  0.15612226731E+02  0.15612226940E+02  0.25500000000E-02 0. -1.
          2   -1    0    0  501    0  0.00000000000E+00 -0.00000000000E+00 -0.11466228072E+04  0.11466228072E+04  0.25500000000E-02 0.  1.
    5000001    1    1    2    0    0 -0.28096094596E+02 -0.10527366916E+03 -0.52198549521E+03  0.53876691914E+03  0.77000000000E+02 0.  0.
   -5000001    1    1    2    0    0  0.28096094596E+02  0.10527366916E+03 -0.60902508528E+03  0.62346811502E+03  0.77000000000E+02 0.  0.
<mgrwt>
<rscale>  0 0.26759174E+03</rscale>
<asrwt>0</asrwt>
<pdfrwt beam="1">  1        2 0.16380320E+00 0.26759174E+03</pdfrwt>
<pdfrwt beam="2">  1       -2 0.22303188E-02 0.26759174E+03</pdfrwt>
<totfact> 0.15730724E+04</totfact>
</mgrwt>
</event>
<event>
 4    1  0.6853809E-004  0.1952678E+03  0.7818608E-02  0.1153794E+00
         -2   -1    0    0    0  501 -0.00000000000E+00  0.00000000000E+00  0.19821069585E+02  0.19821069749E+02  0.25500000000E-02 0. -1.
          2   -1    0    0  501    0  0.00000000000E+00 -0.00000000000E+00 -0.48092134383E+03  0.48092134384E+03  0.25500000000E-02 0.  1.
    5000001    1    1    2    0    0 -0.29322150804E+02  0.43788139442E+02 -0.15684077200E+03  0.18249717106E+03  0.77000000000E+02 0.  0.
   -5000001    1    1    2    0    0  0.29322150804E+02 -0.43788139442E+02 -0.30425950225E+03  0.31824524253E+03  0.77000000000E+02 0.  0.
<mgrwt>
<rscale>  0 0.19526777E+03</rscale>
<asrwt>0</asrwt>
<pdfrwt beam="1">  1        2 0.68703042E-01 0.19526777E+03</pdfrwt>
<pdfrwt beam="2">  1       -2 0.28315817E-02 0.19526777E+03</pdfrwt>
<totfact> 0.31478878E+04</totfact>
</mgrwt>
</event>
<event>
 4    1  0.6853809E-004  0.2050183E+03  0.7818608E-02  0.1145573E+00
         -2   -1    0    0    0  501 -0.00000000000E+00  0.00000000000E+00  0.53645244463E+01  0.53645250524E+01  0.25500000000E-02 0. -1.
          2   -1    0    0  501    0  0.00000000000E+00 -0.00000000000E+00 -0.19588170303E+04  0.19588170303E+04  0.25500000000E-02 0.  1.
    5000001    1    1    2    0    0  0.54833089474E+02 -0.31778548993E+02 -0.12039640973E+04  0.12080873691E+04  0.77000000000E+02 0.  0.
   -5000001    1    1    2    0    0 -0.54833089474E+02  0.31778548993E+02 -0.74948840858E+03  0.75609418625E+03  0.77000000000E+02 0.  0.
<mgrwt>
<rscale>  0 0.20501827E+03</rscale>
<asrwt>0</asrwt>
<pdfrwt beam="1">  1        2 0.27983055E+00 0.20501827E+03</pdfrwt>
<pdfrwt beam="2">  1       -2 0.76636193E-03 0.20501827E+03</pdfrwt>
<totfact> 0.28620647E+04</totfact>
</mgrwt>
</event>
<event>
 4    1  0.6853809E-004  0.5296958E+03  0.7818608E-02  0.1006306E+00
         -2   -1    0    0    0  501 -0.00000000000E+00  0.00000000000E+00  0.12345650375E+03  0.12345650377E+03  0.25500000000E-02 0. -1.
          2   -1    0    0  501    0  0.00000000000E+00 -0.00000000000E+00 -0.56817093933E+03  0.56817093933E+03  0.25500000000E-02 0.  1.
    5000001    1    1    2    0    0  0.19914539826E+02 -0.25208324115E+03 -0.24392504469E+03  0.35968177156E+03  0.77000000000E+02 0.  0.
   -5000001    1    1    2    0    0 -0.19914539826E+02  0.25208324115E+03 -0.20078939088E+03  0.33194567154E+03  0.77000000000E+02 0.  0.
<mgrwt>
<rscale>  0 0.52969575E+03</rscale>
<asrwt>0</asrwt>
<pdfrwt beam="1">  1        2 0.81167275E-01 0.52969575E+03</pdfrwt>
<pdfrwt beam="2">  1       -2 0.17636644E-01 0.52969575E+03</pdfrwt>
<totfact> 0.15347669E+03</totfact>
</mgrwt>
</event>
<event>
 4    1  0.6853809E-004  0.2737261E+03  0.7818608E-02  0.1099166E+00
          2   -1    0    0  501    0  0.00000000000E+00  0.00000000000E+00  0.68186448631E+03  0.68186448632E+03  0.25500000000E-02 0.  1.
         -2   -1    0    0    0  501 -0.00000000000E+00 -0.00000000000E+00 -0.27470997604E+02  0.27470997723E+02  0.25500000000E-02 0. -1.
    5000001    1    1    2    0    0 -0.22429121115E+02  0.42008527937E+02  0.59317543919E+03  0.60004490128E+03  0.77000000000E+02 0.  0.
   -5000001    1    1    2    0    0  0.22429121115E+02 -0.42008527937E+02  0.61218049519E+02  0.10929058276E+03  0.77000000000E+02 0.  0.
<mgrwt>
<rscale>  0 0.27372612E+03</rscale>
<asrwt>0</asrwt>
<pdfrwt beam="1">  1        2 0.97409215E-01 0.27372612E+03</pdfrwt>
<pdfrwt beam="2">  1       -2 0.39244281E-02 0.27372612E+03</pdfrwt>
<totfact> 0.13327934E+04</totfact>
</mgrwt>
</event>
<event>
 4    1  0.6853809E-004  0.4040808E+03  0.7818608E-02  0.1042376E+00
         -2   -1    0    0    0  501 -0.00000000000E+00  0.00000000000E+00  0.47810879008E+02  0.47810879076E+02  0.25500000000E-02 0. -1.
          2   -1    0    0  501    0  0.00000000000E+00 -0.00000000000E+00 -0.85378738799E+03  0.85378738799E+03  0.25500000000E-02 0.  1.
    5000001    1    1    2    0    0  0.26345543222E+02 -0.18473905567E+03 -0.42148451315E+03  0.46733371499E+03  0.77000000000E+02 0.  0.
   -5000001    1    1    2    0    0 -0.26345543222E+02  0.18473905567E+03 -0.38449199583E+03  0.43426455208E+03  0.77000000000E+02 0.  0.
<mgrwt>
<rscale>  0 0.40408081E+03</rscale>
<asrwt>0</asrwt>
<pdfrwt beam="1">  1        2 0.12196962E+00 0.40408081E+03</pdfrwt>
<pdfrwt beam="2">  1       -2 0.68301261E-02 0.40408081E+03</pdfrwt>
<totfact> 0.43741390E+03</totfact>
</mgrwt>
</event>
<event>
 4    1  0.6853809E-004  0.2823896E+03  0.7818608E-02  0.1094391E+00
          2   -1    0    0  501    0  0.00000000000E+00  0.00000000000E+00  0.18851917262E+04  0.18851917262E+04  0.25500000000E-02 0.  1.
         -2   -1    0    0    0  501 -0.00000000000E+00 -0.00000000000E+00 -0.10575034597E+02  0.10575034905E+02  0.25500000000E-02 0. -1.
    5000001    1    1    2    0    0 -0.72837221302E+02 -0.27907653559E+02  0.15348628330E+04  0.15387712676E+04  0.77000000000E+02 0.  0.
   -5000001    1    1    2    0    0  0.72837221302E+02  0.27907653559E+02  0.33975385865E+03  0.35699549353E+03  0.77000000000E+02 0.  0.
<mgrwt>
<rscale>  0 0.28238958E+03</rscale>
<asrwt>0</asrwt>
<pdfrwt beam="1">  1        2 0.26931304E+00 0.28238958E+03</pdfrwt>
<pdfrwt beam="2">  1       -2 0.15107196E-02 0.28238958E+03</pdfrwt>
<totfact> 0.11741749E+04</totfact>
</mgrwt>
</event>
<event>
 4    1  0.6853809E-004  0.2439906E+03  0.7818608E-02  0.1117163E+00
         -2   -1    0    0    0  501 -0.00000000000E+00  0.00000000000E+00  0.45530369322E+01  0.45530376462E+01  0.25500000000E-02 0. -1.
          2   -1    0    0  501    0  0.00000000000E+00 -0.00000000000E+00 -0.32687734446E+04  0.32687734446E+04  0.25500000000E-02 0.  1.
    5000001    1    1    2    0    0  0.55118089256E+02 -0.73373230226E+02 -0.19416089793E+04  0.19453010212E+04  0.77000000000E+02 0.  0.
   -5000001    1    1    2    0    0 -0.55118089256E+02  0.73373230226E+02 -0.13226114284E+04  0.13280254611E+04  0.77000000000E+02 0.  0.
<mgrwt>
<rscale>  0 0.24399055E+03</rscale>
<asrwt>0</asrwt>
<pdfrwt beam="1">  1        2 0.46696613E+00 0.24399055E+03</pdfrwt>
<pdfrwt beam="2">  1       -2 0.65043599E-03 0.24399055E+03</pdfrwt>
<totfact> 0.78993184E+03</totfact>
</mgrwt>
</event>
<event>
 4    1  0.6853809E-004  0.3055388E+03  0.7818608E-02  0.1082504E+00
         -2   -1    0    0    0  501 -0.00000000000E+00  0.00000000000E+00  0.17208486822E+02  0.17208487011E+02  0.25500000000E-02 0. -1.
          2   -1    0    0  501    0  0.00000000000E+00 -0.00000000000E+00 -0.13562194725E+04  0.13562194725E+04  0.25500000000E-02 0.  1.
    5000001    1    1    2    0    0 -0.12696910808E+03 -0.30333164277E+02 -0.75576342024E+03  0.77081035452E+03  0.77000000000E+02 0.  0.
   -5000001    1    1    2    0    0  0.12696910808E+03  0.30333164277E+02 -0.58324756545E+03  0.60261760501E+03  0.77000000000E+02 0.  0.
<mgrwt>
<rscale>  0 0.30553877E+03</rscale>
<asrwt>0</asrwt>
<pdfrwt beam="1">  1        2 0.19374557E+00 0.30553877E+03</pdfrwt>
<pdfrwt beam="2">  1       -2 0.24583561E-02 0.30553877E+03</pdfrwt>
<totfact> 0.10561511E+04</totfact>
</mgrwt>
</event>
<event>
 4    1  0.6853809E-004  0.2201177E+03  0.7818608E-02  0.1133795E+00
          2   -1    0    0  501    0  0.00000000000E+00  0.00000000000E+00  0.10256244932E+02  0.10256245249E+02  0.25500000000E-02 0.  1.
         -2   -1    0    0    0  501 -0.00000000000E+00 -0.00000000000E+00 -0.11810320240E+04  0.11810320240E+04  0.25500000000E-02 0. -1.
    5000001    1    1    2    0    0  0.72169572424E+02 -0.17640020886E+02 -0.72488199479E+03  0.73273632631E+03  0.77000000000E+02 0.  0.
   -5000001    1    1    2    0    0 -0.72169572424E+02  0.17640020886E+02 -0.44589378429E+03  0.45855194296E+03  0.77000000000E+02 0.  0.
<mgrwt>
<rscale>  0 0.22011773E+03</rscale>
<asrwt>0</asrwt>
<pdfrwt beam="1">  1        2 0.14651786E-02 0.22011773E+03</pdfrwt>
<pdfrwt beam="2">  1       -2 0.16871877E+00 0.22011773E+03</pdfrwt>
<totfact> 0.19414849E+03</totfact>
</mgrwt>
</event>
<event>
 4    1  0.6853809E-004  0.1955322E+03  0.7818608E-02  0.1153564E+00
          2   -1    0    0  501    0  0.00000000000E+00  0.00000000000E+00  0.69383103448E+03  0.69383103448E+03  0.25500000000E-02 0.  1.
         -2   -1    0    0    0  501 -0.00000000000E+00 -0.00000000000E+00 -0.13775985871E+02  0.13775986107E+02  0.25500000000E-02 0. -1.
    5000001    1    1    2    0    0 -0.55145951573E+02  0.18831809648E+02  0.28472927202E+03  0.30065839648E+03  0.77000000000E+02 0.  0.
   -5000001    1    1    2    0    0  0.55145951573E+02 -0.18831809648E+02  0.39532577658E+03  0.40694862410E+03  0.77000000000E+02 0.  0.
<mgrwt>
<rscale>  0 0.19553216E+03</rscale>
<asrwt>0</asrwt>
<pdfrwt beam="1">  1        2 0.99118752E-01 0.19553216E+03</pdfrwt>
<pdfrwt beam="2">  1       -2 0.19679974E-02 0.19553216E+03</pdfrwt>
<totfact> 0.35549319E+04</totfact>
</mgrwt>
</event>
<event>
 4    1  0.6853809E-004  0.2446476E+03  0.7818608E-02  0.1116735E+00
         -2   -1    0    0    0  501 -0.00000000000E+00  0.00000000000E+00  0.18739221159E+02  0.18739221332E+02  0.25500000000E-02 0. -1.
          2   -1    0    0  501    0  0.00000000000E+00 -0.00000000000E+00 -0.79849145596E+03  0.79849145597E+03  0.25500000000E-02 0.  1.
    5000001    1    1    2    0    0  0.60373415994E+02  0.36297610364E+02 -0.17672453479E+03  0.20523895116E+03  0.77000000000E+02 0.  0.
   -5000001    1    1    2    0    0 -0.60373415994E+02 -0.36297610364E+02 -0.60302770001E+03  0.61199172614E+03  0.77000000000E+02 0.  0.
<mgrwt>
<rscale>  0 0.24464757E+03</rscale>
<asrwt>0</asrwt>
<pdfrwt beam="1">  1        2 0.11407019E+00 0.24464757E+03</pdfrwt>
<pdfrwt beam="2">  1       -2 0.26770321E-02 0.24464757E+03</pdfrwt>
<totfact> 0.19387117E+04</totfact>
</mgrwt>
</event>
<event>
 4    1  0.6853809E-004  0.1954227E+03  0.7818608E-02  0.1153659E+00
          2   -1    0    0  501    0  0.00000000000E+00  0.00000000000E+00  0.15223451630E+04  0.15223451630E+04  0.25500000000E-02 0.  1.
         -2   -1    0    0    0  501 -0.00000000000E+00 -0.00000000000E+00 -0.62715763076E+01  0.62715768260E+01  0.25500000000E-02 0. -1.
    5000001    1    1    2    0    0  0.33096592039E+02 -0.48248905329E+02  0.86731219472E+03  0.87268710566E+03  0.77000000000E+02 0.  0.
   -5000001    1    1    2    0    0 -0.33096592039E+02  0.48248905329E+02  0.64876139199E+03  0.65592963419E+03  0.77000000000E+02 0.  0.
<mgrwt>
<rscale>  0 0.19542266E+03</rscale>
<asrwt>0</asrwt>
<pdfrwt beam="1">  1        2 0.21747780E+00 0.19542266E+03</pdfrwt>
<pdfrwt beam="2">  1       -2 0.89593983E-03 0.19542266E+03</pdfrwt>
<totfact> 0.37201098E+04</totfact>
</mgrwt>
</event>
<event>
 4    1  0.6853809E-004  0.3177275E+03  0.7818608E-02  0.1076700E+00
          2   -1    0    0  501    0  0.00000000000E+00  0.00000000000E+00  0.31312063409E+02  0.31312063513E+02  0.25500000000E-02 0.  1.
         -2   -1    0    0    0  501 -0.00000000000E+00 -0.00000000000E+00 -0.80600559272E+03  0.80600559272E+03  0.25500000000E-02 0. -1.
    5000001    1    1    2    0    0  0.90230220223E+02 -0.10103496972E+03 -0.46896298935E+03  0.49417086431E+03  0.77000000000E+02 0.  0.
   -5000001    1    1    2    0    0 -0.90230220223E+02  0.10103496972E+03 -0.30573053996E+03  0.34314679193E+03  0.77000000000E+02 0.  0.
<mgrwt>
<rscale>  0 0.31772755E+03</rscale>
<asrwt>0</asrwt>
<pdfrwt beam="1">  1        2 0.44731524E-02 0.31772755E+03</pdfrwt>
<pdfrwt beam="2">  1       -2 0.11514364E+00 0.31772755E+03</pdfrwt>
<totfact> 0.11245659E+03</totfact>
</mgrwt>
</event>
<event>
 4    1  0.6853809E-004  0.2198479E+03  0.7818608E-02  0.1133996E+00
         -2   -1    0    0    0  501 -0.00000000000E+00  0.00000000000E+00  0.14653893347E+02  0.14653893569E+02  0.25500000000E-02 0. -1.
          2   -1    0    0  501    0  0.00000000000E+00 -0.00000000000E+00 -0.82457806876E+03  0.82457806876E+03  0.25500000000E-02 0.  1.
    5000001    1    1    2    0    0 -0.75683051610E+02  0.40199574680E+01 -0.32764870120E+03  0.34500254456E+03  0.77000000000E+02 0.  0.
   -5000001    1    1    2    0    0  0.75683051610E+02 -0.40199574680E+01 -0.48227547421E+03  0.49422941777E+03  0.77000000000E+02 0.  0.
<mgrwt>
<rscale>  0 0.21984794E+03</rscale>
<asrwt>0</asrwt>
<pdfrwt beam="1">  1        2 0.11779684E+00 0.21984794E+03</pdfrwt>
<pdfrwt beam="2">  1       -2 0.20934139E-02 0.21984794E+03</pdfrwt>
<totfact> 0.26594825E+04</totfact>
</mgrwt>
</event>
<event>
 4    1  0.6853809E-004  0.2489748E+03  0.7818608E-02  0.1113954E+00
         -2   -1    0    0    0  501 -0.00000000000E+00  0.00000000000E+00  0.60265844764E+01  0.60265850159E+01  0.25500000000E-02 0. -1.
          2   -1    0    0  501    0  0.00000000000E+00 -0.00000000000E+00 -0.25714585688E+04  0.25714585688E+04  0.25500000000E-02 0.  1.
    5000001    1    1    2    0    0  0.88929861201E+02  0.15696911811E+02 -0.89354312781E+03  0.90138961305E+03  0.77000000000E+02 0.  0.
   -5000001    1    1    2    0    0 -0.88929861201E+02 -0.15696911811E+02 -0.16718888565E+04  0.16760955408E+04  0.77000000000E+02 0.  0.
<mgrwt>
<rscale>  0 0.24897480E+03</rscale>
<asrwt>0</asrwt>
<pdfrwt beam="1">  1        2 0.36735052E+00 0.24897480E+03</pdfrwt>
<pdfrwt beam="2">  1       -2 0.86094233E-03 0.24897480E+03</pdfrwt>
<totfact> 0.12217554E+04</totfact>
</mgrwt>
</event>
<event>
 4    1  0.6853809E-004  0.2870123E+03  0.7818608E-02  0.1091919E+00
         -2   -1    0    0    0  501 -0.00000000000E+00  0.00000000000E+00  0.15228701021E+02  0.15228701234E+02  0.25500000000E-02 0. -1.
          2   -1    0    0  501    0  0.00000000000E+00 -0.00000000000E+00 -0.13523163759E+04  0.13523163759E+04  0.25500000000E-02 0.  1.
    5000001    1    1    2    0    0  0.11156179694E+03 -0.18008215596E+02 -0.87594459069E+03  0.88655414743E+03  0.77000000000E+02 0.  0.
   -5000001    1    1    2    0    0 -0.11156179694E+03  0.18008215596E+02 -0.46114308422E+03  0.48099092974E+03  0.77000000000E+02 0.  0.
<mgrwt>
<rscale>  0 0.28701235E+03</rscale>
<asrwt>0</asrwt>
<pdfrwt beam="1">  1        2 0.19318798E+00 0.28701235E+03</pdfrwt>
<pdfrwt beam="2">  1       -2 0.21755296E-02 0.28701235E+03</pdfrwt>
<totfact> 0.12694260E+04</totfact>
</mgrwt>
</event>
<event>
 4    1  0.6853809E-004  0.2078135E+03  0.7818608E-02  0.1143309E+00
         -2   -1    0    0    0  501 -0.00000000000E+00  0.00000000000E+00  0.11465263092E+02  0.11465263375E+02  0.25500000000E-02 0. -1.
          2   -1    0    0  501    0  0.00000000000E+00 -0.00000000000E+00 -0.94168007908E+03  0.94168007908E+03  0.25500000000E-02 0.  1.
    5000001    1    1    2    0    0  0.77248641271E+01 -0.69338710942E+02 -0.46640168125E+03  0.47783580719E+03  0.77000000000E+02 0.  0.
   -5000001    1    1    2    0    0 -0.77248641271E+01  0.69338710942E+02 -0.46381313474E+03  0.47530953527E+03  0.77000000000E+02 0.  0.
<mgrwt>
<rscale>  0 0.20781347E+03</rscale>
<asrwt>0</asrwt>
<pdfrwt beam="1">  1        2 0.13452568E+00 0.20781347E+03</pdfrwt>
<pdfrwt beam="2">  1       -2 0.16378954E-02 0.20781347E+03</pdfrwt>
<totfact> 0.32013354E+04</totfact>
</mgrwt>
</event>
<event>
 4    1  0.6853809E-004  0.2535044E+03  0.7818608E-02  0.1111110E+00
          2   -1    0    0  501    0  0.00000000000E+00  0.00000000000E+00  0.94294128687E+03  0.94294128688E+03  0.25500000000E-02 0.  1.
         -2   -1    0    0    0  501 -0.00000000000E+00 -0.00000000000E+00 -0.17038307849E+02  0.17038308040E+02  0.25500000000E-02 0. -1.
    5000001    1    1    2    0    0 -0.12475030803E+02  0.96848679367E+02  0.37005191988E+03  0.39038790516E+03  0.77000000000E+02 0.  0.
   -5000001    1    1    2    0    0  0.12475030803E+02 -0.96848679367E+02  0.55585105914E+03  0.56959168975E+03  0.77000000000E+02 0.  0.
<mgrwt>
<rscale>  0 0.25350443E+03</rscale>
<asrwt>0</asrwt>
<pdfrwt beam="1">  1        2 0.13470594E+00 0.25350443E+03</pdfrwt>
<pdfrwt beam="2">  1       -2 0.24340433E-02 0.25350443E+03</pdfrwt>
<totfact> 0.18086896E+04</totfact>
</mgrwt>
</event>
<event>
 4    1  0.6853809E-004  0.2878096E+03  0.7818608E-02  0.1091498E+00
          2   -1    0    0  501    0  0.00000000000E+00  0.00000000000E+00  0.11516154778E+04  0.11516154778E+04  0.25500000000E-02 0.  1.
         -2   -1    0    0    0  501 -0.00000000000E+00 -0.00000000000E+00 -0.17982208085E+02  0.17982208266E+02  0.25500000000E-02 0. -1.
    5000001    1    1    2    0    0 -0.62953110558E+02  0.95281331279E+02  0.73623150075E+03  0.74900430501E+03  0.77000000000E+02 0.  0.
   -5000001    1    1    2    0    0  0.62953110558E+02 -0.95281331279E+02  0.39740176898E+03  0.42059338108E+03  0.77000000000E+02 0.  0.
<mgrwt>
<rscale>  0 0.28780958E+03</rscale>
<asrwt>0</asrwt>
<pdfrwt beam="1">  1        2 0.16451655E+00 0.28780958E+03</pdfrwt>
<pdfrwt beam="2">  1       -2 0.25688860E-02 0.28780958E+03</pdfrwt>
<totfact> 0.12715863E+04</totfact>
</mgrwt>
</event>
<event>
 4    1  0.6853809E-004  0.2609153E+03  0.7818608E-02  0.1106595E+00
         -2   -1    0    0    0  501 -0.00000000000E+00  0.00000000000E+00  0.20557352291E+02  0.20557352449E+02  0.25500000000E-02 0. -1.
          2   -1    0    0  501    0  0.00000000000E+00 -0.00000000000E+00 -0.82788879074E+03  0.82788879074E+03  0.25500000000E-02 0.  1.
    5000001    1    1    2    0    0 -0.52515307856E+01 -0.75460082958E+02 -0.16540794395E+03  0.19751098860E+03  0.77000000000E+02 0.  0.
   -5000001    1    1    2    0    0  0.52515307856E+01  0.75460082958E+02 -0.64192349450E+03  0.65093515459E+03  0.77000000000E+02 0.  0.
<mgrwt>
<rscale>  0 0.26091532E+03</rscale>
<asrwt>0</asrwt>
<pdfrwt beam="1">  1        2 0.11826981E+00 0.26091532E+03</pdfrwt>
<pdfrwt beam="2">  1       -2 0.29367651E-02 0.26091532E+03</pdfrwt>
<totfact> 0.16209265E+04</totfact>
</mgrwt>
</event>
<event>
 4    1  0.6853809E-004  0.2122720E+03  0.7818608E-02  0.1139779E+00
         -2   -1    0    0    0  501 -0.00000000000E+00  0.00000000000E+00  0.16805180471E+02  0.16805180664E+02  0.25500000000E-02 0. -1.
          2   -1    0    0  501    0  0.00000000000E+00 -0.00000000000E+00 -0.67032038037E+03  0.67032038037E+03  0.25500000000E-02 0.  1.
    5000001    1    1    2    0    0 -0.31077401065E+02  0.64048413888E+02 -0.37973490032E+03  0.39394872598E+03  0.77000000000E+02 0.  0.
   -5000001    1    1    2    0    0  0.31077401065E+02 -0.64048413888E+02 -0.27378029957E+03  0.29317683505E+03  0.77000000000E+02 0.  0.
<mgrwt>
<rscale>  0 0.21227204E+03</rscale>
<asrwt>0</asrwt>
<pdfrwt beam="1">  1        2 0.95760038E-01 0.21227204E+03</pdfrwt>
<pdfrwt beam="2">  1       -2 0.24007405E-02 0.21227204E+03</pdfrwt>
<totfact> 0.27825064E+04</totfact>
</mgrwt>
</event>
<event>
 4    1  0.6853809E-004  0.3405559E+03  0.7818608E-02  0.1066559E+00
          2   -1    0    0  501    0  0.00000000000E+00  0.00000000000E+00  0.41303460284E+03  0.41303460284E+03  0.25500000000E-02 0.  1.
         -2   -1    0    0    0  501 -0.00000000000E+00 -0.00000000000E+00 -0.70198917541E+02  0.70198917588E+02  0.25500000000E-02 0. -1.
    5000001    1    1    2    0    0  0.22963151542E+01  0.13169138756E+03  0.27871268225E+03  0.31773834183E+03  0.77000000000E+02 0.  0.
   -5000001    1    1    2    0    0 -0.22963151542E+01 -0.13169138756E+03  0.64123003047E+02  0.16549517860E+03  0.77000000000E+02 0.  0.
<mgrwt>
<rscale>  0 0.34055591E+03</rscale>
<asrwt>0</asrwt>
<pdfrwt beam="1">  1        2 0.59004944E-01 0.34055591E+03</pdfrwt>
<pdfrwt beam="2">  1       -2 0.10028417E-01 0.34055591E+03</pdfrwt>
<totfact> 0.55395075E+03</totfact>
</mgrwt>
</event>
<event>
 4    1  0.6853809E-004  0.2523072E+03  0.7818608E-02  0.1111855E+00
         -2   -1    0    0    0  501 -0.00000000000E+00  0.00000000000E+00  0.15954155291E+02  0.15954155494E+02  0.25500000000E-02 0. -1.
          2   -1    0    0  501    0  0.00000000000E+00 -0.00000000000E+00 -0.99752862409E+03  0.99752862409E+03  0.25500000000E-02 0.  1.
    5000001    1    1    2    0    0 -0.34701665488E+02 -0.81444296187E+02 -0.67696982664E+03  0.68706224256E+03  0.77000000000E+02 0.  0.
   -5000001    1    1    2    0    0  0.34701665488E+02  0.81444296187E+02 -0.30460464216E+03  0.32642053703E+03  0.77000000000E+02 0.  0.
<mgrwt>
<rscale>  0 0.25230717E+03</rscale>
<asrwt>0</asrwt>
<pdfrwt beam="1">  1        2 0.14250405E+00 0.25230717E+03</pdfrwt>
<pdfrwt beam="2">  1       -2 0.22791657E-02 0.25230717E+03</pdfrwt>
<totfact> 0.18481182E+04</totfact>
</mgrwt>
</event>
<event>
 4    1  0.6853809E-004  0.1812743E+03  0.7818608E-02  0.1166575E+00
          2   -1    0    0  501    0  0.00000000000E+00  0.00000000000E+00  0.11050581646E+04  0.11050581647E+04  0.25500000000E-02 0.  1.
         -2   -1    0    0    0  501 -0.00000000000E+00 -0.00000000000E+00 -0.74340788645E+01  0.74340793019E+01  0.25500000000E-02 0. -1.
    5000001    1    1    2    0    0  0.23778961598E+02  0.29542361290E+02  0.72751554799E+03  0.73256130302E+03  0.77000000000E+02 0.  0.
   -5000001    1    1    2    0    0 -0.23778961598E+02 -0.29542361290E+02  0.37010853780E+03  0.37993094093E+03  0.77000000000E+02 0.  0.
<mgrwt>
<rscale>  0 0.18127427E+03</rscale>
<asrwt>0</asrwt>
<pdfrwt beam="1">  1        2 0.15786545E+00 0.18127427E+03</pdfrwt>
<pdfrwt beam="2">  1       -2 0.10620113E-02 0.18127427E+03</pdfrwt>
<totfact> 0.47752405E+04</totfact>
</mgrwt>
</event>
<event>
 4    1  0.6853809E-004  0.1911753E+03  0.7818608E-02  0.1157406E+00
          2   -1    0    0  501    0  0.00000000000E+00  0.00000000000E+00  0.39887704554E+02  0.39887704636E+02  0.25500000000E-02 0.  1.
         -2   -1    0    0    0  501 -0.00000000000E+00 -0.00000000000E+00 -0.22906808511E+03  0.22906808513E+03  0.25500000000E-02 0. -1.
    5000001    1    1    2    0    0  0.53262453779E+02 -0.18965694088E+02 -0.89837275486E+02  0.13113474979E+03  0.77000000000E+02 0.  0.
   -5000001    1    1    2    0    0 -0.53262453779E+02  0.18965694088E+02 -0.99343105071E+02  0.13782103998E+03  0.77000000000E+02 0.  0.
<mgrwt>
<rscale>  0 0.19117531E+03</rscale>
<asrwt>0</asrwt>
<pdfrwt beam="1">  1        2 0.56982437E-02 0.19117531E+03</pdfrwt>
<pdfrwt beam="2">  1       -2 0.32724011E-01 0.19117531E+03</pdfrwt>
<totfact> 0.11106509E+04</totfact>
</mgrwt>
</event>
<event>
 4    1  0.6853809E-004  0.5159678E+03  0.7818608E-02  0.1009693E+00
          2   -1    0    0  501    0  0.00000000000E+00  0.00000000000E+00  0.19412731250E+04  0.19412731250E+04  0.25500000000E-02 0.  1.
         -2   -1    0    0    0  501 -0.00000000000E+00 -0.00000000000E+00 -0.34284561654E+02  0.34284561749E+02  0.25500000000E-02 0. -1.
    5000001    1    1    2    0    0 -0.10505576925E+02 -0.24352116844E+03  0.10868880638E+04  0.11165426951E+04  0.77000000000E+02 0.  0.
   -5000001    1    1    2    0    0  0.10505576925E+02  0.24352116844E+03  0.82010049954E+03  0.85901499170E+03  0.77000000000E+02 0.  0.
<mgrwt>
<rscale>  0 0.51596782E+03</rscale>
<asrwt>0</asrwt>
<pdfrwt beam="1">  1        2 0.27732483E+00 0.51596782E+03</pdfrwt>
<pdfrwt beam="2">  1       -2 0.48977928E-02 0.51596782E+03</pdfrwt>
<totfact> 0.18847844E+03</totfact>
</mgrwt>
</event>
<event>
 4    1  0.6853809E-004  0.3189061E+03  0.7818608E-02  0.1076154E+00
          2   -1    0    0  501    0  0.00000000000E+00  0.00000000000E+00  0.28005805958E+03  0.28005805959E+03  0.25500000000E-02 0.  1.
         -2   -1    0    0    0  501 -0.00000000000E+00 -0.00000000000E+00 -0.90785742016E+02  0.90785742051E+02  0.25500000000E-02 0. -1.
    5000001    1    1    2    0    0  0.13973897917E+02  0.95066414381E+02  0.21244380915E+03  0.24554890554E+03  0.77000000000E+02 0.  0.
   -5000001    1    1    2    0    0 -0.13973897917E+02 -0.95066414381E+02 -0.23171491588E+02  0.12529489610E+03  0.77000000000E+02 0.  0.
<mgrwt>
<rscale>  0 0.31890612E+03</rscale>
<asrwt>0</asrwt>
<pdfrwt beam="1">  1        2 0.40008294E-01 0.31890612E+03</pdfrwt>
<pdfrwt beam="2">  1       -2 0.12969392E-01 0.31890612E+03</pdfrwt>
<totfact> 0.55621089E+03</totfact>
</mgrwt>
</event>
<event>
 4    1  0.6853809E-004  0.3912312E+03  0.7818608E-02  0.1046859E+00
          2   -1    0    0  501    0  0.00000000000E+00  0.00000000000E+00  0.22945767419E+03  0.22945767420E+03  0.25500000000E-02 0.  1.
         -2   -1    0    0    0  501 -0.00000000000E+00 -0.00000000000E+00 -0.16676478165E+03  0.16676478166E+03  0.25500000000E-02 0. -1.
    5000001    1    1    2    0    0  0.40104048660E+02 -0.74678289152E+02 -0.12926838647E+03  0.17269770505E+03  0.77000000000E+02 0.  0.
   -5000001    1    1    2    0    0 -0.40104048660E+02  0.74678289152E+02  0.19196127901E+03  0.22352475082E+03  0.77000000000E+02 0.  0.
<mgrwt>
<rscale>  0 0.39123118E+03</rscale>
<asrwt>0</asrwt>
<pdfrwt beam="1">  1        2 0.32779668E-01 0.39123118E+03</pdfrwt>
<pdfrwt beam="2">  1       -2 0.23823540E-01 0.39123118E+03</pdfrwt>
<totfact> 0.24789917E+03</totfact>
</mgrwt>
</event>
<event>
 4    1  0.6853809E-004  0.1976097E+03  0.7818608E-02  0.1151771E+00
         -2   -1    0    0    0  501 -0.00000000000E+00  0.00000000000E+00  0.10874395734E+02  0.10874396033E+02  0.25500000000E-02 0. -1.
          2   -1    0    0  501    0  0.00000000000E+00 -0.00000000000E+00 -0.89774201210E+03  0.89774201211E+03  0.25500000000E-02 0.  1.
    5000001    1    1    2    0    0 -0.34195709698E+02  0.51609862637E+02 -0.44661131618E+03  0.45740965472E+03  0.77000000000E+02 0.  0.
   -5000001    1    1    2    0    0  0.34195709698E+02 -0.51609862637E+02 -0.44025630019E+03  0.45120675343E+03  0.77000000000E+02 0.  0.
<mgrwt>
<rscale>  0 0.19760974E+03</rscale>
<asrwt>0</asrwt>
<pdfrwt beam="1">  1        2 0.12824881E+00 0.19760974E+03</pdfrwt>
<pdfrwt beam="2">  1       -2 0.15534857E-02 0.19760974E+03</pdfrwt>
<totfact> 0.36649451E+04</totfact>
</mgrwt>
</event>
<event>
 4    1  0.6853809E-004  0.3501739E+03  0.7818608E-02  0.1062544E+00
         -2   -1    0    0    0  501 -0.00000000000E+00  0.00000000000E+00  0.22729563986E+02  0.22729564129E+02  0.25500000000E-02 0.  1.
          2   -1    0    0  501    0  0.00000000000E+00 -0.00000000000E+00 -0.13487036243E+04  0.13487036243E+04  0.25500000000E-02 0. -1.
    5000001    1    1    2    0    0 -0.81971592989E+02  0.13418351088E+03 -0.65760456628E+03  0.68051254378E+03  0.77000000000E+02 0.  0.
   -5000001    1    1    2    0    0  0.81971592989E+02 -0.13418351088E+03 -0.66836949406E+03  0.69092064468E+03  0.77000000000E+02 0.  0.
<mgrwt>
<rscale>  0 0.35017393E+03</rscale>
<asrwt>0</asrwt>
<pdfrwt beam="1">  1        2 0.19267190E+00 0.35017393E+03</pdfrwt>
<pdfrwt beam="2">  1       -2 0.32470814E-02 0.35017393E+03</pdfrwt>
<totfact> 0.70531814E+03</totfact>
</mgrwt>
</event>
<event>
 4    1  0.6853809E-004  0.2688127E+03  0.7818608E-02  0.1101961E+00
          2   -1    0    0  501    0  0.00000000000E+00  0.00000000000E+00  0.27204933979E+03  0.27204933981E+03  0.25500000000E-02 0.  1.
         -2   -1    0    0    0  501 -0.00000000000E+00 -0.00000000000E+00 -0.66403636926E+02  0.66403636975E+02  0.25500000000E-02 0. -1.
    5000001    1    1    2    0    0  0.72929886923E+02  0.23248900563E+02  0.20257384396E+03  0.22983568487E+03  0.77000000000E+02 0.  0.
   -5000001    1    1    2    0    0 -0.72929886923E+02 -0.23248900563E+02  0.30718589063E+01  0.10861729191E+03  0.77000000000E+02 0.  0.
<mgrwt>
<rscale>  0 0.26881269E+03</rscale>
<asrwt>0</asrwt>
<pdfrwt beam="1">  1        2 0.38864192E-01 0.26881269E+03</pdfrwt>
<pdfrwt beam="2">  1       -2 0.94862338E-02 0.26881269E+03</pdfrwt>
<totfact> 0.94254987E+03</totfact>
</mgrwt>
</event>
<event>
 4    1  0.6853809E-004  0.3877307E+03  0.7818608E-02  0.1048113E+00
          2   -1    0    0  501    0  0.00000000000E+00  0.00000000000E+00  0.14711135265E+04  0.14711135265E+04  0.25500000000E-02 0.  1.
         -2   -1    0    0    0  501 -0.00000000000E+00 -0.00000000000E+00 -0.25547839974E+02  0.25547840102E+02  0.25500000000E-02 0. -1.
    5000001    1    1    2    0    0  0.12234931537E+03 -0.10776502320E+03  0.99769125737E+03  0.10138537864E+04  0.77000000000E+02 0.  0.
   -5000001    1    1    2    0    0 -0.12234931537E+03  0.10776502320E+03  0.44787442917E+03  0.48280758020E+03  0.77000000000E+02 0.  0.
<mgrwt>
<rscale>  0 0.38773070E+03</rscale>
<asrwt>0</asrwt>
<pdfrwt beam="1">  1        2 0.21015912E+00 0.38773070E+03</pdfrwt>
<pdfrwt beam="2">  1       -2 0.36496907E-02 0.38773070E+03</pdfrwt>
<totfact> 0.51125336E+03</totfact>
</mgrwt>
</event>
<event>
 4    1  0.6853809E-004  0.3451202E+03  0.7818608E-02  0.1064636E+00
          2   -1    0    0  501    0  0.00000000000E+00  0.00000000000E+00  0.14237140185E+03  0.14237140187E+03  0.25500000000E-02 0.  1.
         -2   -1    0    0    0  501 -0.00000000000E+00 -0.00000000000E+00 -0.20915002570E+03  0.20915002572E+03  0.25500000000E-02 0. -1.
    5000001    1    1    2    0    0 -0.50055881487E+02  0.12639224961E+03 -0.10801065399E+03  0.18993655100E+03  0.77000000000E+02 0.  0.
   -5000001    1    1    2    0    0  0.50055881487E+02 -0.12639224961E+03  0.41232030132E+02  0.16158487658E+03  0.77000000000E+02 0.  0.
<mgrwt>
<rscale>  0 0.34512017E+03</rscale>
<asrwt>0</asrwt>
<pdfrwt beam="1">  1        2 0.20338772E-01 0.34512017E+03</pdfrwt>
<pdfrwt beam="2">  1       -2 0.29878575E-01 0.34512017E+03</pdfrwt>
<totfact> 0.28175582E+03</totfact>
</mgrwt>
</event>
<event>
 4    1  0.6853809E-004  0.3482886E+03  0.7818608E-02  0.1063320E+00
         -2   -1    0    0    0  501 -0.00000000000E+00  0.00000000000E+00  0.22566091814E+02  0.22566091959E+02  0.25500000000E-02 0. -1.
          2   -1    0    0  501    0  0.00000000000E+00 -0.00000000000E+00 -0.13438854570E+04  0.13438854570E+04  0.25500000000E-02 0.  1.
    5000001    1    1    2    0    0  0.14827168612E+03  0.18233948349E+02 -0.83960284072E+03  0.85625866414E+03  0.77000000000E+02 0.  0.
   -5000001    1    1    2    0    0 -0.14827168612E+03 -0.18233948349E+02 -0.48171652450E+03  0.51019288485E+03  0.77000000000E+02 0.  0.
<mgrwt>
<rscale>  0 0.34828863E+03</rscale>
<asrwt>0</asrwt>
<pdfrwt beam="1">  1        2 0.19198359E+00 0.34828863E+03</pdfrwt>
<pdfrwt beam="2">  1       -2 0.32237283E-02 0.34828863E+03</pdfrwt>
<totfact> 0.71712429E+03</totfact>
</mgrwt>
</event>
<event>
 4    1  0.6853809E-004  0.3072031E+03  0.7818608E-02  0.1081694E+00
          2   -1    0    0  501    0  0.00000000000E+00  0.00000000000E+00  0.11243788825E+04  0.11243788825E+04  0.25500000000E-02 0.  1.
         -2   -1    0    0    0  501 -0.00000000000E+00 -0.00000000000E+00 -0.20983529384E+02  0.20983529539E+02  0.25500000000E-02 0. -1.
    5000001    1    1    2    0    0 -0.59859288555E+02 -0.87154931575E+02  0.85194770407E+03  0.86192981558E+03  0.77000000000E+02 0.  0.
   -5000001    1    1    2    0    0  0.59859288555E+02  0.87154931575E+02  0.25144764906E+03  0.28343259647E+03  0.77000000000E+02 0.  0.
<mgrwt>
<rscale>  0 0.30720311E+03</rscale>
<asrwt>0</asrwt>
<pdfrwt beam="1">  1        2 0.16062558E+00 0.30720311E+03</pdfrwt>
<pdfrwt beam="2">  1       -2 0.29976466E-02 0.30720311E+03</pdfrwt>
<totfact> 0.10485988E+04</totfact>
</mgrwt>
</event>
<event>
 4    1  0.6853809E-004  0.1957711E+03  0.7818608E-02  0.1153357E+00
          2   -1    0    0  501    0  0.00000000000E+00  0.00000000000E+00  0.35837440147E+04  0.35837440147E+04  0.25500000000E-02 0.  1.
         -2   -1    0    0    0  501 -0.00000000000E+00 -0.00000000000E+00 -0.26736227128E+01  0.26736239289E+01  0.25500000000E-02 0. -1.
    5000001    1    1    2    0    0 -0.41132264237E+02  0.28452855146E+01  0.98102664687E+03  0.98490722440E+03  0.77000000000E+02 0.  0.
   -5000001    1    1    2    0    0  0.41132264237E+02 -0.28452855146E+01  0.26000437451E+04  0.26015104142E+04  0.77000000000E+02 0.  0.
<mgrwt>
<rscale>  0 0.19577111E+03</rscale>
<asrwt>0</asrwt>
<pdfrwt beam="1">  1        2 0.51196391E+00 0.19577111E+03</pdfrwt>
<pdfrwt beam="2">  1       -2 0.38194583E-03 0.19577111E+03</pdfrwt>
<totfact> 0.11220232E+04</totfact>
</mgrwt>
</event>
<event>
 4    1  0.6853809E-004  0.2794198E+03  0.7818608E-02  0.1096006E+00
         -2   -1    0    0    0  501 -0.00000000000E+00  0.00000000000E+00  0.17146741629E+02  0.17146741818E+02  0.25500000000E-02 0. -1.
          2   -1    0    0  501    0  0.00000000000E+00 -0.00000000000E+00 -0.11383420605E+04  0.11383420605E+04  0.25500000000E-02 0.  1.
    5000001    1    1    2    0    0  0.20580595885E+02 -0.89788353863E+02 -0.26515127193E+03  0.29106649829E+03  0.77000000000E+02 0.  0.
   -5000001    1    1    2    0    0 -0.20580595885E+02  0.89788353863E+02 -0.85604404694E+03  0.86442230404E+03  0.77000000000E+02 0.  0.
<mgrwt>
<rscale>  0 0.27941981E+03</rscale>
<asrwt>0</asrwt>
<pdfrwt beam="1">  1        2 0.16262025E+00 0.27941981E+03</pdfrwt>
<pdfrwt beam="2">  1       -2 0.24495353E-02 0.27941981E+03</pdfrwt>
<totfact> 0.13863893E+04</totfact>
</mgrwt>
</event>
<event>
 4    1  0.6853809E-004  0.2893489E+03  0.7818608E-02  0.1090690E+00
          2   -1    0    0  501    0  0.00000000000E+00  0.00000000000E+00  0.63387870264E+03  0.63387870264E+03  0.25500000000E-02 0.  1.
         -2   -1    0    0    0  501 -0.00000000000E+00 -0.00000000000E+00 -0.33020038372E+02  0.33020038470E+02  0.25500000000E-02 0. -1.
    5000001    1    1    2    0    0  0.52558057748E+02 -0.97777140451E+02  0.41972448829E+03  0.44093124713E+03  0.77000000000E+02 0.  0.
   -5000001    1    1    2    0    0 -0.52558057748E+02  0.97777140451E+02  0.18113417598E+03  0.22596749398E+03  0.77000000000E+02 0.  0.
<mgrwt>
<rscale>  0 0.28934892E+03</rscale>
<asrwt>0</asrwt>
<pdfrwt beam="1">  1        2 0.90554096E-01 0.28934892E+03</pdfrwt>
<pdfrwt beam="2">  1       -2 0.47171486E-02 0.28934892E+03</pdfrwt>
<totfact> 0.11017749E+04</totfact>
</mgrwt>
</event>
<event>
 4    1  0.6853809E-004  0.3593568E+03  0.7818608E-02  0.1058839E+00
          2   -1    0    0  501    0  0.00000000000E+00  0.00000000000E+00  0.89619994171E+03  0.89619994171E+03  0.25500000000E-02 0.  1.
         -2   -1    0    0    0  501 -0.00000000000E+00 -0.00000000000E+00 -0.36023581648E+02  0.36023581738E+02  0.25500000000E-02 0. -1.
    5000001    1    1    2    0    0  0.45649158015E+01 -0.99757197282E+02  0.98047870935E+02  0.15973328351E+03  0.77000000000E+02 0.  0.
   -5000001    1    1    2    0    0 -0.45649158015E+01  0.99757197282E+02  0.76212848913E+03  0.77249023994E+03  0.77000000000E+02 0.  0.
<mgrwt>
<rscale>  0 0.35935682E+03</rscale>
<asrwt>0</asrwt>
<pdfrwt beam="1">  1        2 0.12802855E+00 0.35935682E+03</pdfrwt>
<pdfrwt beam="2">  1       -2 0.51462266E-02 0.35935682E+03</pdfrwt>
<totfact> 0.63514134E+03</totfact>
</mgrwt>
</event>
<event>
 4    1  0.6853809E-004  0.3335876E+03  0.7818608E-02  0.1069560E+00
         -2   -1    0    0    0  501 -0.00000000000E+00  0.00000000000E+00  0.37859013292E+02  0.37859013378E+02  0.25500000000E-02 0. -1.
          2   -1    0    0  501    0  0.00000000000E+00 -0.00000000000E+00 -0.73483608925E+03  0.73483608926E+03  0.25500000000E-02 0.  1.
    5000001    1    1    2    0    0  0.99804154930E+01  0.13953470260E+03 -0.23688074031E+03  0.28567643770E+03  0.77000000000E+02 0.  0.
   -5000001    1    1    2    0    0 -0.99804154930E+01 -0.13953470260E+03 -0.46009633565E+03  0.48701866494E+03  0.77000000000E+02 0.  0.
<mgrwt>
<rscale>  0 0.33358759E+03</rscale>
<asrwt>0</asrwt>
<pdfrwt beam="1">  1        2 0.10497658E+00 0.33358759E+03</pdfrwt>
<pdfrwt beam="2">  1       -2 0.54084309E-02 0.33358759E+03</pdfrwt>
<totfact> 0.75418412E+03</totfact>
</mgrwt>
</event>
<event>
 4    1  0.6853809E-004  0.1881734E+03  0.7818608E-02  0.1160119E+00
         -2   -1    0    0    0  501 -0.00000000000E+00  0.00000000000E+00  0.16504096519E+02  0.16504096716E+02  0.25500000000E-02 0. -1.
          2   -1    0    0  501    0  0.00000000000E+00 -0.00000000000E+00 -0.53637047997E+03  0.53637047998E+03  0.25500000000E-02 0.  1.
    5000001    1    1    2    0    0 -0.34766286933E+02 -0.41213412568E+02 -0.27171137225E+03  0.28751227781E+03  0.77000000000E+02 0.  0.
   -5000001    1    1    2    0    0  0.34766286933E+02  0.41213412568E+02 -0.24815501121E+03  0.26536229888E+03  0.77000000000E+02 0.  0.
<mgrwt>
<rscale>  0 0.18817343E+03</rscale>
<asrwt>0</asrwt>
<pdfrwt beam="1">  1        2 0.76624343E-01 0.18817343E+03</pdfrwt>
<pdfrwt beam="2">  1       -2 0.23577284E-02 0.18817343E+03</pdfrwt>
<totfact> 0.36444736E+04</totfact>
</mgrwt>
</event>
<event>
 4    1  0.6853809E-004  0.1972101E+03  0.7818608E-02  0.1152114E+00
         -2   -1    0    0    0  501 -0.00000000000E+00  0.00000000000E+00  0.35133021444E+01  0.35133030698E+01  0.25500000000E-02 0. -1.
          2   -1    0    0  501    0  0.00000000000E+00 -0.00000000000E+00 -0.27674675819E+04  0.27674675819E+04  0.25500000000E-02 0.  1.
    5000001    1    1    2    0    0  0.17873193706E+02  0.39819582509E+02 -0.77130364977E+03  0.77636548761E+03  0.77000000000E+02 0.  0.
   -5000001    1    1    2    0    0 -0.17873193706E+02 -0.39819582509E+02 -0.19926506299E+04  0.19946153973E+04  0.77000000000E+02 0.  0.
<mgrwt>
<rscale>  0 0.19721005E+03</rscale>
<asrwt>0</asrwt>
<pdfrwt beam="1">  1        2 0.39535111E+00 0.19721005E+03</pdfrwt>
<pdfrwt beam="2">  1       -2 0.50190215E-03 0.19721005E+03</pdfrwt>
<totfact> 0.21027227E+04</totfact>
</mgrwt>
</event>
<event>
 4    1  0.6853809E-004  0.3892817E+03  0.7818608E-02  0.1047556E+00
          2   -1    0    0  501    0  0.00000000000E+00  0.00000000000E+00  0.12500285235E+04  0.12500285235E+04  0.25500000000E-02 0.  1.
         -2   -1    0    0    0  501 -0.00000000000E+00 -0.00000000000E+00 -0.30307358308E+02  0.30307358415E+02  0.25500000000E-02 0. -1.
    5000001    1    1    2    0    0 -0.15092644701E+03  0.92959020138E+02  0.68599797246E+03  0.71270077175E+03  0.77000000000E+02 0.  0.
   -5000001    1    1    2    0    0  0.15092644701E+03 -0.92959020138E+02  0.53372319269E+03  0.56763511012E+03  0.77000000000E+02 0.  0.
<mgrwt>
<rscale>  0 0.38928171E+03</rscale>
<asrwt>0</asrwt>
<pdfrwt beam="1">  1        2 0.17857548E+00 0.38928171E+03</pdfrwt>
<pdfrwt beam="2">  1       -2 0.43296232E-02 0.38928171E+03</pdfrwt>
<totfact> 0.51585761E+03</totfact>
</mgrwt>
</event>
<event>
 4    1  0.6853809E-004  0.2468667E+03  0.7818608E-02  0.1115301E+00
          2   -1    0    0  501    0  0.00000000000E+00  0.00000000000E+00  0.21542999324E+04  0.21542999324E+04  0.25500000000E-02 0.  1.
         -2   -1    0    0    0  501 -0.00000000000E+00 -0.00000000000E+00 -0.70722717288E+01  0.70722721885E+01  0.25500000000E-02 0. -1.
    5000001    1    1    2    0    0 -0.56773679482E+00  0.49949451078E+02  0.17961992333E+04  0.17985427312E+04  0.77000000000E+02 0.  0.
   -5000001    1    1    2    0    0  0.56773679482E+00 -0.49949451078E+02  0.35102842730E+03  0.36282947339E+03  0.77000000000E+02 0.  0.
<mgrwt>
<rscale>  0 0.24686673E+03</rscale>
<asrwt>0</asrwt>
<pdfrwt beam="1">  1        2 0.30775735E+00 0.24686673E+03</pdfrwt>
<pdfrwt beam="2">  1       -2 0.10103238E-02 0.24686673E+03</pdfrwt>
<totfact> 0.15552372E+04</totfact>
</mgrwt>
</event>
<event>
 4    1  0.6853809E-004  0.1559160E+03  0.7818608E-02  0.1193386E+00
         -2   -1    0    0    0  501 -0.00000000000E+00  0.00000000000E+00  0.22360323951E+02  0.22360324096E+02  0.25500000000E-02 0. -1.
          2   -1    0    0  501    0  0.00000000000E+00 -0.00000000000E+00 -0.27179618768E+03  0.27179618769E+03  0.25500000000E-02 0.  1.
    5000001    1    1    2    0    0 -0.70544935237E+01 -0.97950012451E+01 -0.12784251960E+03  0.14972781220E+03  0.77000000000E+02 0.  0.
   -5000001    1    1    2    0    0  0.70544935237E+01  0.97950012451E+01 -0.12159334413E+03  0.14442869959E+03  0.77000000000E+02 0.  0.
<mgrwt>
<rscale>  0 0.15591601E+03</rscale>
<asrwt>0</asrwt>
<pdfrwt beam="1">  1        2 0.38828025E-01 0.15591601E+03</pdfrwt>
<pdfrwt beam="2">  1       -2 0.31943322E-02 0.15591601E+03</pdfrwt>
<totfact> 0.47516820E+04</totfact>
</mgrwt>
</event>
<event>
 4    1  0.6853809E-004  0.2164569E+03  0.7818608E-02  0.1136552E+00
         -2   -1    0    0    0  501 -0.00000000000E+00  0.00000000000E+00  0.21467542303E+03  0.21467542305E+03  0.25500000000E-02 0. -1.
          2   -1    0    0  501    0  0.00000000000E+00 -0.00000000000E+00 -0.54563296731E+02  0.54563296791E+02  0.25500000000E-02 0.  1.
    5000001    1    1    2    0    0  0.58778474076E+02  0.40111130035E+02  0.11344551449E+03  0.15447555316E+03  0.77000000000E+02 0.  0.
   -5000001    1    1    2    0    0 -0.58778474076E+02 -0.40111130035E+02  0.46666611814E+02  0.11476316668E+03  0.77000000000E+02 0.  0.
<mgrwt>
<rscale>  0 0.21645691E+03</rscale>
<asrwt>0</asrwt>
<pdfrwt beam="1">  1        2 0.77947568E-02 0.21645691E+03</pdfrwt>
<pdfrwt beam="2">  1       -2 0.30667917E-01 0.21645691E+03</pdfrwt>
<totfact> 0.84270368E+03</totfact>
</mgrwt>
</event>
<event>
 4    1  0.6853809E-004  0.2682634E+03  0.7818608E-02  0.1102278E+00
         -2   -1    0    0    0  501 -0.00000000000E+00  0.00000000000E+00  0.18811194183E+03  0.18811194185E+03  0.25500000000E-02 0. -1.
          2   -1    0    0  501    0  0.00000000000E+00 -0.00000000000E+00 -0.95641536459E+02  0.95641536493E+02  0.25500000000E-02 0.  1.
    5000001    1    1    2    0    0  0.96343871661E+02 -0.32298791218E+02  0.90318579579E+02  0.15624275771E+03  0.77000000000E+02 0.  0.
   -5000001    1    1    2    0    0 -0.96343871661E+02  0.32298791218E+02  0.21518257939E+01  0.12751072063E+03  0.77000000000E+02 0.  0.
<mgrwt>
<rscale>  0 0.26826342E+03</rscale>
<asrwt>0</asrwt>
<pdfrwt beam="1">  1        2 0.13663077E-01 0.26826342E+03</pdfrwt>
<pdfrwt beam="2">  1       -2 0.26873135E-01 0.26826342E+03</pdfrwt>
<totfact> 0.54017317E+03</totfact>
</mgrwt>
</event>
<event>
 4    1  0.6853809E-004  0.1826622E+03  0.7818608E-02  0.1165251E+00
         -2   -1    0    0    0  501 -0.00000000000E+00  0.00000000000E+00  0.36294562665E+01  0.36294571623E+01  0.25500000000E-02 0. -1.
          2   -1    0    0  501    0  0.00000000000E+00 -0.00000000000E+00 -0.22982414465E+04  0.22982414465E+04  0.25500000000E-02 0.  1.
    5000001    1    1    2    0    0 -0.93969995110E+01  0.34818032296E+02 -0.72712192132E+03  0.73207642185E+03  0.77000000000E+02 0.  0.
   -5000001    1    1    2    0    0  0.93969995110E+01 -0.34818032296E+02 -0.15674900689E+04  0.15697944818E+04  0.77000000000E+02 0.  0.
<mgrwt>
<rscale>  0 0.18266218E+03</rscale>
<asrwt>0</asrwt>
<pdfrwt beam="1">  1        2 0.32831927E+00 0.18266218E+03</pdfrwt>
<pdfrwt beam="2">  1       -2 0.51849529E-03 0.18266218E+03</pdfrwt>
<totfact> 0.34150612E+04</totfact>
</mgrwt>
</event>
<event>
 4    1  0.6853809E-004  0.2625240E+03  0.7818608E-02  0.1105636E+00
         -2   -1    0    0    0  501 -0.00000000000E+00  0.00000000000E+00  0.83664299693E+01  0.83664303579E+01  0.25500000000E-02 0. -1.
          2   -1    0    0  501    0  0.00000000000E+00 -0.00000000000E+00 -0.20593870245E+04  0.20593870245E+04  0.25500000000E-02 0.  1.
    5000001    1    1    2    0    0 -0.44819424395E+02  0.66895578470E+02 -0.15721665594E+04  0.15761092886E+04  0.77000000000E+02 0.  0.
   -5000001    1    1    2    0    0  0.44819424395E+02 -0.66895578470E+02 -0.47885403510E+03  0.49164416620E+03  0.77000000000E+02 0.  0.
<mgrwt>
<rscale>  0 0.26252404E+03</rscale>
<asrwt>0</asrwt>
<pdfrwt beam="1">  1        2 0.29419782E+00 0.26252404E+03</pdfrwt>
<pdfrwt beam="2">  1       -2 0.11952056E-02 0.26252404E+03</pdfrwt>
<totfact> 0.13572112E+04</totfact>
</mgrwt>
</event>
<event>
 4    1  0.6853809E-004  0.2785555E+03  0.7818608E-02  0.1096481E+00
         -2   -1    0    0    0  501 -0.00000000000E+00  0.00000000000E+00  0.39769269644E+03  0.39769269645E+03  0.25500000000E-02 0. -1.
          2   -1    0    0  501    0  0.00000000000E+00 -0.00000000000E+00 -0.48777073945E+02  0.48777074012E+02  0.25500000000E-02 0.  1.
    5000001    1    1    2    0    0  0.10620692105E+03  0.33404129034E+02  0.12194206613E+03  0.18219388960E+03  0.77000000000E+02 0.  0.
   -5000001    1    1    2    0    0 -0.10620692105E+03 -0.33404129034E+02  0.22697355637E+03  0.26427588086E+03  0.77000000000E+02 0.  0.
<mgrwt>
<rscale>  0 0.27855546E+03</rscale>
<asrwt>0</asrwt>
<pdfrwt beam="1">  1        2 0.69681536E-02 0.27855546E+03</pdfrwt>
<pdfrwt beam="2">  1       -2 0.56813241E-01 0.27855546E+03</pdfrwt>
<totfact> 0.30010682E+03</totfact>
</mgrwt>
</event>
<event>
 4    1  0.6853809E-004  0.1639897E+03  0.7818608E-02  0.1184265E+00
         -2   -1    0    0    0  501 -0.00000000000E+00  0.00000000000E+00  0.20190605331E+02  0.20190605492E+02  0.25500000000E-02 0. -1.
          2   -1    0    0  501    0  0.00000000000E+00 -0.00000000000E+00 -0.33298447520E+03  0.33298447521E+03  0.25500000000E-02 0.  1.
    5000001    1    1    2    0    0  0.10311356904E+02  0.10961139509E+02 -0.10508385823E+03  0.13114148055E+03  0.77000000000E+02 0.  0.
   -5000001    1    1    2    0    0 -0.10311356904E+02 -0.10961139509E+02 -0.20771001164E+03  0.22203360015E+03  0.77000000000E+02 0.  0.
<mgrwt>
<rscale>  0 0.16398973E+03</rscale>
<asrwt>0</asrwt>
<pdfrwt beam="1">  1        2 0.47569208E-01 0.16398973E+03</pdfrwt>
<pdfrwt beam="2">  1       -2 0.28843724E-02 0.16398973E+03</pdfrwt>
<totfact> 0.44734489E+04</totfact>
</mgrwt>
</event>
<event>
 4    1  0.6853809E-004  0.2511947E+03  0.7818608E-02  0.1112552E+00
         -2   -1    0    0    0  501 -0.00000000000E+00  0.00000000000E+00  0.15890354576E+02  0.15890354780E+02  0.25500000000E-02 0. -1.
          2   -1    0    0  501    0  0.00000000000E+00 -0.00000000000E+00 -0.99272098153E+03  0.99272098154E+03  0.25500000000E-02 0.  1.
    5000001    1    1    2    0    0 -0.42484633778E+02  0.74936500900E+02 -0.68615465017E+03  0.69581436261E+03  0.77000000000E+02 0.  0.
   -5000001    1    1    2    0    0  0.42484633778E+02 -0.74936500900E+02 -0.29067597679E+03  0.31279697370E+03  0.77000000000E+02 0.  0.
<mgrwt>
<rscale>  0 0.25119465E+03</rscale>
<asrwt>0</asrwt>
<pdfrwt beam="1">  1        2 0.14181724E+00 0.25119465E+03</pdfrwt>
<pdfrwt beam="2">  1       -2 0.22700513E-02 0.25119465E+03</pdfrwt>
<totfact> 0.18708553E+04</totfact>
</mgrwt>
</event>
<event>
 4    1  0.6853809E-004  0.3491202E+03  0.7818608E-02  0.1062977E+00
         -2   -1    0    0    0  501 -0.00000000000E+00  0.00000000000E+00  0.12953525241E+02  0.12953525492E+02  0.25500000000E-02 0. -1.
          2   -1    0    0  501    0  0.00000000000E+00 -0.00000000000E+00 -0.23523495892E+04  0.23523495892E+04  0.25500000000E-02 0.  1.
    5000001    1    1    2    0    0  0.13589618935E+03 -0.77697341260E+02 -0.11281714241E+04  0.11415797884E+04  0.77000000000E+02 0.  0.
   -5000001    1    1    2    0    0 -0.13589618935E+03  0.77697341260E+02 -0.12112246398E+04  0.12237233263E+04  0.77000000000E+02 0.  0.
<mgrwt>
<rscale>  0 0.34912015E+03</rscale>
<asrwt>0</asrwt>
<pdfrwt beam="1">  1        2 0.33604967E+00 0.34912015E+03</pdfrwt>
<pdfrwt beam="2">  1       -2 0.18505051E-02 0.34912015E+03</pdfrwt>
<totfact> 0.51405945E+03</totfact>
</mgrwt>
</event>
<event>
 4    1  0.6853809E-004  0.3243003E+03  0.7818608E-02  0.1073687E+00
          2   -1    0    0  501    0  0.00000000000E+00  0.00000000000E+00  0.57950059904E+03  0.57950059905E+03  0.25500000000E-02 0.  1.
         -2   -1    0    0    0  501 -0.00000000000E+00 -0.00000000000E+00 -0.45371245460E+02  0.45371245531E+02  0.25500000000E-02 0. -1.
    5000001    1    1    2    0    0 -0.29713949350E+02  0.13916297184E+03  0.24645456874E+03  0.29481876801E+03  0.77000000000E+02 0.  0.
   -5000001    1    1    2    0    0  0.29713949350E+02 -0.13916297184E+03  0.28767478485E+03  0.33005307657E+03  0.77000000000E+02 0.  0.
<mgrwt>
<rscale>  0 0.32430026E+03</rscale>
<asrwt>0</asrwt>
<pdfrwt beam="1">  1        2 0.82785795E-01 0.32430026E+03</pdfrwt>
<pdfrwt beam="2">  1       -2 0.64816069E-02 0.32430026E+03</pdfrwt>
<totfact> 0.75358126E+03</totfact>
</mgrwt>
</event>
<event>
 4    1  0.6853809E-004  0.2013558E+03  0.7818608E-02  0.1148600E+00
         -2   -1    0    0    0  501 -0.00000000000E+00  0.00000000000E+00  0.81903266354E+01  0.81903270324E+01  0.25500000000E-02 0. -1.
          2   -1    0    0  501    0  0.00000000000E+00 -0.00000000000E+00 -0.12375628739E+04  0.12375628739E+04  0.25500000000E-02 0.  1.
    5000001    1    1    2    0    0 -0.63425345501E+02 -0.13433698610E+02 -0.60261687913E+03  0.61096590881E+03  0.77000000000E+02 0.  0.
   -5000001    1    1    2    0    0  0.63425345501E+02  0.13433698610E+02 -0.62675566813E+03  0.63478729213E+03  0.77000000000E+02 0.  0.
<mgrwt>
<rscale>  0 0.20135585E+03</rscale>
<asrwt>0</asrwt>
<pdfrwt beam="1">  1        2 0.17679458E+00 0.20135585E+03</pdfrwt>
<pdfrwt beam="2">  1       -2 0.11700475E-02 0.20135585E+03</pdfrwt>
<totfact> 0.35474206E+04</totfact>
</mgrwt>
</event>
<event>
 4    1  0.6853809E-004  0.2269990E+03  0.7818608E-02  0.1128770E+00
          2   -1    0    0  501    0  0.00000000000E+00  0.00000000000E+00  0.54178198425E+03  0.54178198426E+03  0.25500000000E-02 0.  1.
         -2   -1    0    0    0  501 -0.00000000000E+00 -0.00000000000E+00 -0.23777348650E+02  0.23777348787E+02  0.25500000000E-02 0. -1.
    5000001    1    1    2    0    0  0.17045428535E+02  0.78490220879E+02  0.20318703081E+03  0.23165757250E+03  0.77000000000E+02 0.  0.
   -5000001    1    1    2    0    0 -0.17045428535E+02 -0.78490220879E+02  0.31481760479E+03  0.33390176054E+03  0.77000000000E+02 0.  0.
<mgrwt>
<rscale>  0 0.22699902E+03</rscale>
<asrwt>0</asrwt>
<pdfrwt beam="1">  1        2 0.77397431E-01 0.22699902E+03</pdfrwt>
<pdfrwt beam="2">  1       -2 0.33967639E-02 0.22699902E+03</pdfrwt>
<totfact> 0.21305735E+04</totfact>
</mgrwt>
</event>
<event>
 4    1  0.6853809E-004  0.3933608E+03  0.7818608E-02  0.1046103E+00
         -2   -1    0    0    0  501 -0.00000000000E+00  0.00000000000E+00  0.30848692608E+02  0.30848692713E+02  0.25500000000E-02 0. -1.
          2   -1    0    0  501    0  0.00000000000E+00 -0.00000000000E+00 -0.12539647698E+04  0.12539647698E+04  0.25500000000E-02 0.  1.
    5000001    1    1    2    0    0 -0.58627559746E+02  0.14932419332E+03 -0.88520772551E+03  0.90291562329E+03  0.77000000000E+02 0.  0.
   -5000001    1    1    2    0    0  0.58627559746E+02 -0.14932419332E+03 -0.33790835170E+03  0.38189783925E+03  0.77000000000E+02 0.  0.
<mgrwt>
<rscale>  0 0.39336077E+03</rscale>
<asrwt>0</asrwt>
<pdfrwt beam="1">  1        2 0.17913779E+00 0.39336077E+03</pdfrwt>
<pdfrwt beam="2">  1       -2 0.44069569E-02 0.39336077E+03</pdfrwt>
<totfact> 0.49970509E+03</totfact>
</mgrwt>
</event>
<event>
 4    1  0.6853809E-004  0.2778658E+03  0.7818608E-02  0.1096860E+00
          2   -1    0    0  501    0  0.00000000000E+00  0.00000000000E+00  0.10520971191E+03  0.10520971194E+03  0.25500000000E-02 0.  1.
         -2   -1    0    0    0  501 -0.00000000000E+00 -0.00000000000E+00 -0.18346554863E+03  0.18346554865E+03  0.25500000000E-02 0. -1.
    5000001    1    1    2    0    0 -0.63779713430E+02 -0.73977847942E+01 -0.13905047405E+03  0.17142524143E+03  0.77000000000E+02 0.  0.
   -5000001    1    1    2    0    0  0.63779713430E+02  0.73977847942E+01  0.60794637330E+02  0.11725001916E+03  0.77000000000E+02 0.  0.
<mgrwt>
<rscale>  0 0.27786585E+03</rscale>
<asrwt>0</asrwt>
<pdfrwt beam="1">  1        2 0.15029959E-01 0.27786585E+03</pdfrwt>
<pdfrwt beam="2">  1       -2 0.26209364E-01 0.27786585E+03</pdfrwt>
<totfact> 0.50477506E+03</totfact>
</mgrwt>
</event>
<event>
 4    1  0.6853809E-004  0.1889068E+03  0.7818608E-02  0.1159451E+00
          2   -1    0    0  501    0  0.00000000000E+00  0.00000000000E+00  0.11415431518E+02  0.11415431803E+02  0.25500000000E-02 0.  1.
         -2   -1    0    0    0  501 -0.00000000000E+00 -0.00000000000E+00 -0.78152488258E+03  0.78152488259E+03  0.25500000000E-02 0. -1.
    5000001    1    1    2    0    0 -0.46541284944E+02  0.13453910035E+02 -0.49168705597E+03  0.50003225887E+03  0.77000000000E+02 0.  0.
   -5000001    1    1    2    0    0  0.46541284944E+02 -0.13453910035E+02 -0.27842239509E+03  0.29290805552E+03  0.77000000000E+02 0.  0.
<mgrwt>
<rscale>  0 0.18890679E+03</rscale>
<asrwt>0</asrwt>
<pdfrwt beam="1">  1        2 0.16307765E-02 0.18890679E+03</pdfrwt>
<pdfrwt beam="2">  1       -2 0.11164638E+00 0.18890679E+03</pdfrwt>
<totfact> 0.46790769E+03</totfact>
</mgrwt>
</event>
<event>
 4    1  0.6853809E-004  0.1781027E+03  0.7818608E-02  0.1169652E+00
         -2   -1    0    0    0  501 -0.00000000000E+00  0.00000000000E+00  0.37101586635E+02  0.37101586723E+02  0.25500000000E-02 0. -1.
          2   -1    0    0  501    0  0.00000000000E+00 -0.00000000000E+00 -0.21374131487E+03  0.21374131488E+03  0.25500000000E-02 0.  1.
    5000001    1    1    2    0    0 -0.28565179567E+02  0.34387671185E+02 -0.86022584545E+02  0.12380374172E+03  0.77000000000E+02 0.  0.
   -5000001    1    1    2    0    0  0.28565179567E+02 -0.34387671185E+02 -0.90617143690E+02  0.12703915988E+03  0.77000000000E+02 0.  0.
<mgrwt>
<rscale>  0 0.17810269E+03</rscale>
<asrwt>0</asrwt>
<pdfrwt beam="1">  1        2 0.30534473E-01 0.17810269E+03</pdfrwt>
<pdfrwt beam="2">  1       -2 0.53002268E-02 0.17810269E+03</pdfrwt>
<totfact> 0.29271162E+04</totfact>
</mgrwt>
</event>
<event>
 4    1  0.6853809E-004  0.2784857E+03  0.7818608E-02  0.1096519E+00
          2   -1    0    0  501    0  0.00000000000E+00  0.00000000000E+00  0.17901816491E+04  0.17901816491E+04  0.25500000000E-02 0.  1.
         -2   -1    0    0    0  501 -0.00000000000E+00 -0.00000000000E+00 -0.10830506592E+02  0.10830506893E+02  0.25500000000E-02 0. -1.
    5000001    1    1    2    0    0 -0.24345226087E+02  0.94070070595E+02  0.47975208885E+03  0.49551280001E+03  0.77000000000E+02 0.  0.
   -5000001    1    1    2    0    0  0.24345226087E+02 -0.94070070595E+02  0.12995990536E+04  0.13054993560E+04  0.77000000000E+02 0.  0.
<mgrwt>
<rscale>  0 0.27848572E+03</rscale>
<asrwt>0</asrwt>
<pdfrwt beam="1">  1        2 0.25574038E+00 0.27848572E+03</pdfrwt>
<pdfrwt beam="2">  1       -2 0.15472144E-02 0.27848572E+03</pdfrwt>
<totfact> 0.12616399E+04</totfact>
</mgrwt>
</event>
<event>
 4    1  0.6853809E-004  0.3063962E+03  0.7818608E-02  0.1082086E+00
          2   -1    0    0  501    0  0.00000000000E+00  0.00000000000E+00  0.17547542280E+04  0.17547542280E+04  0.25500000000E-02 0.  1.
         -2   -1    0    0    0  501 -0.00000000000E+00 -0.00000000000E+00 -0.13374893885E+02  0.13374894128E+02  0.25500000000E-02 0. -1.
    5000001    1    1    2    0    0  0.13799367213E+02 -0.11931796422E+03  0.54869269063E+03  0.56693903365E+03  0.77000000000E+02 0.  0.
   -5000001    1    1    2    0    0 -0.13799367213E+02  0.11931796422E+03  0.11926866435E+04  0.12011900885E+04  0.77000000000E+02 0.  0.
<mgrwt>
<rscale>  0 0.30639616E+03</rscale>
<asrwt>0</asrwt>
<pdfrwt beam="1">  1        2 0.25067919E+00 0.30639616E+03</pdfrwt>
<pdfrwt beam="2">  1       -2 0.19106991E-02 0.30639616E+03</pdfrwt>
<totfact> 0.96500128E+03</totfact>
</mgrwt>
</event>
<event>
 4    1  0.6853809E-004  0.2206549E+03  0.7818608E-02  0.1133396E+00
         -2   -1    0    0    0  501 -0.00000000000E+00  0.00000000000E+00  0.59663281844E+01  0.59663287293E+01  0.25500000000E-02 0. -1.
          2   -1    0    0  501    0  0.00000000000E+00 -0.00000000000E+00 -0.20401393658E+04  0.20401393658E+04  0.25500000000E-02 0.  1.
    5000001    1    1    2    0    0  0.61081066327E+02  0.46829954692E+02 -0.11827573968E+04  0.11877575514E+04  0.77000000000E+02 0.  0.
   -5000001    1    1    2    0    0 -0.61081066327E+02 -0.46829954692E+02 -0.85141564079E+03  0.85834814307E+03  0.77000000000E+02 0.  0.
<mgrwt>
<rscale>  0 0.22065486E+03</rscale>
<asrwt>0</asrwt>
<pdfrwt beam="1">  1        2 0.29144804E+00 0.22065486E+03</pdfrwt>
<pdfrwt beam="2">  1       -2 0.85233394E-03 0.22065486E+03</pdfrwt>
<totfact> 0.22508370E+04</totfact>
</mgrwt>
</event>
<event>
 4    1  0.6853809E-004  0.3771724E+03  0.7818608E-02  0.1051984E+00
         -2   -1    0    0    0  501 -0.00000000000E+00  0.00000000000E+00  0.77246848143E+02  0.77246848185E+02  0.25500000000E-02 0. -1.
          2   -1    0    0  501    0  0.00000000000E+00 -0.00000000000E+00 -0.46040402013E+03  0.46040402013E+03  0.25500000000E-02 0.  1.
    5000001    1    1    2    0    0 -0.14259626178E+03 -0.94982537907E+02 -0.21544770019E+03  0.28583577085E+03  0.77000000000E+02 0.  0.
   -5000001    1    1    2    0    0  0.14259626178E+03  0.94982537907E+02 -0.16770947180E+03  0.25181509747E+03  0.77000000000E+02 0.  0.
<mgrwt>
<rscale>  0 0.37717242E+03</rscale>
<asrwt>0</asrwt>
<pdfrwt beam="1">  1        2 0.65772001E-01 0.37717242E+03</pdfrwt>
<pdfrwt beam="2">  1       -2 0.11035264E-01 0.37717242E+03</pdfrwt>
<totfact> 0.42259294E+03</totfact>
</mgrwt>
</event>
<event>
 4    1  0.6853809E-004  0.1616578E+03  0.7818608E-02  0.1186838E+00
          2   -1    0    0  501    0  0.00000000000E+00  0.00000000000E+00  0.17204147133E+04  0.17204147133E+04  0.25500000000E-02 0.  1.
         -2   -1    0    0    0  501 -0.00000000000E+00 -0.00000000000E+00 -0.37975196949E+01  0.37975205511E+01  0.25500000000E-02 0. -1.
    5000001    1    1    2    0    0 -0.14734190877E+02 -0.15947397671E+02  0.98126359351E+03  0.98451950505E+03  0.77000000000E+02 0.  0.
   -5000001    1    1    2    0    0  0.14734190877E+02  0.15947397671E+02  0.73535360012E+03  0.73969272883E+03  0.77000000000E+02 0.  0.
<mgrwt>
<rscale>  0 0.16165778E+03</rscale>
<asrwt>0</asrwt>
<pdfrwt beam="1">  1        2 0.24577350E+00 0.16165778E+03</pdfrwt>
<pdfrwt beam="2">  1       -2 0.54250294E-03 0.16165778E+03</pdfrwt>
<totfact> 0.60185797E+04</totfact>
</mgrwt>
</event>
<event>
 4    1  0.6853809E-004  0.1931056E+03  0.7818608E-02  0.1155690E+00
         -2   -1    0    0    0  501 -0.00000000000E+00  0.00000000000E+00  0.10787585344E+02  0.10787585646E+02  0.25500000000E-02 0. -1.
          2   -1    0    0  501    0  0.00000000000E+00 -0.00000000000E+00 -0.86418230452E+03  0.86418230452E+03  0.25500000000E-02 0.  1.
    5000001    1    1    2    0    0 -0.93789716799E+01  0.48069314033E+02 -0.56960971537E+03  0.57687334131E+03  0.77000000000E+02 0.  0.
   -5000001    1    1    2    0    0  0.93789716799E+01 -0.48069314033E+02 -0.28378500380E+03  0.29809654886E+03  0.77000000000E+02 0.  0.
<mgrwt>
<rscale>  0 0.19310557E+03</rscale>
<asrwt>0</asrwt>
<pdfrwt beam="1">  1        2 0.12345457E+00 0.19310557E+03</pdfrwt>
<pdfrwt beam="2">  1       -2 0.15410842E-02 0.19310557E+03</pdfrwt>
<totfact> 0.38849717E+04</totfact>
</mgrwt>
</event>
<event>
 4    1  0.6853809E-004  0.2243301E+03  0.7818608E-02  0.1130695E+00
         -2   -1    0    0    0  501 -0.00000000000E+00  0.00000000000E+00  0.12116673969E+03  0.12116673971E+03  0.25500000000E-02 0. -1.
          2   -1    0    0  501    0  0.00000000000E+00 -0.00000000000E+00 -0.10383213449E+03  0.10383213452E+03  0.25500000000E-02 0.  1.
    5000001    1    1    2    0    0 -0.56500795733E+02  0.58245662679E+02  0.45117443583E+00  0.11186644134E+03  0.77000000000E+02 0.  0.
   -5000001    1    1    2    0    0  0.56500795733E+02 -0.58245662679E+02  0.16883430757E+02  0.11313243290E+03  0.77000000000E+02 0.  0.
<mgrwt>
<rscale>  0 0.22433012E+03</rscale>
<asrwt>0</asrwt>
<pdfrwt beam="1">  1        2 0.14833162E-01 0.22433012E+03</pdfrwt>
<pdfrwt beam="2">  1       -2 0.17309534E-01 0.22433012E+03</pdfrwt>
<totfact> 0.10375109E+04</totfact>
</mgrwt>
</event>
<event>
 4    1  0.6853809E-004  0.8054963E+03  0.7818608E-02  0.9552095E-01
         -2   -1    0    0    0  501 -0.00000000000E+00  0.00000000000E+00  0.24324024616E+03  0.24324024618E+03  0.25500000000E-02 0. -1.
          2   -1    0    0  501    0  0.00000000000E+00 -0.00000000000E+00 -0.66685542890E+03  0.66685542890E+03  0.25500000000E-02 0.  1.
    5000001    1    1    2    0    0  0.31025229002E+03 -0.17770378670E+03 -0.40235508839E+03  0.54374050468E+03  0.77000000000E+02 0.  0.
   -5000001    1    1    2    0    0 -0.31025229002E+03  0.17770378670E+03 -0.21260094343E+02  0.36635517040E+03  0.77000000000E+02 0.  0.
<mgrwt>
<rscale>  0 0.80549632E+03</rscale>
<asrwt>0</asrwt>
<pdfrwt beam="1">  1        2 0.95265060E-01 0.80549632E+03</pdfrwt>
<pdfrwt beam="2">  1       -2 0.34748607E-01 0.80549632E+03</pdfrwt>
<totfact> 0.37239446E+02</totfact>
</mgrwt>
</event>
<event>
 4    1  0.6853809E-004  0.2788813E+03  0.7818608E-02  0.1096302E+00
         -2   -1    0    0    0  501 -0.00000000000E+00  0.00000000000E+00  0.43994619605E+02  0.43994619679E+02  0.25500000000E-02 0. -1.
          2   -1    0    0  501    0  0.00000000000E+00 -0.00000000000E+00 -0.44195628595E+03  0.44195628596E+03  0.25500000000E-02 0.  1.
    5000001    1    1    2    0    0  0.29413778019E+02  0.86912062756E+02 -0.74592378829E+02  0.14110953182E+03  0.77000000000E+02 0.  0.
   -5000001    1    1    2    0    0 -0.29413778019E+02 -0.86912062756E+02 -0.32336928752E+03  0.34484137382E+03  0.77000000000E+02 0.  0.
<mgrwt>
<rscale>  0 0.27888133E+03</rscale>
<asrwt>0</asrwt>
<pdfrwt beam="1">  1        2 0.63136610E-01 0.27888133E+03</pdfrwt>
<pdfrwt beam="2">  1       -2 0.62849459E-02 0.27888133E+03</pdfrwt>
<totfact> 0.10626979E+04</totfact>
</mgrwt>
</event>
<event>
 4    1  0.6853809E-004  0.5884054E+03  0.7818608E-02  0.9929757E-01
         -2   -1    0    0    0  501 -0.00000000000E+00  0.00000000000E+00  0.19543362891E+03  0.19543362893E+03  0.25500000000E-02 0. -1.
          2   -1    0    0  501    0  0.00000000000E+00 -0.00000000000E+00 -0.44288811434E+03  0.44288811434E+03  0.25500000000E-02 0.  1.
    5000001    1    1    2    0    0  0.24288090411E+03 -0.45339152384E+02  0.28069805409E+02  0.26031459102E+03  0.77000000000E+02 0.  0.
   -5000001    1    1    2    0    0 -0.24288090411E+03  0.45339152384E+02 -0.27552429083E+03  0.37800715226E+03  0.77000000000E+02 0.  0.
<mgrwt>
<rscale>  0 0.58840541E+03</rscale>
<asrwt>0</asrwt>
<pdfrwt beam="1">  1        2 0.63269730E-01 0.58840541E+03</pdfrwt>
<pdfrwt beam="2">  1       -2 0.27919090E-01 0.58840541E+03</pdfrwt>
<totfact> 0.90561902E+02</totfact>
</mgrwt>
</event>
<event>
 4    1  0.6853809E-004  0.5177803E+03  0.7818608E-02  0.1009239E+00
         -2   -1    0    0    0  501 -0.00000000000E+00  0.00000000000E+00  0.41012726029E+02  0.41012726108E+02  0.25500000000E-02 0. -1.
          2   -1    0    0  501    0  0.00000000000E+00 -0.00000000000E+00 -0.16342270888E+04  0.16342270888E+04  0.25500000000E-02 0.  1.
    5000001    1    1    2    0    0 -0.57228167319E+02 -0.19874517267E+03 -0.12345313949E+04  0.12541018586E+04  0.77000000000E+02 0.  0.
   -5000001    1    1    2    0    0  0.57228167319E+02  0.19874517267E+03 -0.35868296793E+03  0.42113795635E+03  0.77000000000E+02 0.  0.
<mgrwt>
<rscale>  0 0.51778029E+03</rscale>
<asrwt>0</asrwt>
<pdfrwt beam="1">  1        2 0.23346097E+00 0.51778029E+03</pdfrwt>
<pdfrwt beam="2">  1       -2 0.58589619E-02 0.51778029E+03</pdfrwt>
<totfact> 0.20372051E+03</totfact>
</mgrwt>
</event>
<event>
 4    1  0.6853809E-004  0.4226791E+03  0.7818608E-02  0.1036198E+00
          2   -1    0    0  501    0  0.00000000000E+00  0.00000000000E+00  0.20091155728E+04  0.20091155728E+04  0.25500000000E-02 0.  1.
         -2   -1    0    0    0  501 -0.00000000000E+00 -0.00000000000E+00 -0.22230883000E+02  0.22230883147E+02  0.25500000000E-02 0. -1.
    5000001    1    1    2    0    0  0.16715468132E+03  0.10299357695E+03  0.92771427367E+03  0.95138380160E+03  0.77000000000E+02 0.  0.
   -5000001    1    1    2    0    0 -0.16715468132E+03 -0.10299357695E+03  0.10591704161E+04  0.10799626543E+04  0.77000000000E+02 0.  0.
<mgrwt>
<rscale>  0 0.42267914E+03</rscale>
<asrwt>0</asrwt>
<pdfrwt beam="1">  1        2 0.28701637E+00 0.42267914E+03</pdfrwt>
<pdfrwt beam="2">  1       -2 0.31758420E-02 0.42267914E+03</pdfrwt>
<totfact> 0.33891409E+03</totfact>
</mgrwt>
</event>
<event>
 4    1  0.6853809E-004  0.2019526E+04  0.7818608E-02  0.8597546E-01
          2   -1    0    0  501    0  0.00000000000E+00  0.00000000000E+00  0.21836243583E+04  0.21836243583E+04  0.25500000000E-02 0.  1.
         -2   -1    0    0    0  501 -0.00000000000E+00 -0.00000000000E+00 -0.46693978935E+03  0.46693978936E+03  0.25500000000E-02 0. -1.
    5000001    1    1    2    0    0  0.20782196981E+03  0.97870545146E+03  0.10058871403E+04  0.14208420992E+04  0.77000000000E+02 0.  0.
   -5000001    1    1    2    0    0 -0.20782196981E+03 -0.97870545146E+03  0.71079742862E+03  0.12297220484E+04  0.77000000000E+02 0.  0.
<mgrwt>
<rscale>  0 0.20195258E+04</rscale>
<asrwt>0</asrwt>
<pdfrwt beam="1">  1        2 0.31194634E+00 0.20195258E+04</pdfrwt>
<pdfrwt beam="2">  1       -2 0.66705683E-01 0.20195258E+04</pdfrwt>
<totfact> 0.12395796E+01</totfact>
</mgrwt>
</event>
<event>
 4    1  0.6853809E-004  0.5671151E+03  0.7818608E-02  0.9976083E-01
          2   -1    0    0  501    0  0.00000000000E+00  0.00000000000E+00  0.15215238280E+03  0.15215238282E+03  0.25500000000E-02 0.  1.
         -2   -1    0    0    0  501 -0.00000000000E+00 -0.00000000000E+00 -0.52844971505E+03  0.52844971506E+03  0.25500000000E-02 0. -1.
    5000001    1    1    2    0    0  0.92972270934E+02 -0.12118836580E+03  0.83261087054E+02  0.19024161423E+03  0.77000000000E+02 0.  0.
   -5000001    1    1    2    0    0 -0.92972270934E+02  0.12118836580E+03 -0.45955841931E+03  0.49036048365E+03  0.77000000000E+02 0.  0.
<mgrwt>
<rscale>  0 0.56711510E+03</rscale>
<asrwt>0</asrwt>
<pdfrwt beam="1">  1        2 0.21736055E-01 0.56711510E+03</pdfrwt>
<pdfrwt beam="2">  1       -2 0.75492816E-01 0.56711510E+03</pdfrwt>
<totfact> 0.40951113E+02</totfact>
</mgrwt>
</event>
<event>
 4    1  0.6853809E-004  0.2961439E+03  0.7818608E-02  0.1087184E+00
         -2   -1    0    0    0  501 -0.00000000000E+00  0.00000000000E+00  0.37467028217E+02  0.37467028304E+02  0.25500000000E-02 0. -1.
          2   -1    0    0  501    0  0.00000000000E+00 -0.00000000000E+00 -0.58518914651E+03  0.58518914651E+03  0.25500000000E-02 0.  1.
    5000001    1    1    2    0    0 -0.11635609969E+03  0.29492731754E+00 -0.16963181087E+03  0.21964239157E+03  0.77000000000E+02 0.  0.
   -5000001    1    1    2    0    0  0.11635609969E+03 -0.29492731754E+00 -0.37809030742E+03  0.40301378324E+03  0.77000000000E+02 0.  0.
<mgrwt>
<rscale>  0 0.29614387E+03</rscale>
<asrwt>0</asrwt>
<pdfrwt beam="1">  1        2 0.83598444E-01 0.29614387E+03</pdfrwt>
<pdfrwt beam="2">  1       -2 0.53524329E-02 0.29614387E+03</pdfrwt>
<totfact> 0.99720881E+03</totfact>
</mgrwt>
</event>
<event>
 4    1  0.6853809E-004  0.5391014E+03  0.7818608E-02  0.1004048E+00
         -2   -1    0    0    0  501 -0.00000000000E+00  0.00000000000E+00  0.20788459973E+02  0.20788460129E+02  0.25500000000E-02 0. -1.
          2   -1    0    0  501    0  0.00000000000E+00 -0.00000000000E+00 -0.34950921574E+04  0.34950921574E+04  0.25500000000E-02 0.  1.
    5000001    1    1    2    0    0 -0.10843824796E+03  0.23303129325E+03 -0.19054768028E+04  0.19242747421E+04  0.77000000000E+02 0.  0.
   -5000001    1    1    2    0    0  0.10843824796E+03 -0.23303129325E+03 -0.15688268947E+04  0.15916058755E+04  0.77000000000E+02 0.  0.
<mgrwt>
<rscale>  0 0.53910141E+03</rscale>
<asrwt>0</asrwt>
<pdfrwt beam="1">  1        2 0.49929851E+00 0.53910141E+03</pdfrwt>
<pdfrwt beam="2">  1       -2 0.29697822E-02 0.53910141E+03</pdfrwt>
<totfact> 0.60747671E+02</totfact>
</mgrwt>
</event>
<event>
 4    1  0.6853809E-004  0.2126798E+03  0.7818608E-02  0.1139461E+00
          2   -1    0    0  501    0  0.00000000000E+00  0.00000000000E+00  0.12344133025E+04  0.12344133025E+04  0.25500000000E-02 0.  1.
         -2   -1    0    0    0  501 -0.00000000000E+00 -0.00000000000E+00 -0.91607692262E+01  0.91607695811E+01  0.25500000000E-02 0. -1.
    5000001    1    1    2    0    0 -0.34898574167E+02  0.50711465911E+02  0.84575242476E+03  0.85147855360E+03  0.77000000000E+02 0.  0.
   -5000001    1    1    2    0    0  0.34898574167E+02 -0.50711465911E+02  0.37950010855E+03  0.39209551852E+03  0.77000000000E+02 0.  0.
<mgrwt>
<rscale>  0 0.21267981E+03</rscale>
<asrwt>0</asrwt>
<pdfrwt beam="1">  1        2 0.17634484E+00 0.21267981E+03</pdfrwt>
<pdfrwt beam="2">  1       -2 0.13086808E-02 0.21267981E+03</pdfrwt>
<totfact> 0.30386980E+04</totfact>
</mgrwt>
</event>
<event>
 4    1  0.6853809E-004  0.2842204E+03  0.7818608E-02  0.1093406E+00
         -2   -1    0    0    0  501 -0.00000000000E+00  0.00000000000E+00  0.14580362095E+03  0.14580362097E+03  0.25500000000E-02 0. -1.
          2   -1    0    0  501    0  0.00000000000E+00 -0.00000000000E+00 -0.13851031299E+03  0.13851031301E+03  0.25500000000E-02 0.  1.
    5000001    1    1    2    0    0  0.63015197290E+02 -0.80795346947E+02  0.65046839675E+02  0.14373202333E+03  0.77000000000E+02 0.  0.
   -5000001    1    1    2    0    0 -0.63015197290E+02  0.80795346947E+02 -0.57753531715E+02  0.14058191065E+03  0.77000000000E+02 0.  0.
<mgrwt>
<rscale>  0 0.28422037E+03</rscale>
<asrwt>0</asrwt>
<pdfrwt beam="1">  1        2 0.19787187E-01 0.28422037E+03</pdfrwt>
<pdfrwt beam="2">  1       -2 0.20829089E-01 0.28422037E+03</pdfrwt>
<totfact> 0.54775897E+03</totfact>
</mgrwt>
</event>
<event>
 4    1  0.6853809E-004  0.2081199E+03  0.7818608E-02  0.1143064E+00
         -2   -1    0    0    0  501 -0.00000000000E+00  0.00000000000E+00  0.14812377152E+02  0.14812377371E+02  0.25500000000E-02 0. -1.
          2   -1    0    0  501    0  0.00000000000E+00 -0.00000000000E+00 -0.73104198757E+03  0.73104198758E+03  0.25500000000E-02 0.  1.
    5000001    1    1    2    0    0 -0.69483035216E+02 -0.54312482755E+01 -0.38136216285E+03  0.39525117318E+03  0.77000000000E+02 0.  0.
   -5000001    1    1    2    0    0  0.69483035216E+02  0.54312482755E+01 -0.33486744757E+03  0.35060319177E+03  0.77000000000E+02 0.  0.
<mgrwt>
<rscale>  0 0.20811987E+03</rscale>
<asrwt>0</asrwt>
<pdfrwt beam="1">  1        2 0.10443455E+00 0.20811987E+03</pdfrwt>
<pdfrwt beam="2">  1       -2 0.21160544E-02 0.20811987E+03</pdfrwt>
<totfact> 0.30196057E+04</totfact>
</mgrwt>
</event>
<event>
 4    1  0.6853809E-004  0.2181926E+03  0.7818608E-02  0.1135238E+00
          2   -1    0    0  501    0  0.00000000000E+00  0.00000000000E+00  0.65672405596E+03  0.65672405597E+03  0.25500000000E-02 0.  1.
         -2   -1    0    0    0  501 -0.00000000000E+00 -0.00000000000E+00 -0.18123298821E+02  0.18123299001E+02  0.25500000000E-02 0. -1.
    5000001    1    1    2    0    0  0.40719086726E+02  0.35273577297E+02  0.49069089313E+03  0.49960866874E+03  0.77000000000E+02 0.  0.
   -5000001    1    1    2    0    0 -0.40719086726E+02 -0.35273577297E+02  0.14790986401E+03  0.17523868623E+03  0.77000000000E+02 0.  0.
<mgrwt>
<rscale>  0 0.21819263E+03</rscale>
<asrwt>0</asrwt>
<pdfrwt beam="1">  1        2 0.93817714E-01 0.21819263E+03</pdfrwt>
<pdfrwt beam="2">  1       -2 0.25890429E-02 0.21819263E+03</pdfrwt>
<totfact> 0.25544271E+04</totfact>
</mgrwt>
</event>
<event>
 4    1  0.6853809E-004  0.1958983E+03  0.7818608E-02  0.1153246E+00
         -2   -1    0    0    0  501 -0.00000000000E+00  0.00000000000E+00  0.32264165776E+01  0.32264175853E+01  0.25500000000E-02 0. -1.
          2   -1    0    0  501    0  0.00000000000E+00 -0.00000000000E+00 -0.29735887637E+04  0.29735887637E+04  0.25500000000E-02 0.  1.
    5000001    1    1    2    0    0 -0.57217318825E+02  0.27281624401E-01 -0.11846226386E+04  0.11885005756E+04  0.77000000000E+02 0.  0.
   -5000001    1    1    2    0    0  0.57217318825E+02 -0.27281624401E-01 -0.17857397085E+04  0.17883146056E+04  0.77000000000E+02 0.  0.
<mgrwt>
<rscale>  0 0.19589832E+03</rscale>
<asrwt>0</asrwt>
<pdfrwt beam="1">  1        2 0.42479664E+00 0.19589832E+03</pdfrwt>
<pdfrwt beam="2">  1       -2 0.46091863E-03 0.19589832E+03</pdfrwt>
<totfact> 0.18597591E+04</totfact>
</mgrwt>
</event>
<event>
 4    1  0.6853809E-004  0.2624023E+03  0.7818608E-02  0.1105708E+00
          2   -1    0    0  501    0  0.00000000000E+00  0.00000000000E+00  0.12446491673E+03  0.12446491676E+03  0.25500000000E-02 0.  1.
         -2   -1    0    0    0  501 -0.00000000000E+00 -0.00000000000E+00 -0.13830191526E+03  0.13830191528E+03  0.25500000000E-02 0. -1.
    5000001    1    1    2    0    0 -0.14091578352E+02 -0.83132714939E+02 -0.71623407083E+02  0.13479070189E+03  0.77000000000E+02 0.  0.
   -5000001    1    1    2    0    0  0.14091578352E+02  0.83132714939E+02  0.57786408555E+02  0.12797613015E+03  0.77000000000E+02 0.  0.
<mgrwt>
<rscale>  0 0.26240226E+03</rscale>
<asrwt>0</asrwt>
<pdfrwt beam="1">  1        2 0.17780702E-01 0.26240226E+03</pdfrwt>
<pdfrwt beam="2">  1       -2 0.19757416E-01 0.26240226E+03</pdfrwt>
<totfact> 0.67626598E+03</totfact>
</mgrwt>
</event>
<event>
 4    1  0.6853809E-004  0.2215973E+03  0.7818608E-02  0.1132698E+00
         -2   -1    0    0    0  501 -0.00000000000E+00  0.00000000000E+00  0.43692486256E+01  0.43692493697E+01  0.25500000000E-02 0. -1.
          2   -1    0    0  501    0  0.00000000000E+00 -0.00000000000E+00 -0.28097136420E+04  0.28097136420E+04  0.25500000000E-02 0.  1.
    5000001    1    1    2    0    0 -0.26282405614E+02  0.75124634522E+02 -0.13571269642E+04  0.13616376436E+04  0.77000000000E+02 0.  0.
   -5000001    1    1    2    0    0  0.26282405614E+02 -0.75124634522E+02 -0.14482174292E+04  0.14524452477E+04  0.77000000000E+02 0.  0.
<mgrwt>
<rscale>  0 0.22159728E+03</rscale>
<asrwt>0</asrwt>
<pdfrwt beam="1">  1        2 0.40138651E+00 0.22159728E+03</pdfrwt>
<pdfrwt beam="2">  1       -2 0.62418023E-03 0.22159728E+03</pdfrwt>
<totfact> 0.14683506E+04</totfact>
</mgrwt>
</event>
<event>
 4    1  0.6853809E-004  0.2865271E+03  0.7818608E-02  0.1092176E+00
         -2   -1    0    0    0  501 -0.00000000000E+00  0.00000000000E+00  0.71296341272E+02  0.71296341318E+02  0.25500000000E-02 0. -1.
          2   -1    0    0  501    0  0.00000000000E+00 -0.00000000000E+00 -0.28787513134E+03  0.28787513136E+03  0.25500000000E-02 0.  1.
    5000001    1    1    2    0    0 -0.27398250432E+02  0.11051762546E+03 -0.57670299169E+02  0.14906264814E+03  0.77000000000E+02 0.  0.
   -5000001    1    1    2    0    0  0.27398250432E+02 -0.11051762546E+03 -0.15890849090E+03  0.21010882453E+03  0.77000000000E+02 0.  0.
<mgrwt>
<rscale>  0 0.28652709E+03</rscale>
<asrwt>0</asrwt>
<pdfrwt beam="1">  1        2 0.41125018E-01 0.28652709E+03</pdfrwt>
<pdfrwt beam="2">  1       -2 0.10185192E-01 0.28652709E+03</pdfrwt>
<totfact> 0.79424400E+03</totfact>
</mgrwt>
</event>
<event>
 4    1  0.6853809E-004  0.1734534E+03  0.7818608E-02  0.1174294E+00
         -2   -1    0    0    0  501 -0.00000000000E+00  0.00000000000E+00  0.38216556553E+01  0.38216565060E+01  0.25500000000E-02 0. -1.
          2   -1    0    0  501    0  0.00000000000E+00 -0.00000000000E+00 -0.19681308515E+04  0.19681308515E+04  0.25500000000E-02 0.  1.
    5000001    1    1    2    0    0 -0.27658958912E+02  0.25358807957E+02 -0.82776006627E+03  0.83218015745E+03  0.77000000000E+02 0.  0.
   -5000001    1    1    2    0    0  0.27658958912E+02 -0.25358807957E+02 -0.11365491296E+04  0.11397723506E+04  0.77000000000E+02 0.  0.
<mgrwt>
<rscale>  0 0.17345339E+03</rscale>
<asrwt>0</asrwt>
<pdfrwt beam="1">  1        2 0.28116090E+00 0.17345339E+03</pdfrwt>
<pdfrwt beam="2">  1       -2 0.54595213E-03 0.17345339E+03</pdfrwt>
<totfact> 0.45590721E+04</totfact>
</mgrwt>
</event>
<event>
 4    1  0.6853809E-004  0.2363520E+03  0.7818608E-02  0.1122247E+00
          2   -1    0    0  501    0  0.00000000000E+00  0.00000000000E+00  0.38365777570E+03  0.38365777571E+03  0.25500000000E-02 0.  1.
         -2   -1    0    0    0  501 -0.00000000000E+00 -0.00000000000E+00 -0.36401107892E+02  0.36401107982E+02  0.25500000000E-02 0. -1.
    5000001    1    1    2    0    0 -0.75756490667E+02 -0.36262715631E+02  0.11791931850E+03  0.16397559605E+03  0.77000000000E+02 0.  0.
   -5000001    1    1    2    0    0  0.75756490667E+02  0.36262715631E+02  0.22933734931E+03  0.25608328764E+03  0.77000000000E+02 0.  0.
<mgrwt>
<rscale>  0 0.23635201E+03</rscale>
<asrwt>0</asrwt>
<pdfrwt beam="1">  1        2 0.54808252E-01 0.23635201E+03</pdfrwt>
<pdfrwt beam="2">  1       -2 0.52001584E-02 0.23635201E+03</pdfrwt>
<totfact> 0.16408263E+04</totfact>
</mgrwt>
</event>
<event>
 4    1  0.6853809E-004  0.2404788E+03  0.7818608E-02  0.1119474E+00
         -2   -1    0    0    0  501 -0.00000000000E+00  0.00000000000E+00  0.24683047492E+02  0.24683047624E+02  0.25500000000E-02 0. -1.
          2   -1    0    0  501    0  0.00000000000E+00 -0.00000000000E+00 -0.58572642900E+03  0.58572642900E+03  0.25500000000E-02 0.  1.
    5000001    1    1    2    0    0  0.16260447668E+02  0.87744456500E+02 -0.34085775240E+03  0.36066119722E+03  0.77000000000E+02 0.  0.
   -5000001    1    1    2    0    0 -0.16260447668E+02 -0.87744456500E+02 -0.22018562910E+03  0.24974827941E+03  0.77000000000E+02 0.  0.
<mgrwt>
<rscale>  0 0.24047880E+03</rscale>
<asrwt>0</asrwt>
<pdfrwt beam="1">  1        2 0.83675196E-01 0.24047880E+03</pdfrwt>
<pdfrwt beam="2">  1       -2 0.35261500E-02 0.24047880E+03</pdfrwt>
<totfact> 0.18524422E+04</totfact>
</mgrwt>
</event>
<event>
 4    1  0.6853809E-004  0.2855307E+03  0.7818608E-02  0.1092706E+00
         -2   -1    0    0    0  501 -0.00000000000E+00  0.00000000000E+00  0.44966542704E+02  0.44966542776E+02  0.25500000000E-02 0. -1.
          2   -1    0    0  501    0  0.00000000000E+00 -0.00000000000E+00 -0.45326913066E+03  0.45326913066E+03  0.25500000000E-02 0.  1.
    5000001    1    1    2    0    0 -0.41789874780E+02  0.83260155013E+02 -0.71554926668E+02  0.14045552527E+03  0.77000000000E+02 0.  0.
   -5000001    1    1    2    0    0  0.41789874780E+02 -0.83260155013E+02 -0.33674766128E+03  0.35778014817E+03  0.77000000000E+02 0.  0.
<mgrwt>
<rscale>  0 0.28553070E+03</rscale>
<asrwt>0</asrwt>
<pdfrwt beam="1">  1        2 0.64752730E-01 0.28553070E+03</pdfrwt>
<pdfrwt beam="2">  1       -2 0.64237921E-02 0.28553070E+03</pdfrwt>
<totfact> 0.10004994E+04</totfact>
</mgrwt>
</event>
<event>
 4    1  0.6853809E-004  0.6892066E+03  0.7818608E-02  0.9735870E-01
          2   -1    0    0  501    0  0.00000000000E+00  0.00000000000E+00  0.64011954758E+03  0.64011954758E+03  0.25500000000E-02 0.  1.
         -2   -1    0    0    0  501 -0.00000000000E+00 -0.00000000000E+00 -0.18551448785E+03  0.18551448787E+03  0.25500000000E-02 0. -1.
    5000001    1    1    2    0    0  0.21445753239E+03  0.19551938916E+02  0.53610412922E+03  0.58284727749E+03  0.77000000000E+02 0.  0.
   -5000001    1    1    2    0    0 -0.21445753239E+03 -0.19551938916E+02 -0.81499069485E+02  0.24278675796E+03  0.77000000000E+02 0.  0.
<mgrwt>
<rscale>  0 0.68920665E+03</rscale>
<asrwt>0</asrwt>
<pdfrwt beam="1">  1        2 0.91445648E-01 0.68920665E+03</pdfrwt>
<pdfrwt beam="2">  1       -2 0.26502070E-01 0.68920665E+03</pdfrwt>
<totfact> 0.64961563E+02</totfact>
</mgrwt>
</event>
<event>
 4    1  0.6853809E-004  0.6350392E+03  0.7818608E-02  0.9835264E-01
         -2   -1    0    0    0  501 -0.00000000000E+00  0.00000000000E+00  0.52574295156E+03  0.52574295157E+03  0.25500000000E-02 0. -1.
          2   -1    0    0  501    0  0.00000000000E+00 -0.00000000000E+00 -0.19176423007E+03  0.19176423009E+03  0.25500000000E-02 0.  1.
    5000001    1    1    2    0    0  0.86868706011E+02 -0.29539298664E+03  0.17749791665E+03  0.36364501792E+03  0.77000000000E+02 0.  0.
   -5000001    1    1    2    0    0 -0.86868706011E+02  0.29539298664E+03  0.15648080484E+03  0.35386216374E+03  0.77000000000E+02 0.  0.
<mgrwt>
<rscale>  0 0.63503919E+03</rscale>
<asrwt>0</asrwt>
<pdfrwt beam="1">  1        2 0.27394890E-01 0.63503919E+03</pdfrwt>
<pdfrwt beam="2">  1       -2 0.75106137E-01 0.63503919E+03</pdfrwt>
<totfact> 0.31722693E+02</totfact>
</mgrwt>
</event>
<event>
 4    1  0.6853809E-004  0.3216334E+03  0.7818608E-02  0.1074900E+00
         -2   -1    0    0    0  501 -0.00000000000E+00  0.00000000000E+00  0.20276969990E+02  0.20276970151E+02  0.25500000000E-02 0. -1.
          2   -1    0    0  501    0  0.00000000000E+00 -0.00000000000E+00 -0.12754372743E+04  0.12754372743E+04  0.25500000000E-02 0.  1.
    5000001    1    1    2    0    0  0.11599952357E+03  0.71293810614E+02 -0.47715263501E+03  0.50213776396E+03  0.77000000000E+02 0.  0.
   -5000001    1    1    2    0    0 -0.11599952357E+03 -0.71293810614E+02 -0.77800766925E+03  0.79357648044E+03  0.77000000000E+02 0.  0.
<mgrwt>
<rscale>  0 0.32163335E+03</rscale>
<asrwt>0</asrwt>
<pdfrwt beam="1">  1        2 0.18220527E+00 0.32163335E+03</pdfrwt>
<pdfrwt beam="2">  1       -2 0.28967108E-02 0.32163335E+03</pdfrwt>
<totfact> 0.91368647E+03</totfact>
</mgrwt>
</event>
<event>
 4    1  0.6853809E-004  0.2770803E+03  0.7818608E-02  0.1097294E+00
          2   -1    0    0  501    0  0.00000000000E+00  0.00000000000E+00  0.13368601035E+04  0.13368601035E+04  0.25500000000E-02 0.  1.
         -2   -1    0    0    0  501 -0.00000000000E+00 -0.00000000000E+00 -0.14357056809E+02  0.14357057035E+02  0.25500000000E-02 0. -1.
    5000001    1    1    2    0    0 -0.88075648011E+02  0.70602416686E+02  0.54979574524E+03  0.56652129924E+03  0.77000000000E+02 0.  0.
   -5000001    1    1    2    0    0  0.88075648011E+02 -0.70602416686E+02  0.77270730147E+03  0.78469586132E+03  0.77000000000E+02 0.  0.
<mgrwt>
<rscale>  0 0.27708032E+03</rscale>
<asrwt>0</asrwt>
<pdfrwt beam="1">  1        2 0.19098004E+00 0.27708032E+03</pdfrwt>
<pdfrwt beam="2">  1       -2 0.20510079E-02 0.27708032E+03</pdfrwt>
<totfact> 0.14091195E+04</totfact>
</mgrwt>
</event>
<event>
 4    1  0.6853809E-004  0.4132557E+03  0.7818608E-02  0.1039284E+00
          2   -1    0    0  501    0  0.00000000000E+00  0.00000000000E+00  0.14657513241E+03  0.14657513243E+03  0.25500000000E-02 0.  1.
         -2   -1    0    0    0  501 -0.00000000000E+00 -0.00000000000E+00 -0.29128456864E+03  0.29128456865E+03  0.25500000000E-02 0. -1.
    5000001    1    1    2    0    0  0.84736126419E+02  0.10996360296E+02 -0.25422799762E+03  0.27903764232E+03  0.77000000000E+02 0.  0.
   -5000001    1    1    2    0    0 -0.84736126419E+02 -0.10996360296E+02  0.10951856139E+03  0.15882205876E+03  0.77000000000E+02 0.  0.
<mgrwt>
<rscale>  0 0.41325573E+03</rscale>
<asrwt>0</asrwt>
<pdfrwt beam="1">  1        2 0.20939305E-01 0.41325573E+03</pdfrwt>
<pdfrwt beam="2">  1       -2 0.41612081E-01 0.41325573E+03</pdfrwt>
<totfact> 0.14655779E+03</totfact>
</mgrwt>
</event>
<event>
 4    1  0.6853809E-004  0.2009456E+03  0.7818608E-02  0.1148944E+00
         -2   -1    0    0    0  501 -0.00000000000E+00  0.00000000000E+00  0.33738584665E+03  0.33738584666E+03  0.25500000000E-02 0. -1.
          2   -1    0    0  501    0  0.00000000000E+00 -0.00000000000E+00 -0.29920589880E+02  0.29920589989E+02  0.25500000000E-02 0.  1.
    5000001    1    1    2    0    0 -0.64383315997E+02  0.32968558650E-01  0.16202309261E+03  0.19059300881E+03  0.77000000000E+02 0.  0.
   -5000001    1    1    2    0    0  0.64383315997E+02 -0.32968558650E-01  0.14544216416E+03  0.17671342785E+03  0.77000000000E+02 0.  0.
<mgrwt>
<rscale>  0 0.20094560E+03</rscale>
<asrwt>0</asrwt>
<pdfrwt beam="1">  1        2 0.42743701E-02 0.20094560E+03</pdfrwt>
<pdfrwt beam="2">  1       -2 0.48197977E-01 0.20094560E+03</pdfrwt>
<totfact> 0.77947336E+03</totfact>
</mgrwt>
</event>
<event>
 4    1  0.6853809E-004  0.1846760E+03  0.7818608E-02  0.1163353E+00
         -2   -1    0    0    0  501 -0.00000000000E+00  0.00000000000E+00  0.94476430314E+01  0.94476433756E+01  0.25500000000E-02 0. -1.
          2   -1    0    0  501    0  0.00000000000E+00 -0.00000000000E+00 -0.90247948007E+03  0.90247948007E+03  0.25500000000E-02 0.  1.
    5000001    1    1    2    0    0  0.47312642391E+02  0.17746351222E+02 -0.41380386059E+03  0.42392930324E+03  0.77000000000E+02 0.  0.
   -5000001    1    1    2    0    0 -0.47312642391E+02 -0.17746351222E+02 -0.47922797645E+03  0.48799782020E+03  0.77000000000E+02 0.  0.
<mgrwt>
<rscale>  0 0.18467598E+03</rscale>
<asrwt>0</asrwt>
<pdfrwt beam="1">  1        2 0.12892559E+00 0.18467598E+03</pdfrwt>
<pdfrwt beam="2">  1       -2 0.13496639E-02 0.18467598E+03</pdfrwt>
<totfact> 0.44399937E+04</totfact>
</mgrwt>
</event>
<event>
 4    1  0.6853809E-004  0.8404457E+03  0.7818608E-02  0.9503251E-01
         -2   -1    0    0    0  501 -0.00000000000E+00  0.00000000000E+00  0.55846490661E+02  0.55846490720E+02  0.25500000000E-02 0. -1.
          2   -1    0    0  501    0  0.00000000000E+00 -0.00000000000E+00 -0.31620112067E+04  0.31620112067E+04  0.25500000000E-02 0.  1.
    5000001    1    1    2    0    0 -0.36767266828E+03 -0.92572193018E+02 -0.92505705614E+03  0.10027025277E+04  0.77000000000E+02 0.  0.
   -5000001    1    1    2    0    0  0.36767266828E+03  0.92572193018E+02 -0.21811076599E+04  0.22151551697E+04  0.77000000000E+02 0.  0.
<mgrwt>
<rscale>  0 0.84044567E+03</rscale>
<asrwt>0</asrwt>
<pdfrwt beam="1">  1        2 0.45171577E+00 0.84044567E+03</pdfrwt>
<pdfrwt beam="2">  1       -2 0.79780721E-02 0.84044567E+03</pdfrwt>
<totfact> 0.19670042E+02</totfact>
</mgrwt>
</event>
<event>
 4    1  0.6853809E-004  0.1670298E+03  0.7818608E-02  0.1180981E+00
         -2   -1    0    0    0  501 -0.00000000000E+00  0.00000000000E+00  0.96502812357E+02  0.96502812390E+02  0.25500000000E-02 0. -1.
          2   -1    0    0  501    0  0.00000000000E+00 -0.00000000000E+00 -0.72275005791E+02  0.72275005836E+02  0.25500000000E-02 0.  1.
    5000001    1    1    2    0    0  0.28031194078E+02 -0.10586685262E+02  0.24403235474E+02  0.86153024601E+02  0.77000000000E+02 0.  0.
   -5000001    1    1    2    0    0 -0.28031194078E+02  0.10586685262E+02 -0.17542890794E+00  0.82624793625E+02  0.77000000000E+02 0.  0.
<mgrwt>
<rscale>  0 0.16702983E+03</rscale>
<asrwt>0</asrwt>
<pdfrwt beam="1">  1        2 0.10325001E-01 0.16702983E+03</pdfrwt>
<pdfrwt beam="2">  1       -2 0.13786116E-01 0.16702983E+03</pdfrwt>
<totfact> 0.22852735E+04</totfact>
</mgrwt>
</event>
<event>
 4    1  0.6853809E-004  0.5527341E+03  0.7818608E-02  0.1000863E+00
          2   -1    0    0  501    0  0.00000000000E+00  0.00000000000E+00  0.52332367062E+03  0.52332367062E+03  0.25500000000E-02 0.  1.
         -2   -1    0    0    0  501 -0.00000000000E+00 -0.00000000000E+00 -0.14594935973E+03  0.14594935976E+03  0.25500000000E-02 0. -1.
    5000001    1    1    2    0    0  0.37879240002E+02 -0.25566393740E+03  0.11552522354E+03  0.29338364471E+03  0.77000000000E+02 0.  0.
   -5000001    1    1    2    0    0 -0.37879240002E+02  0.25566393740E+03  0.26184908734E+03  0.37588938566E+03  0.77000000000E+02 0.  0.
<mgrwt>
<rscale>  0 0.55273413E+03</rscale>
<asrwt>0</asrwt>
<pdfrwt beam="1">  1        2 0.74760524E-01 0.55273413E+03</pdfrwt>
<pdfrwt beam="2">  1       -2 0.20849909E-01 0.55273413E+03</pdfrwt>
<totfact> 0.12631806E+03</totfact>
</mgrwt>
</event>
<event>
 4    1  0.6853809E-004  0.1823298E+03  0.7818608E-02  0.1165567E+00
          2   -1    0    0  501    0  0.00000000000E+00  0.00000000000E+00  0.15600371962E+03  0.15600371965E+03  0.25500000000E-02 0.  1.
         -2   -1    0    0    0  501 -0.00000000000E+00 -0.00000000000E+00 -0.53274605452E+02  0.53274605513E+02  0.25500000000E-02 0. -1.
    5000001    1    1    2    0    0  0.31384544053E+02 -0.26537164381E+02  0.81576504601E+02  0.11946939693E+03  0.77000000000E+02 0.  0.
   -5000001    1    1    2    0    0 -0.31384544053E+02  0.26537164381E+02  0.21152609572E+02  0.89808928234E+02  0.77000000000E+02 0.  0.
<mgrwt>
<rscale>  0 0.18232977E+03</rscale>
<asrwt>0</asrwt>
<pdfrwt beam="1">  1        2 0.22286246E-01 0.18232977E+03</pdfrwt>
<pdfrwt beam="2">  1       -2 0.76106578E-02 0.18232977E+03</pdfrwt>
<totfact> 0.23883586E+04</totfact>
</mgrwt>
</event>
<event>
 4    1  0.6853809E-004  0.3313661E+03  0.7818608E-02  0.1070534E+00
         -2   -1    0    0    0  501 -0.00000000000E+00  0.00000000000E+00  0.20276732257E+02  0.20276732417E+02  0.25500000000E-02 0. -1.
          2   -1    0    0  501    0  0.00000000000E+00 -0.00000000000E+00 -0.13538115977E+04  0.13538115977E+04  0.25500000000E-02 0.  1.
    5000001    1    1    2    0    0  0.85234606335E+02  0.10226279127E+03 -0.92236457621E+03  0.93509787083E+03  0.77000000000E+02 0.  0.
   -5000001    1    1    2    0    0 -0.85234606335E+02 -0.10226279127E+03 -0.41117028925E+03  0.43899045930E+03  0.77000000000E+02 0.  0.
<mgrwt>
<rscale>  0 0.33136611E+03</rscale>
<asrwt>0</asrwt>
<pdfrwt beam="1">  1        2 0.19340160E+00 0.33136611E+03</pdfrwt>
<pdfrwt beam="2">  1       -2 0.28966769E-02 0.33136611E+03</pdfrwt>
<totfact> 0.83106417E+03</totfact>
</mgrwt>
</event>
<event>
 4    1  0.6853809E-004  0.3803263E+03  0.7818608E-02  0.1050813E+00
         -2   -1    0    0    0  501 -0.00000000000E+00  0.00000000000E+00  0.21356848657E+02  0.21356848809E+02  0.25500000000E-02 0. -1.
          2   -1    0    0  501    0  0.00000000000E+00 -0.00000000000E+00 -0.16932281057E+04  0.16932281057E+04  0.25500000000E-02 0.  1.
    5000001    1    1    2    0    0  0.16670826041E+03  0.31820682352E+02 -0.10063440046E+04  0.10234556442E+04  0.77000000000E+02 0.  0.
   -5000001    1    1    2    0    0 -0.16670826041E+03 -0.31820682352E+02 -0.66552725237E+03  0.69112931030E+03  0.77000000000E+02 0.  0.
<mgrwt>
<rscale>  0 0.38032626E+03</rscale>
<asrwt>0</asrwt>
<pdfrwt beam="1">  1        2 0.24188964E+00 0.38032626E+03</pdfrwt>
<pdfrwt beam="2">  1       -2 0.30509795E-02 0.38032626E+03</pdfrwt>
<totfact> 0.51695571E+03</totfact>
</mgrwt>
</event>
<event>
 4    1  0.6853809E-004  0.2086027E+03  0.7818608E-02  0.1142677E+00
          2   -1    0    0  501    0  0.00000000000E+00  0.00000000000E+00  0.87087034491E+02  0.87087034528E+02  0.25500000000E-02 0.  1.
         -2   -1    0    0    0  501 -0.00000000000E+00 -0.00000000000E+00 -0.12491841877E+03  0.12491841880E+03  0.25500000000E-02 0. -1.
    5000001    1    1    2    0    0  0.32410201643E+02 -0.62245994837E+02 -0.13855559872E+02  0.10509976966E+03  0.77000000000E+02 0.  0.
   -5000001    1    1    2    0    0 -0.32410201643E+02  0.62245994837E+02 -0.23975824412E+02  0.10690568367E+03  0.77000000000E+02 0.  0.
<mgrwt>
<rscale>  0 0.20860273E+03</rscale>
<asrwt>0</asrwt>
<pdfrwt beam="1">  1        2 0.12441005E-01 0.20860273E+03</pdfrwt>
<pdfrwt beam="2">  1       -2 0.17845488E-01 0.20860273E+03</pdfrwt>
<totfact> 0.12107349E+04</totfact>
</mgrwt>
</event>
<event>
 4    1  0.6853809E-004  0.2534589E+03  0.7818608E-02  0.1111138E+00
          2   -1    0    0  501    0  0.00000000000E+00  0.00000000000E+00  0.48008263887E+03  0.48008263888E+03  0.25500000000E-02 0.  1.
         -2   -1    0    0    0  501 -0.00000000000E+00 -0.00000000000E+00 -0.33453301203E+02  0.33453301300E+02  0.25500000000E-02 0. -1.
    5000001    1    1    2    0    0 -0.50121819294E+02  0.65189361215E+02  0.34092515864E+03  0.35905544611E+03  0.77000000000E+02 0.  0.
   -5000001    1    1    2    0    0  0.50121819294E+02 -0.65189361215E+02  0.10570417903E+03  0.15448049408E+03  0.77000000000E+02 0.  0.
<mgrwt>
<rscale>  0 0.25345887E+03</rscale>
<asrwt>0</asrwt>
<pdfrwt beam="1">  1        2 0.68583232E-01 0.25345887E+03</pdfrwt>
<pdfrwt beam="2">  1       -2 0.47790432E-02 0.25345887E+03</pdfrwt>
<totfact> 0.14678580E+04</totfact>
</mgrwt>
</event>
<event>
 4    1  0.6853809E-004  0.2560797E+03  0.7818608E-02  0.1109522E+00
         -2   -1    0    0    0  501 -0.00000000000E+00  0.00000000000E+00  0.15116476505E+02  0.15116476720E+02  0.25500000000E-02 0. -1.
          2   -1    0    0  501    0  0.00000000000E+00 -0.00000000000E+00 -0.10845250849E+04  0.10845250849E+04  0.25500000000E-02 0.  1.
    5000001    1    1    2    0    0 -0.97120504308E+01  0.99037550038E+02 -0.63654311709E+03  0.64885969220E+03  0.77000000000E+02 0.  0.
   -5000001    1    1    2    0    0  0.97120504308E+01 -0.99037550038E+02 -0.43286549129E+03  0.45078186942E+03  0.77000000000E+02 0.  0.
<mgrwt>
<rscale>  0 0.25607966E+03</rscale>
<asrwt>0</asrwt>
<pdfrwt beam="1">  1        2 0.15493210E+00 0.25607966E+03</pdfrwt>
<pdfrwt beam="2">  1       -2 0.21594974E-02 0.25607966E+03</pdfrwt>
<totfact> 0.17836795E+04</totfact>
</mgrwt>
</event>
<event>
 4    1  0.6853809E-004  0.1752255E+03  0.7818608E-02  0.1172506E+00
          2   -1    0    0  501    0  0.00000000000E+00  0.00000000000E+00  0.22192042392E+04  0.22192042392E+04  0.25500000000E-02 0.  1.
         -2   -1    0    0    0  501 -0.00000000000E+00 -0.00000000000E+00 -0.34588925743E+01  0.34588935142E+01  0.25500000000E-02 0. -1.
    5000001    1    1    2    0    0  0.23916539350E+02  0.33582029276E+02  0.11950524201E+04  0.11982399761E+04  0.77000000000E+02 0.  0.
   -5000001    1    1    2    0    0 -0.23916539350E+02 -0.33582029276E+02  0.10206929266E+04  0.10244231567E+04  0.77000000000E+02 0.  0.
<mgrwt>
<rscale>  0 0.17522546E+03</rscale>
<asrwt>0</asrwt>
<pdfrwt beam="1">  1        2 0.31702932E+00 0.17522546E+03</pdfrwt>
<pdfrwt beam="2">  1       -2 0.49412735E-03 0.17522546E+03</pdfrwt>
<totfact> 0.39846818E+04</totfact>
</mgrwt>
</event>
<event>
 4    1  0.6853809E-004  0.2811757E+03  0.7818608E-02  0.1095049E+00
          2   -1    0    0  501    0  0.00000000000E+00  0.00000000000E+00  0.58032762215E+02  0.58032762271E+02  0.25500000000E-02 0.  1.
         -2   -1    0    0    0  501 -0.00000000000E+00 -0.00000000000E+00 -0.34058254019E+03  0.34058254020E+03  0.25500000000E-02 0. -1.
    5000001    1    1    2    0    0 -0.37029394162E+02 -0.97877587816E+02 -0.65131877120E+02  0.14533533516E+03  0.77000000000E+02 0.  0.
   -5000001    1    1    2    0    0  0.37029394162E+02  0.97877587816E+02 -0.21741790085E+03  0.25327996731E+03  0.77000000000E+02 0.  0.
<mgrwt>
<rscale>  0 0.28117571E+03</rscale>
<asrwt>0</asrwt>
<pdfrwt beam="1">  1        2 0.82903948E-02 0.28117571E+03</pdfrwt>
<pdfrwt beam="2">  1       -2 0.48654647E-01 0.28117571E+03</pdfrwt>
<totfact> 0.32864962E+03</totfact>
</mgrwt>
</event>
<event>
 4    1  0.6853809E-004  0.2178675E+03  0.7818608E-02  0.1135483E+00
          2   -1    0    0  501    0  0.00000000000E+00  0.00000000000E+00  0.54752847594E+03  0.54752847594E+03  0.25500000000E-02 0.  1.
         -2   -1    0    0    0  501 -0.00000000000E+00 -0.00000000000E+00 -0.21672959880E+02  0.21672960030E+02  0.25500000000E-02 0. -1.
    5000001    1    1    2    0    0 -0.48490299301E+02 -0.50487712311E+02  0.17878551304E+03  0.20686608687E+03  0.77000000000E+02 0.  0.
   -5000001    1    1    2    0    0  0.48490299301E+02  0.50487712311E+02  0.34707000301E+03  0.36233534911E+03  0.77000000000E+02 0.  0.
<mgrwt>
<rscale>  0 0.21786751E+03</rscale>
<asrwt>0</asrwt>
<pdfrwt beam="1">  1        2 0.78218352E-01 0.21786751E+03</pdfrwt>
<pdfrwt beam="2">  1       -2 0.30961372E-02 0.21786751E+03</pdfrwt>
<totfact> 0.24100608E+04</totfact>
</mgrwt>
</event>
<event>
 4    1  0.6853809E-004  0.1865577E+03  0.7818608E-02  0.1161603E+00
          2   -1    0    0  501    0  0.00000000000E+00  0.00000000000E+00  0.76137883709E+02  0.76137883752E+02  0.25500000000E-02 0.  1.
         -2   -1    0    0    0  501 -0.00000000000E+00 -0.00000000000E+00 -0.11427872745E+03  0.11427872747E+03  0.25500000000E-02 0. -1.
    5000001    1    1    2    0    0 -0.32209652659E+02 -0.32083797837E+02  0.80327277029E+01  0.89779488317E+02  0.77000000000E+02 0.  0.
   -5000001    1    1    2    0    0  0.32209652659E+02  0.32083797837E+02 -0.46173571440E+02  0.10063712291E+03  0.77000000000E+02 0.  0.
<mgrwt>
<rscale>  0 0.18655766E+03</rscale>
<asrwt>0</asrwt>
<pdfrwt beam="1">  1        2 0.10876840E-01 0.18655766E+03</pdfrwt>
<pdfrwt beam="2">  1       -2 0.16325533E-01 0.18655766E+03</pdfrwt>
<totfact> 0.16401713E+04</totfact>
</mgrwt>
</event>
<event>
 4    1  0.6853809E-004  0.6345252E+03  0.7818608E-02  0.9836258E-01
          2   -1    0    0  501    0  0.00000000000E+00  0.00000000000E+00  0.19935829478E+04  0.19935829478E+04  0.25500000000E-02 0.  1.
         -2   -1    0    0    0  501 -0.00000000000E+00 -0.00000000000E+00 -0.50489782105E+02  0.50489782170E+02  0.25500000000E-02 0. -1.
    5000001    1    1    2    0    0  0.10299469361E+03  0.25160096869E+03  0.14363208361E+04  0.14638502310E+04  0.77000000000E+02 0.  0.
   -5000001    1    1    2    0    0 -0.10299469361E+03 -0.25160096869E+03  0.50677232959E+03  0.58022249904E+03  0.77000000000E+02 0.  0.
<mgrwt>
<rscale>  0 0.63452524E+03</rscale>
<asrwt>0</asrwt>
<pdfrwt beam="1">  1        2 0.28479746E+00 0.63452524E+03</pdfrwt>
<pdfrwt beam="2">  1       -2 0.72128287E-02 0.63452524E+03</pdfrwt>
<totfact> 0.96280110E+02</totfact>
</mgrwt>
</event>
<event>
 4    1  0.6853809E-004  0.2461524E+03  0.7818608E-02  0.1115761E+00
         -2   -1    0    0    0  501 -0.00000000000E+00  0.00000000000E+00  0.71762197931E+02  0.71762197977E+02  0.25500000000E-02 0. -1.
          2   -1    0    0  501    0  0.00000000000E+00 -0.00000000000E+00 -0.21108262741E+03  0.21108262743E+03  0.25500000000E-02 0.  1.
    5000001    1    1    2    0    0 -0.57603336798E+02 -0.67673476797E+02 -0.27898276201E+02  0.12085180051E+03  0.77000000000E+02 0.  0.
   -5000001    1    1    2    0    0  0.57603336798E+02  0.67673476797E+02 -0.11142215328E+03  0.16199302489E+03  0.77000000000E+02 0.  0.
<mgrwt>
<rscale>  0 0.24615242E+03</rscale>
<asrwt>0</asrwt>
<pdfrwt beam="1">  1        2 0.30154661E-01 0.24615242E+03</pdfrwt>
<pdfrwt beam="2">  1       -2 0.10251743E-01 0.24615242E+03</pdfrwt>
<totfact> 0.10932725E+04</totfact>
</mgrwt>
</event>
<event>
 4    1  0.6853809E-004  0.2613569E+03  0.7818608E-02  0.1106331E+00
         -2   -1    0    0    0  501 -0.00000000000E+00  0.00000000000E+00  0.90320384964E+01  0.90320388563E+01  0.25500000000E-02 0. -1.
          2   -1    0    0  501    0  0.00000000000E+00 -0.00000000000E+00 -0.18906983919E+04  0.18906983919E+04  0.25500000000E-02 0.  1.
    5000001    1    1    2    0    0 -0.72080340117E+02  0.58900170303E+02 -0.13030354539E+04  0.13086233987E+04  0.77000000000E+02 0.  0.
   -5000001    1    1    2    0    0  0.72080340117E+02 -0.58900170303E+02 -0.57863089948E+03  0.59110703204E+03  0.77000000000E+02 0.  0.
<mgrwt>
<rscale>  0 0.26135693E+03</rscale>
<asrwt>0</asrwt>
<pdfrwt beam="1">  1        2 0.27009952E+00 0.26135693E+03</pdfrwt>
<pdfrwt beam="2">  1       -2 0.12902924E-02 0.26135693E+03</pdfrwt>
<totfact> 0.14665858E+04</totfact>
</mgrwt>
</event>
<event>
 4    1  0.6853809E-004  0.2294837E+03  0.7818608E-02  0.1127004E+00
         -2   -1    0    0    0  501 -0.00000000000E+00  0.00000000000E+00  0.72017591392E+02  0.72017591437E+02  0.25500000000E-02 0. -1.
          2   -1    0    0  501    0  0.00000000000E+00 -0.00000000000E+00 -0.18281221713E+03  0.18281221715E+03  0.25500000000E-02 0.  1.
    5000001    1    1    2    0    0 -0.84413313541E+02  0.35874180695E+01 -0.66402437315E+02  0.13219970028E+03  0.77000000000E+02 0.  0.
   -5000001    1    1    2    0    0  0.84413313541E+02 -0.35874180695E+01 -0.44392188424E+02  0.12263010831E+03  0.77000000000E+02 0.  0.
<mgrwt>
<rscale>  0 0.22948373E+03</rscale>
<asrwt>0</asrwt>
<pdfrwt beam="1">  1        2 0.26116031E-01 0.22948373E+03</pdfrwt>
<pdfrwt beam="2">  1       -2 0.10288227E-01 0.22948373E+03</pdfrwt>
<totfact> 0.12687412E+04</totfact>
</mgrwt>
</event>
<event>
 4    1  0.6853809E-004  0.1671097E+03  0.7818608E-02  0.1180896E+00
         -2   -1    0    0    0  501 -0.00000000000E+00  0.00000000000E+00  0.10408096824E+02  0.10408097136E+02  0.25500000000E-02 0. -1.
          2   -1    0    0  501    0  0.00000000000E+00 -0.00000000000E+00 -0.67076765984E+03  0.67076765985E+03  0.25500000000E-02 0.  1.
    5000001    1    1    2    0    0 -0.46155641890E+01 -0.21205973800E+02 -0.23189150079E+03  0.24530321012E+03  0.77000000000E+02 0.  0.
   -5000001    1    1    2    0    0  0.46155641890E+01  0.21205973800E+02 -0.42846806223E+03  0.43587254686E+03  0.77000000000E+02 0.  0.
<mgrwt>
<rscale>  0 0.16710972E+03</rscale>
<asrwt>0</asrwt>
<pdfrwt beam="1">  1        2 0.95823924E-01 0.16710972E+03</pdfrwt>
<pdfrwt beam="2">  1       -2 0.14868714E-02 0.16710972E+03</pdfrwt>
<totfact> 0.54811175E+04</totfact>
</mgrwt>
</event>
<event>
 4    1  0.6853809E-004  0.1646422E+03  0.7818608E-02  0.1183553E+00
          2   -1    0    0  501    0  0.00000000000E+00  0.00000000000E+00  0.24904048239E+03  0.24904048241E+03  0.25500000000E-02 0.  1.
         -2   -1    0    0    0  501 -0.00000000000E+00 -0.00000000000E+00 -0.27211503706E+02  0.27211503825E+02  0.25500000000E-02 0. -1.
    5000001    1    1    2    0    0 -0.22545939290E+01 -0.28640983228E+02  0.11885163341E+03  0.14449948054E+03  0.77000000000E+02 0.  0.
   -5000001    1    1    2    0    0  0.22545939290E+01  0.28640983228E+02  0.10297734528E+03  0.13175250569E+03  0.77000000000E+02 0.  0.
<mgrwt>
<rscale>  0 0.16464223E+03</rscale>
<asrwt>0</asrwt>
<pdfrwt beam="1">  1        2 0.35577212E-01 0.16464223E+03</pdfrwt>
<pdfrwt beam="2">  1       -2 0.38873577E-02 0.16464223E+03</pdfrwt>
<totfact> 0.39223194E+04</totfact>
</mgrwt>
</event>
<event>
 4    1  0.6853809E-004  0.1719284E+03  0.7818608E-02  0.1175852E+00
         -2   -1    0    0    0  501 -0.00000000000E+00  0.00000000000E+00  0.22994007646E+02  0.22994007787E+02  0.25500000000E-02 0. -1.
          2   -1    0    0  501    0  0.00000000000E+00 -0.00000000000E+00 -0.32138111815E+03  0.32138111816E+03  0.25500000000E-02 0.  1.
    5000001    1    1    2    0    0  0.30417759701E+02 -0.84061078284E+01 -0.10600373532E+03  0.13476533180E+03  0.77000000000E+02 0.  0.
   -5000001    1    1    2    0    0 -0.30417759701E+02  0.84061078284E+01 -0.19238337518E+03  0.20960979414E+03  0.77000000000E+02 0.  0.
<mgrwt>
<rscale>  0 0.17192836E+03</rscale>
<asrwt>0</asrwt>
<pdfrwt beam="1">  1        2 0.45911586E-01 0.17192836E+03</pdfrwt>
<pdfrwt beam="2">  1       -2 0.32848584E-02 0.17192836E+03</pdfrwt>
<totfact> 0.38518802E+04</totfact>
</mgrwt>
</event>
<event>
 4    1  0.6853809E-004  0.2193636E+03  0.7818608E-02  0.1134358E+00
         -2   -1    0    0    0  501 -0.00000000000E+00  0.00000000000E+00  0.11962922343E+03  0.11962922346E+03  0.25500000000E-02 0. -1.
          2   -1    0    0  501    0  0.00000000000E+00 -0.00000000000E+00 -0.10056149129E+03  0.10056149132E+03  0.25500000000E-02 0.  1.
    5000001    1    1    2    0    0  0.62642599689E+02  0.17477626373E+02  0.52958178811E+02  0.11385574831E+03  0.77000000000E+02 0.  0.
   -5000001    1    1    2    0    0 -0.62642599689E+02 -0.17477626373E+02 -0.33890446670E+02  0.10633496647E+03  0.77000000000E+02 0.  0.
<mgrwt>
<rscale>  0 0.21936356E+03</rscale>
<asrwt>0</asrwt>
<pdfrwt beam="1">  1        2 0.14365927E-01 0.21936356E+03</pdfrwt>
<pdfrwt beam="2">  1       -2 0.17089889E-01 0.21936356E+03</pdfrwt>
<totfact> 0.10993711E+04</totfact>
</mgrwt>
</event>
<event>
 4    1  0.6853809E-004  0.1802610E+03  0.7818608E-02  0.1167551E+00
          2   -1    0    0  501    0  0.00000000000E+00  0.00000000000E+00  0.29654314000E+02  0.29654314110E+02  0.25500000000E-02 0.  1.
         -2   -1    0    0    0  501 -0.00000000000E+00 -0.00000000000E+00 -0.27394015310E+03  0.27394015311E+03  0.25500000000E-02 0. -1.
    5000001    1    1    2    0    0 -0.40206169814E+02 -0.23892348027E+02 -0.11764673701E+03  0.14817940179E+03  0.77000000000E+02 0.  0.
   -5000001    1    1    2    0    0  0.40206169814E+02  0.23892348027E+02 -0.12663910209E+03  0.15541506543E+03  0.77000000000E+02 0.  0.
<mgrwt>
<rscale>  0 0.18026100E+03</rscale>
<asrwt>0</asrwt>
<pdfrwt beam="1">  1        2 0.42363307E-02 0.18026100E+03</pdfrwt>
<pdfrwt beam="2">  1       -2 0.39134306E-01 0.18026100E+03</pdfrwt>
<totfact> 0.11699020E+04</totfact>
</mgrwt>
</event>
<event>
 4    1  0.6853809E-004  0.3132341E+03  0.7818608E-02  0.1078806E+00
          2   -1    0    0  501    0  0.00000000000E+00  0.00000000000E+00  0.18518655511E+04  0.18518655511E+04  0.25500000000E-02 0.  1.
         -2   -1    0    0    0  501 -0.00000000000E+00 -0.00000000000E+00 -0.13245510254E+02  0.13245510499E+02  0.25500000000E-02 0. -1.
    5000001    1    1    2    0    0 -0.94385872789E+02  0.94860991532E+02  0.76260676296E+03  0.77807800098E+03  0.77000000000E+02 0.  0.
   -5000001    1    1    2    0    0  0.94385872789E+02 -0.94860991532E+02  0.10760132779E+04  0.10870330606E+04  0.77000000000E+02 0.  0.
<mgrwt>
<rscale>  0 0.31323413E+03</rscale>
<asrwt>0</asrwt>
<pdfrwt beam="1">  1        2 0.26455219E+00 0.31323413E+03</pdfrwt>
<pdfrwt beam="2">  1       -2 0.18922160E-02 0.31323413E+03</pdfrwt>
<totfact> 0.87718309E+03</totfact>
</mgrwt>
</event>
<event>
 4    1  0.6853809E-004  0.3066634E+03  0.7818608E-02  0.1081956E+00
         -2   -1    0    0    0  501 -0.00000000000E+00  0.00000000000E+00  0.19872791944E+02  0.19872792108E+02  0.25500000000E-02 0. -1.
          2   -1    0    0  501    0  0.00000000000E+00 -0.00000000000E+00 -0.11830548412E+04  0.11830548412E+04  0.25500000000E-02 0.  1.
    5000001    1    1    2    0    0  0.50981462713E+02  0.11706205894E+03 -0.72187478564E+03  0.73711250249E+03  0.77000000000E+02 0.  0.
   -5000001    1    1    2    0    0 -0.50981462713E+02 -0.11706205894E+03 -0.44130726363E+03  0.46581513083E+03  0.77000000000E+02 0.  0.
<mgrwt>
<rscale>  0 0.30666335E+03</rscale>
<asrwt>0</asrwt>
<pdfrwt beam="1">  1        2 0.16900779E+00 0.30666335E+03</pdfrwt>
<pdfrwt beam="2">  1       -2 0.28389710E-02 0.30666335E+03</pdfrwt>
<totfact> 0.10551058E+04</totfact>
</mgrwt>
</event>
<event>
 4    1  0.6853809E-004  0.3352867E+03  0.7818608E-02  0.1068821E+00
         -2   -1    0    0    0  501 -0.00000000000E+00  0.00000000000E+00  0.20056166333E+03  0.20056166335E+03  0.25500000000E-02 0. -1.
          2   -1    0    0  501    0  0.00000000000E+00 -0.00000000000E+00 -0.14012791527E+03  0.14012791529E+03  0.25500000000E-02 0.  1.
    5000001    1    1    2    0    0  0.11378314447E+03 -0.57039971980E+02 -0.48327679223E+02  0.15641204221E+03  0.77000000000E+02 0.  0.
   -5000001    1    1    2    0    0 -0.11378314447E+03  0.57039971980E+02  0.10876142728E+03  0.18427753643E+03  0.77000000000E+02 0.  0.
<mgrwt>
<rscale>  0 0.33528667E+03</rscale>
<asrwt>0</asrwt>
<pdfrwt beam="1">  1        2 0.20018274E-01 0.33528667E+03</pdfrwt>
<pdfrwt beam="2">  1       -2 0.28651666E-01 0.33528667E+03</pdfrwt>
<totfact> 0.30947674E+03</totfact>
</mgrwt>
</event>
<event>
 4    1  0.6853809E-004  0.1920852E+03  0.7818608E-02  0.1156594E+00
          2   -1    0    0  501    0  0.00000000000E+00  0.00000000000E+00  0.22673972097E+02  0.22673972241E+02  0.25500000000E-02 0.  1.
         -2   -1    0    0    0  501 -0.00000000000E+00 -0.00000000000E+00 -0.40681814890E+03  0.40681814891E+03  0.25500000000E-02 0. -1.
    5000001    1    1    2    0    0  0.29787252072E+02 -0.48844941943E+02 -0.18156679576E+03  0.20534996971E+03  0.77000000000E+02 0.  0.
   -5000001    1    1    2    0    0 -0.29787252072E+02  0.48844941943E+02 -0.20257738104E+03  0.22414215144E+03  0.77000000000E+02 0.  0.
<mgrwt>
<rscale>  0 0.19208522E+03</rscale>
<asrwt>0</asrwt>
<pdfrwt beam="1">  1        2 0.32391391E-02 0.19208522E+03</pdfrwt>
<pdfrwt beam="2">  1       -2 0.58116874E-01 0.19208522E+03</pdfrwt>
<totfact> 0.77319010E+03</totfact>
</mgrwt>
</event>
<event>
 4    1  0.6853809E-004  0.2061745E+03  0.7818608E-02  0.1144632E+00
          2   -1    0    0  501    0  0.00000000000E+00  0.00000000000E+00  0.28841294260E+03  0.28841294261E+03  0.25500000000E-02 0.  1.
         -2   -1    0    0    0  501 -0.00000000000E+00 -0.00000000000E+00 -0.36846423191E+02  0.36846423279E+02  0.25500000000E-02 0. -1.
    5000001    1    1    2    0    0 -0.50108900179E+02 -0.25487097944E+01  0.19945171081E+03  0.21960733764E+03  0.77000000000E+02 0.  0.
   -5000001    1    1    2    0    0  0.50108900179E+02  0.25487097944E+01  0.52114808597E+02  0.10565202825E+03  0.77000000000E+02 0.  0.
<mgrwt>
<rscale>  0 0.20617454E+03</rscale>
<asrwt>0</asrwt>
<pdfrwt beam="1">  1        2 0.41201852E-01 0.20617454E+03</pdfrwt>
<pdfrwt beam="2">  1       -2 0.52637744E-02 0.20617454E+03</pdfrwt>
<totfact> 0.21672019E+04</totfact>
</mgrwt>
</event>
<event>
 4    1  0.6853809E-004  0.1833037E+04  0.7818608E-02  0.8688925E-01
         -2   -1    0    0    0  501 -0.00000000000E+00  0.00000000000E+00  0.22923703297E+03  0.22923703298E+03  0.25500000000E-02 0. -1.
          2   -1    0    0  501    0  0.00000000000E+00 -0.00000000000E+00 -0.36643574685E+04  0.36643574685E+04  0.25500000000E-02 0.  1.
    5000001    1    1    2    0    0 -0.63912866506E+03  0.57256633187E+03 -0.23817000429E+04  0.25327340463E+04  0.77000000000E+02 0.  0.
   -5000001    1    1    2    0    0  0.63912866506E+03 -0.57256633187E+03 -0.10534203926E+04  0.13608604552E+04  0.77000000000E+02 0.  0.
<mgrwt>
<rscale>  0 0.18330373E+04</rscale>
<asrwt>0</asrwt>
<pdfrwt beam="1">  1        2 0.52347960E+00 0.18330373E+04</pdfrwt>
<pdfrwt beam="2">  1       -2 0.32748150E-01 0.18330373E+04</pdfrwt>
<totfact> 0.78433656E+00</totfact>
</mgrwt>
</event>
<event>
 4    1  0.6853809E-004  0.3527195E+03  0.7818608E-02  0.1061504E+00
          2   -1    0    0  501    0  0.00000000000E+00  0.00000000000E+00  0.19077091399E+03  0.19077091401E+03  0.25500000000E-02 0.  1.
         -2   -1    0    0    0  501 -0.00000000000E+00 -0.00000000000E+00 -0.16303719164E+03  0.16303719166E+03  0.25500000000E-02 0. -1.
    5000001    1    1    2    0    0 -0.14345476417E+03 -0.49359082761E+02  0.60466306586E+02  0.18055681279E+03  0.77000000000E+02 0.  0.
   -5000001    1    1    2    0    0  0.14345476417E+03  0.49359082761E+02 -0.32732584227E+02  0.17325129288E+03  0.77000000000E+02 0.  0.
<mgrwt>
<rscale>  0 0.35271946E+03</rscale>
<asrwt>0</asrwt>
<pdfrwt beam="1">  1        2 0.27252988E-01 0.35271946E+03</pdfrwt>
<pdfrwt beam="2">  1       -2 0.23291027E-01 0.35271946E+03</pdfrwt>
<totfact> 0.31594839E+03</totfact>
</mgrwt>
</event>
<event>
 4    1  0.6853809E-004  0.1752515E+03  0.7818608E-02  0.1172479E+00
          2   -1    0    0  501    0  0.00000000000E+00  0.00000000000E+00  0.10601836646E+04  0.10601836646E+04  0.25500000000E-02 0.  1.
         -2   -1    0    0    0  501 -0.00000000000E+00 -0.00000000000E+00 -0.72424013976E+01  0.72424018465E+01  0.25500000000E-02 0. -1.
    5000001    1    1    2    0    0  0.90971651799E+01  0.26043833091E+02  0.33499816165E+03  0.34483881447E+03  0.77000000000E+02 0.  0.
   -5000001    1    1    2    0    0 -0.90971651799E+01 -0.26043833091E+02  0.71794310157E+03  0.72258725199E+03  0.77000000000E+02 0.  0.
<mgrwt>
<rscale>  0 0.17525154E+03</rscale>
<asrwt>0</asrwt>
<pdfrwt beam="1">  1        2 0.15145477E+00 0.17525154E+03</pdfrwt>
<pdfrwt beam="2">  1       -2 0.10346291E-02 0.17525154E+03</pdfrwt>
<totfact> 0.52382626E+04</totfact>
</mgrwt>
</event>
<event>
 4    1  0.6853809E-004  0.3228618E+03  0.7818608E-02  0.1074340E+00
          2   -1    0    0  501    0  0.00000000000E+00  0.00000000000E+00  0.26488174859E+04  0.26488174859E+04  0.25500000000E-02 0.  1.
         -2   -1    0    0    0  501 -0.00000000000E+00 -0.00000000000E+00 -0.98383290131E+01  0.98383293435E+01  0.25500000000E-02 0. -1.
    5000001    1    1    2    0    0  0.31888550647E+02 -0.13815002882E+03  0.13635493999E+04  0.13730616432E+04  0.77000000000E+02 0.  0.
   -5000001    1    1    2    0    0 -0.31888550647E+02  0.13815002882E+03  0.12754297570E+04  0.12855941720E+04  0.77000000000E+02 0.  0.
<mgrwt>
<rscale>  0 0.32286182E+03</rscale>
<asrwt>0</asrwt>
<pdfrwt beam="1">  1        2 0.37840319E+00 0.32286182E+03</pdfrwt>
<pdfrwt beam="2">  1       -2 0.14054730E-02 0.32286182E+03</pdfrwt>
<totfact> 0.54718234E+03</totfact>
</mgrwt>
</event>
<event>
 4    1  0.6853809E-004  0.2043637E+03  0.7818608E-02  0.1146109E+00
         -2   -1    0    0    0  501 -0.00000000000E+00  0.00000000000E+00  0.23048250011E+02  0.23048250152E+02  0.25500000000E-02 0. -1.
          2   -1    0    0  501    0  0.00000000000E+00 -0.00000000000E+00 -0.45301174510E+03  0.45301174511E+03  0.25500000000E-02 0.  1.
    5000001    1    1    2    0    0  0.33537378782E+01 -0.60603490299E+02 -0.14794719837E+03  0.17748634905E+03  0.77000000000E+02 0.  0.
   -5000001    1    1    2    0    0 -0.33537378782E+01  0.60603490299E+02 -0.28201629672E+03  0.29857364621E+03  0.77000000000E+02 0.  0.
<mgrwt>
<rscale>  0 0.20436368E+03</rscale>
<asrwt>0</asrwt>
<pdfrwt beam="1">  1        2 0.64715958E-01 0.20436368E+03</pdfrwt>
<pdfrwt beam="2">  1       -2 0.32926074E-02 0.20436368E+03</pdfrwt>
<totfact> 0.26964734E+04</totfact>
</mgrwt>
</event>
<event>
 4    1  0.6853809E-004  0.1885807E+03  0.7818608E-02  0.1159748E+00
          2   -1    0    0  501    0  0.00000000000E+00  0.00000000000E+00  0.10784012099E+03  0.10784012102E+03  0.25500000000E-02 0.  1.
         -2   -1    0    0    0  501 -0.00000000000E+00 -0.00000000000E+00 -0.82443059422E+02  0.82443059462E+02  0.25500000000E-02 0. -1.
    5000001    1    1    2    0    0 -0.24160305524E+02  0.44951949072E+02 -0.63737359302E+01  0.92596018263E+02  0.77000000000E+02 0.  0.
   -5000001    1    1    2    0    0  0.24160305524E+02 -0.44951949072E+02  0.31770797494E+02  0.97687162216E+02  0.77000000000E+02 0.  0.
<mgrwt>
<rscale>  0 0.18858069E+03</rscale>
<asrwt>0</asrwt>
<pdfrwt beam="1">  1        2 0.15405732E-01 0.18858069E+03</pdfrwt>
<pdfrwt beam="2">  1       -2 0.11777580E-01 0.18858069E+03</pdfrwt>
<totfact> 0.18412146E+04</totfact>
</mgrwt>
</event>
<event>
 4    1  0.6853809E-004  0.2058254E+03  0.7818608E-02  0.1144915E+00
          2   -1    0    0  501    0  0.00000000000E+00  0.00000000000E+00  0.16542183943E+04  0.16542183943E+04  0.25500000000E-02 0.  1.
         -2   -1    0    0    0  501 -0.00000000000E+00 -0.00000000000E+00 -0.64024308129E+01  0.64024313207E+01  0.25500000000E-02 0. -1.
    5000001    1    1    2    0    0  0.46349751142E+01 -0.52262901275E+02  0.11764320988E+04  0.11801162557E+04  0.77000000000E+02 0.  0.
   -5000001    1    1    2    0    0 -0.46349751142E+01  0.52262901275E+02  0.47138386469E+03  0.48050456994E+03  0.77000000000E+02 0.  0.
<mgrwt>
<rscale>  0 0.20582536E+03</rscale>
<asrwt>0</asrwt>
<pdfrwt beam="1">  1        2 0.23631692E+00 0.20582536E+03</pdfrwt>
<pdfrwt beam="2">  1       -2 0.91463300E-03 0.20582536E+03</pdfrwt>
<totfact> 0.31185696E+04</totfact>
</mgrwt>
</event>
<event>
 4    1  0.6853809E-004  0.2164859E+03  0.7818608E-02  0.1136530E+00
          2   -1    0    0  501    0  0.00000000000E+00  0.00000000000E+00  0.69156037816E+03  0.69156037816E+03  0.25500000000E-02 0.  1.
         -2   -1    0    0    0  501 -0.00000000000E+00 -0.00000000000E+00 -0.16942177664E+02  0.16942177856E+02  0.25500000000E-02 0. -1.
    5000001    1    1    2    0    0  0.47382417007E+02 -0.55830381927E+02  0.26980695393E+03  0.28997744287E+03  0.77000000000E+02 0.  0.
   -5000001    1    1    2    0    0 -0.47382417007E+02  0.55830381927E+02  0.40481124657E+03  0.41852511315E+03  0.77000000000E+02 0.  0.
<mgrwt>
<rscale>  0 0.21648592E+03</rscale>
<asrwt>0</asrwt>
<pdfrwt beam="1">  1        2 0.98794324E-01 0.21648592E+03</pdfrwt>
<pdfrwt beam="2">  1       -2 0.24203115E-02 0.21648592E+03</pdfrwt>
<totfact> 0.26545827E+04</totfact>
</mgrwt>
</event>
<event>
 4    1  0.6853809E-004  0.2580520E+03  0.7818608E-02  0.1108319E+00
          2   -1    0    0  501    0  0.00000000000E+00  0.00000000000E+00  0.10910436658E+04  0.10910436658E+04  0.25500000000E-02 0.  1.
         -2   -1    0    0    0  501 -0.00000000000E+00 -0.00000000000E+00 -0.15258521853E+02  0.15258522066E+02  0.25500000000E-02 0. -1.
    5000001    1    1    2    0    0  0.62769470904E+02  0.71186153729E+02  0.71523872914E+03  0.72560520576E+03  0.77000000000E+02 0.  0.
   -5000001    1    1    2    0    0 -0.62769470904E+02 -0.71186153729E+02  0.36054641484E+03  0.38069698214E+03  0.77000000000E+02 0.  0.
<mgrwt>
<rscale>  0 0.25805204E+03</rscale>
<asrwt>0</asrwt>
<pdfrwt beam="1">  1        2 0.15586344E+00 0.25805204E+03</pdfrwt>
<pdfrwt beam="2">  1       -2 0.21797880E-02 0.25805204E+03</pdfrwt>
<totfact> 0.17450128E+04</totfact>
</mgrwt>
</event>
<event>
 4    1  0.6853809E-004  0.2200724E+03  0.7818608E-02  0.1133829E+00
          2   -1    0    0  501    0  0.00000000000E+00  0.00000000000E+00  0.25440175569E+04  0.25440175569E+04  0.25500000000E-02 0.  1.
         -2   -1    0    0    0  501 -0.00000000000E+00 -0.00000000000E+00 -0.47593859934E+01  0.47593866766E+01  0.25500000000E-02 0. -1.
    5000001    1    1    2    0    0  0.57804477348E+02  0.22655841382E+02  0.71126941490E+03  0.71811407543E+03  0.77000000000E+02 0.  0.
   -5000001    1    1    2    0    0 -0.57804477348E+02 -0.22655841382E+02  0.18279887560E+04  0.18306628682E+04  0.77000000000E+02 0.  0.
<mgrwt>
<rscale>  0 0.22007237E+03</rscale>
<asrwt>0</asrwt>
<pdfrwt beam="1">  1        2 0.36343179E+00 0.22007237E+03</pdfrwt>
<pdfrwt beam="2">  1       -2 0.67991101E-03 0.22007237E+03</pdfrwt>
<totfact> 0.17677332E+04</totfact>
</mgrwt>
</event>
<event>
 4    1  0.6853809E-004  0.1718068E+03  0.7818608E-02  0.1175977E+00
         -2   -1    0    0    0  501 -0.00000000000E+00  0.00000000000E+00  0.17615415974E+04  0.17615415974E+04  0.25500000000E-02 0. -1.
          2   -1    0    0  501    0  0.00000000000E+00 -0.00000000000E+00 -0.41891666233E+01  0.41891673994E+01  0.25500000000E-02 0.  1.
    5000001    1    1    2    0    0  0.20764041401E+02 -0.31848389620E+02  0.90148796165E+03  0.90556888768E+03  0.77000000000E+02 0.  0.
   -5000001    1    1    2    0    0 -0.20764041401E+02  0.31848389620E+02  0.85586446912E+03  0.86016187711E+03  0.77000000000E+02 0.  0.
<mgrwt>
<rscale>  0 0.17180677E+03</rscale>
<asrwt>0</asrwt>
<pdfrwt beam="1">  1        2 0.59845208E-03 0.17180677E+03</pdfrwt>
<pdfrwt beam="2">  1       -2 0.25164895E+00 0.17180677E+03</pdfrwt>
<totfact> 0.20378818E+03</totfact>
</mgrwt>
</event>
<event>
 4    1  0.6853809E-004  0.3345661E+03  0.7818608E-02  0.1069134E+00
          2   -1    0    0  501    0  0.00000000000E+00  0.00000000000E+00  0.56696806501E+03  0.56696806501E+03  0.25500000000E-02 0.  1.
         -2   -1    0    0    0  501 -0.00000000000E+00 -0.00000000000E+00 -0.49356603513E+02  0.49356603578E+02  0.25500000000E-02 0. -1.
    5000001    1    1    2    0    0  0.26738720110E+02  0.14277519861E+03  0.31573123881E+03  0.35597040840E+03  0.77000000000E+02 0.  0.
   -5000001    1    1    2    0    0 -0.26738720110E+02 -0.14277519861E+03  0.20188022268E+03  0.26035426019E+03  0.77000000000E+02 0.  0.
<mgrwt>
<rscale>  0 0.33456610E+03</rscale>
<asrwt>0</asrwt>
<pdfrwt beam="1">  1        2 0.80995430E-01 0.33456610E+03</pdfrwt>
<pdfrwt beam="2">  1       -2 0.70509440E-02 0.33456610E+03</pdfrwt>
<totfact> 0.67856096E+03</totfact>
</mgrwt>
</event>
<event>
 4    1  0.6853809E-004  0.4506246E+03  0.7818608E-02  0.1027536E+00
          2   -1    0    0  501    0  0.00000000000E+00  0.00000000000E+00  0.38951029384E+03  0.38951029385E+03  0.25500000000E-02 0. -1.
         -2   -1    0    0    0  501 -0.00000000000E+00 -0.00000000000E+00 -0.13033193625E+03  0.13033193628E+03  0.25500000000E-02 0.  1.
    5000001    1    1    2    0    0  0.58562821648E+02  0.15048848163E+03  0.28759602505E+03  0.33869877592E+03  0.77000000000E+02 0.  0.
   -5000001    1    1    2    0    0 -0.58562821648E+02 -0.15048848163E+03 -0.28417667461E+02  0.18114345422E+03  0.77000000000E+02 0.  0.
<mgrwt>
<rscale>  0 0.45062459E+03</rscale>
<asrwt>0</asrwt>
<pdfrwt beam="1">  1        2 0.55644329E-01 0.45062459E+03</pdfrwt>
<pdfrwt beam="2">  1       -2 0.18618848E-01 0.45062459E+03</pdfrwt>
<totfact> 0.21361073E+03</totfact>
</mgrwt>
</event>
<event>
 4    1  0.6853809E-004  0.2078292E+03  0.7818608E-02  0.1143297E+00
         -2   -1    0    0    0  501 -0.00000000000E+00  0.00000000000E+00  0.72004047585E+02  0.72004047630E+02  0.25500000000E-02 0. -1.
          2   -1    0    0  501    0  0.00000000000E+00 -0.00000000000E+00 -0.14996712789E+03  0.14996712791E+03  0.25500000000E-02 0.  1.
    5000001    1    1    2    0    0  0.14618738253E+02 -0.10920855028E+02  0.32953324191E+02  0.85719858597E+02  0.77000000000E+02 0.  0.
   -5000001    1    1    2    0    0 -0.14618738253E+02  0.10920855028E+02 -0.11091640449E+03  0.13625131694E+03  0.77000000000E+02 0.  0.
<mgrwt>
<rscale>  0 0.20782916E+03</rscale>
<asrwt>0</asrwt>
<pdfrwt beam="1">  1        2 0.21423875E-01 0.20782916E+03</pdfrwt>
<pdfrwt beam="2">  1       -2 0.10286293E-01 0.20782916E+03</pdfrwt>
<totfact> 0.15739178E+04</totfact>
</mgrwt>
</event>
<event>
 4    1  0.6853809E-004  0.2499134E+03  0.7818608E-02  0.1113360E+00
          2   -1    0    0  501    0  0.00000000000E+00  0.00000000000E+00  0.60427300547E+03  0.60427300548E+03  0.25500000000E-02 0.  1.
         -2   -1    0    0    0  501 -0.00000000000E+00 -0.00000000000E+00 -0.25839604339E+02  0.25839604465E+02  0.25500000000E-02 0. -1.
    5000001    1    1    2    0    0 -0.27253237290E+02 -0.89441449963E+02  0.21180493118E+03  0.24399352611E+03  0.77000000000E+02 0.  0.
   -5000001    1    1    2    0    0  0.27253237290E+02  0.89441449963E+02  0.36662846995E+03  0.38611908383E+03  0.77000000000E+02 0.  0.
<mgrwt>
<rscale>  0 0.24991339E+03</rscale>
<asrwt>0</asrwt>
<pdfrwt beam="1">  1        2 0.86324700E-01 0.24991339E+03</pdfrwt>
<pdfrwt beam="2">  1       -2 0.36913727E-02 0.24991339E+03</pdfrwt>
<totfact> 0.16731573E+04</totfact>
</mgrwt>
</event>
<event>
 4    1  0.6853809E-004  0.3582181E+03  0.7818608E-02  0.1059292E+00
          2   -1    0    0  501    0  0.00000000000E+00  0.00000000000E+00  0.17010321322E+04  0.17010321322E+04  0.25500000000E-02 0.  1.
         -2   -1    0    0    0  501 -0.00000000000E+00 -0.00000000000E+00 -0.18859173365E+02  0.18859173538E+02  0.25500000000E-02 0. -1.
    5000001    1    1    2    0    0  0.15336629966E+03 -0.48915341688E+02  0.76715244842E+03  0.78763304378E+03  0.77000000000E+02 0.  0.
   -5000001    1    1    2    0    0 -0.15336629966E+03  0.48915341688E+02  0.91502051039E+03  0.93225826194E+03  0.77000000000E+02 0.  0.
<mgrwt>
<rscale>  0 0.35821815E+03</rscale>
<asrwt>0</asrwt>
<pdfrwt beam="1">  1        2 0.24300444E+00 0.35821815E+03</pdfrwt>
<pdfrwt beam="2">  1       -2 0.26941693E-02 0.35821815E+03</pdfrwt>
<totfact> 0.61716909E+03</totfact>
</mgrwt>
</event>
<event>
 4    1  0.6853809E-004  0.2964463E+03  0.7818608E-02  0.1087031E+00
         -2   -1    0    0    0  501 -0.00000000000E+00  0.00000000000E+00  0.12982737019E+02  0.12982737269E+02  0.25500000000E-02 0. -1.
          2   -1    0    0  501    0  0.00000000000E+00 -0.00000000000E+00 -0.16922549392E+04  0.16922549392E+04  0.25500000000E-02 0.  1.
    5000001    1    1    2    0    0  0.10572969474E+03  0.51659372287E+02 -0.11090510996E+04  0.11179314829E+04  0.77000000000E+02 0.  0.
   -5000001    1    1    2    0    0 -0.10572969474E+03 -0.51659372287E+02 -0.57022110261E+03  0.58730619353E+03  0.77000000000E+02 0.  0.
<mgrwt>
<rscale>  0 0.29644629E+03</rscale>
<asrwt>0</asrwt>
<pdfrwt beam="1">  1        2 0.24175057E+00 0.29644629E+03</pdfrwt>
<pdfrwt beam="2">  1       -2 0.18546778E-02 0.29644629E+03</pdfrwt>
<totfact> 0.10819164E+04</totfact>
</mgrwt>
</event>
<event>
 4    1  0.6853809E-004  0.3032111E+03  0.7818608E-02  0.1083646E+00
         -2   -1    0    0    0  501 -0.00000000000E+00  0.00000000000E+00  0.11448998003E+02  0.11448998287E+02  0.25500000000E-02 0. -1.
          2   -1    0    0  501    0  0.00000000000E+00 -0.00000000000E+00 -0.20075324493E+04  0.20075324493E+04  0.25500000000E-02 0.  1.
    5000001    1    1    2    0    0  0.99707312909E+02 -0.53086177086E+02 -0.56162997889E+03  0.57802847995E+03  0.77000000000E+02 0.  0.
   -5000001    1    1    2    0    0 -0.99707312909E+02  0.53086177086E+02 -0.14344534724E+04  0.14409529676E+04  0.77000000000E+02 0.  0.
<mgrwt>
<rscale>  0 0.30321105E+03</rscale>
<asrwt>0</asrwt>
<pdfrwt beam="1">  1        2 0.28679013E+00 0.30321105E+03</pdfrwt>
<pdfrwt beam="2">  1       -2 0.16355724E-02 0.30321105E+03</pdfrwt>
<totfact> 0.91164381E+03</totfact>
</mgrwt>
</event>
<event>
 4    1  0.6853809E-004  0.1807991E+03  0.7818608E-02  0.1167032E+00
         -2   -1    0    0    0  501 -0.00000000000E+00  0.00000000000E+00  0.97744461171E+01  0.97744464497E+01  0.25500000000E-02 0. -1.
          2   -1    0    0  501    0  0.00000000000E+00 -0.00000000000E+00 -0.83606608482E+03  0.83606608483E+03  0.25500000000E-02 0.  1.
    5000001    1    1    2    0    0 -0.31180948443E+01 -0.32092488003E+02 -0.25085161110E+03  0.26437696778E+03  0.77000000000E+02 0.  0.
   -5000001    1    1    2    0    0  0.31180948443E+01  0.32092488003E+02 -0.57544002761E+03  0.58146356350E+03  0.77000000000E+02 0.  0.
<mgrwt>
<rscale>  0 0.18079915E+03</rscale>
<asrwt>0</asrwt>
<pdfrwt beam="1">  1        2 0.11943797E+00 0.18079915E+03</pdfrwt>
<pdfrwt beam="2">  1       -2 0.13963500E-02 0.18079915E+03</pdfrwt>
<totfact> 0.46460777E+04</totfact>
</mgrwt>
</event>
<event>
 4    1  0.6853809E-004  0.4664925E+03  0.7818608E-02  0.1022915E+00
          2   -1    0    0  501    0  0.00000000000E+00  0.00000000000E+00  0.23727928698E+04  0.23727928698E+04  0.25500000000E-02 0.  1.
         -2   -1    0    0    0  501 -0.00000000000E+00 -0.00000000000E+00 -0.22928176674E+02  0.22928176816E+02  0.25500000000E-02 0. -1.
    5000001    1    1    2    0    0 -0.52148051172E+02 -0.18384738309E+03  0.61339831509E+03  0.64707478120E+03  0.77000000000E+02 0.  0.
   -5000001    1    1    2    0    0  0.52148051172E+02  0.18384738309E+03  0.17364663780E+04  0.17486462654E+04  0.77000000000E+02 0.  0.
<mgrwt>
<rscale>  0 0.46649250E+03</rscale>
<asrwt>0</asrwt>
<pdfrwt beam="1">  1        2 0.33897054E+00 0.46649250E+03</pdfrwt>
<pdfrwt beam="2">  1       -2 0.32754526E-02 0.46649250E+03</pdfrwt>
<totfact> 0.21262722E+03</totfact>
</mgrwt>
</event>
<event>
 4    1  0.6853809E-004  0.3475110E+03  0.7818608E-02  0.1063641E+00
          2   -1    0    0  501    0  0.00000000000E+00  0.00000000000E+00  0.61645512271E+02  0.61645512323E+02  0.25500000000E-02 0.  1.
         -2   -1    0    0    0  501 -0.00000000000E+00 -0.00000000000E+00 -0.48975136101E+03  0.48975136101E+03  0.25500000000E-02 0. -1.
    5000001    1    1    2    0    0 -0.75536196561E+02 -0.11924524205E+03 -0.10956120288E+03  0.19457081466E+03  0.77000000000E+02 0.  0.
   -5000001    1    1    2    0    0  0.75536196561E+02  0.11924524205E+03 -0.31854464586E+03  0.35682605867E+03  0.77000000000E+02 0.  0.
<mgrwt>
<rscale>  0 0.34751100E+03</rscale>
<asrwt>0</asrwt>
<pdfrwt beam="1">  1        2 0.88065021E-02 0.34751100E+03</pdfrwt>
<pdfrwt beam="2">  1       -2 0.69964478E-01 0.34751100E+03</pdfrwt>
<totfact> 0.14448554E+03</totfact>
</mgrwt>
</event>
<event>
 4    1  0.6853809E-004  0.2594882E+03  0.7818608E-02  0.1107451E+00
         -2   -1    0    0    0  501 -0.00000000000E+00  0.00000000000E+00  0.35613220643E+02  0.35613220734E+02  0.25500000000E-02 0. -1.
          2   -1    0    0  501    0  0.00000000000E+00 -0.00000000000E+00 -0.47267629946E+03  0.47267629947E+03  0.25500000000E-02 0.  1.
    5000001    1    1    2    0    0  0.23432708191E+02  0.10176074017E+03 -0.21937477945E+03  0.25486983720E+03  0.77000000000E+02 0.  0.
   -5000001    1    1    2    0    0 -0.23432708191E+02 -0.10176074017E+03 -0.21768829937E+03  0.25341968300E+03  0.77000000000E+02 0.  0.
<mgrwt>
<rscale>  0 0.25948815E+03</rscale>
<asrwt>0</asrwt>
<pdfrwt beam="1">  1        2 0.67525182E-01 0.25948815E+03</pdfrwt>
<pdfrwt beam="2">  1       -2 0.50876032E-02 0.25948815E+03</pdfrwt>
<totfact> 0.13595392E+04</totfact>
</mgrwt>
</event>
<event>
 4    1  0.6853809E-004  0.1966333E+03  0.7818608E-02  0.1152611E+00
         -2   -1    0    0    0  501 -0.00000000000E+00  0.00000000000E+00  0.25643371261E+02  0.25643371388E+02  0.25500000000E-02 0. -1.
          2   -1    0    0  501    0  0.00000000000E+00 -0.00000000000E+00 -0.37694607438E+03  0.37694607439E+03  0.25500000000E-02 0.  1.
    5000001    1    1    2    0    0 -0.71770036760E+00  0.16507125965E+02 -0.29615624427E+03  0.30644823596E+03  0.77000000000E+02 0.  0.
   -5000001    1    1    2    0    0  0.71770036760E+00 -0.16507125965E+02 -0.55146458845E+02  0.96141209814E+02  0.77000000000E+02 0.  0.
<mgrwt>
<rscale>  0 0.19663335E+03</rscale>
<asrwt>0</asrwt>
<pdfrwt beam="1">  1        2 0.53849436E-01 0.19663335E+03</pdfrwt>
<pdfrwt beam="2">  1       -2 0.36633390E-02 0.19663335E+03</pdfrwt>
<totfact> 0.27959911E+04</totfact>
</mgrwt>
</event>
<event>
 4    1  0.6853809E-004  0.2189064E+03  0.7818608E-02  0.1134701E+00
          2   -1    0    0  501    0  0.00000000000E+00  0.00000000000E+00  0.16489326664E+02  0.16489326861E+02  0.25500000000E-02 0.  1.
         -2   -1    0    0    0  501 -0.00000000000E+00 -0.00000000000E+00 -0.72653070664E+03  0.72653070665E+03  0.25500000000E-02 0. -1.
    5000001    1    1    2    0    0  0.52381363757E+01  0.70763019838E+02 -0.46321961618E+03  0.47490657593E+03  0.77000000000E+02 0.  0.
   -5000001    1    1    2    0    0 -0.52381363757E+01 -0.70763019838E+02 -0.24682176380E+03  0.26811345758E+03  0.77000000000E+02 0.  0.
<mgrwt>
<rscale>  0 0.21890639E+03</rscale>
<asrwt>0</asrwt>
<pdfrwt beam="1">  1        2 0.23556186E-02 0.21890639E+03</pdfrwt>
<pdfrwt beam="2">  1       -2 0.10379008E+00 0.21890639E+03</pdfrwt>
<totfact> 0.33831189E+03</totfact>
</mgrwt>
</event>
<event>
 4    1  0.6853809E-004  0.1892613E+03  0.7818608E-02  0.1159129E+00
         -2   -1    0    0    0  501 -0.00000000000E+00  0.00000000000E+00  0.26010684800E+03  0.26010684801E+03  0.25500000000E-02 0. -1.
          2   -1    0    0  501    0  0.00000000000E+00 -0.00000000000E+00 -0.34427990825E+02  0.34427990919E+02  0.25500000000E-02 0.  1.
    5000001    1    1    2    0    0  0.15475917209E+02  0.51240024901E+02  0.93098426402E+02  0.13214144378E+03  0.77000000000E+02 0.  0.
   -5000001    1    1    2    0    0 -0.15475917209E+02 -0.51240024901E+02  0.13258043077E+03  0.16239339515E+03  0.77000000000E+02 0.  0.
<mgrwt>
<rscale>  0 0.18926126E+03</rscale>
<asrwt>0</asrwt>
<pdfrwt beam="1">  1        2 0.49182846E-02 0.18926126E+03</pdfrwt>
<pdfrwt beam="2">  1       -2 0.37158120E-01 0.18926126E+03</pdfrwt>
<totfact> 0.10630882E+04</totfact>
</mgrwt>
</event>
<event>
 4    1  0.6853809E-004  0.1876764E+03  0.7818608E-02  0.1160574E+00
          2   -1    0    0  501    0  0.00000000000E+00  0.00000000000E+00  0.65381518357E+03  0.65381518357E+03  0.25500000000E-02 0.  1.
         -2   -1    0    0    0  501 -0.00000000000E+00 -0.00000000000E+00 -0.13468033937E+02  0.13468034178E+02  0.25500000000E-02 0. -1.
    5000001    1    1    2    0    0 -0.23515762334E+02 -0.48180594732E+02  0.32550015421E+03  0.33875317147E+03  0.77000000000E+02 0.  0.
   -5000001    1    1    2    0    0  0.23515762334E+02  0.48180594732E+02  0.31484699542E+03  0.32853004628E+03  0.77000000000E+02 0.  0.
<mgrwt>
<rscale>  0 0.18767637E+03</rscale>
<asrwt>0</asrwt>
<pdfrwt beam="1">  1        2 0.93402175E-01 0.18767637E+03</pdfrwt>
<pdfrwt beam="2">  1       -2 0.19240047E-02 0.18767637E+03</pdfrwt>
<totfact> 0.39235751E+04</totfact>
</mgrwt>
</event>
<event>
 4    1  0.6853809E-004  0.1664724E+03  0.7818608E-02  0.1181577E+00
         -2   -1    0    0    0  501 -0.00000000000E+00  0.00000000000E+00  0.46233170756E+01  0.46233177788E+01  0.25500000000E-02 0. -1.
          2   -1    0    0  501    0  0.00000000000E+00 -0.00000000000E+00 -0.14985490422E+04  0.14985490423E+04  0.25500000000E-02 0.  1.
    5000001    1    1    2    0    0  0.86741693012E+01  0.14538705138E+02 -0.98801191620E+03  0.99115244121E+03  0.77000000000E+02 0.  0.
   -5000001    1    1    2    0    0 -0.86741693012E+01 -0.14538705138E+02 -0.50591380897E+03  0.51201991882E+03  0.77000000000E+02 0.  0.
<mgrwt>
<rscale>  0 0.16647244E+03</rscale>
<asrwt>0</asrwt>
<pdfrwt beam="1">  1        2 0.21407812E+00 0.16647244E+03</pdfrwt>
<pdfrwt beam="2">  1       -2 0.66047488E-03 0.16647244E+03</pdfrwt>
<totfact> 0.58487328E+04</totfact>
</mgrwt>
</event>
<event>
 4    1  0.6853809E-004  0.2067438E+03  0.7818608E-02  0.1144171E+00
         -2   -1    0    0    0  501 -0.00000000000E+00  0.00000000000E+00  0.76584982921E+02  0.76584982964E+02  0.25500000000E-02 0. -1.
          2   -1    0    0  501    0  0.00000000000E+00 -0.00000000000E+00 -0.13952793547E+03  0.13952793549E+03  0.25500000000E-02 0.  1.
    5000001    1    1    2    0    0 -0.39354341992E+02 -0.13864756685E+02 -0.88875974331E+02  0.12477553656E+03  0.77000000000E+02 0.  0.
   -5000001    1    1    2    0    0  0.39354341992E+02  0.13864756685E+02  0.25933021785E+02  0.91337381890E+02  0.77000000000E+02 0.  0.
<mgrwt>
<rscale>  0 0.20674375E+03</rscale>
<asrwt>0</asrwt>
<pdfrwt beam="1">  1        2 0.19932562E-01 0.20674375E+03</pdfrwt>
<pdfrwt beam="2">  1       -2 0.10940712E-01 0.20674375E+03</pdfrwt>
<totfact> 0.15480958E+04</totfact>
</mgrwt>
</event>
<event>
 4    1  0.6853809E-004  0.3755521E+03  0.7818608E-02  0.1052590E+00
          2   -1    0    0  501    0  0.00000000000E+00  0.00000000000E+00  0.59362284875E+02  0.59362284930E+02  0.25500000000E-02 0.  1.
         -2   -1    0    0    0  501 -0.00000000000E+00 -0.00000000000E+00 -0.59397727653E+03  0.59397727654E+03  0.25500000000E-02 0. -1.
    5000001    1    1    2    0    0  0.86665894276E+02  0.14753684854E+03 -0.27994256282E+03  0.33700880906E+03  0.77000000000E+02 0.  0.
   -5000001    1    1    2    0    0 -0.86665894276E+02 -0.14753684854E+03 -0.25467242884E+03  0.31633075241E+03  0.77000000000E+02 0.  0.
<mgrwt>
<rscale>  0 0.37555212E+03</rscale>
<asrwt>0</asrwt>
<pdfrwt beam="1">  1        2 0.84803268E-02 0.37555212E+03</pdfrwt>
<pdfrwt beam="2">  1       -2 0.84853893E-01 0.37555212E+03</pdfrwt>
<totfact> 0.99274965E+02</totfact>
</mgrwt>
</event>
<event>
 4    1  0.6853809E-004  0.2706625E+03  0.7818608E-02  0.1100901E+00
         -2   -1    0    0    0  501 -0.00000000000E+00  0.00000000000E+00  0.80222425397E+01  0.80222429450E+01  0.25500000000E-02 0. -1.
          2   -1    0    0  501    0  0.00000000000E+00 -0.00000000000E+00 -0.22829709881E+04  0.22829709881E+04  0.25500000000E-02 0.  1.
    5000001    1    1    2    0    0 -0.10767601517E+03 -0.27039252813E+02 -0.10717446806E+04  0.10802272473E+04  0.77000000000E+02 0.  0.
   -5000001    1    1    2    0    0  0.10767601517E+03  0.27039252813E+02 -0.12032040650E+04  0.12107659837E+04  0.77000000000E+02 0.  0.
<mgrwt>
<rscale>  0 0.27066250E+03</rscale>
<asrwt>0</asrwt>
<pdfrwt beam="1">  1        2 0.32613830E+00 0.27066250E+03</pdfrwt>
<pdfrwt beam="2">  1       -2 0.11460361E-02 0.27066250E+03</pdfrwt>
<totfact> 0.11225161E+04</totfact>
</mgrwt>
</event>
<event>
 4    1  0.6853809E-004  0.2025064E+03  0.7818608E-02  0.1147641E+00
         -2   -1    0    0    0  501 -0.00000000000E+00  0.00000000000E+00  0.40919768421E+01  0.40919776367E+01  0.25500000000E-02 0. -1.
          2   -1    0    0  501    0  0.00000000000E+00 -0.00000000000E+00 -0.25054412293E+04  0.25054412293E+04  0.25500000000E-02 0.  1.
    5000001    1    1    2    0    0 -0.54736683294E+02 -0.35788926169E+01 -0.16999377266E+04  0.17025645912E+04  0.77000000000E+02 0.  0.
   -5000001    1    1    2    0    0  0.54736683294E+02  0.35788926169E+01 -0.80141152588E+03  0.80696861573E+03  0.77000000000E+02 0.  0.
<mgrwt>
<rscale>  0 0.20250638E+03</rscale>
<asrwt>0</asrwt>
<pdfrwt beam="1">  1        2 0.35791919E+00 0.20250638E+03</pdfrwt>
<pdfrwt beam="2">  1       -2 0.58456978E-03 0.20250638E+03</pdfrwt>
<totfact> 0.22885980E+04</totfact>
</mgrwt>
</event>
<event>
 4    1  0.6853809E-004  0.2092183E+03  0.7818608E-02  0.1142187E+00
          2   -1    0    0  501    0  0.00000000000E+00  0.00000000000E+00  0.26221981446E+04  0.26221981446E+04  0.25500000000E-02 0. -1.
         -2   -1    0    0    0  501 -0.00000000000E+00 -0.00000000000E+00 -0.41732430460E+01  0.41732438250E+01  0.25500000000E-02 0.  1.
    5000001    1    1    2    0    0 -0.42183642201E+02 -0.15103970931E+02  0.19973251858E+04  0.19993110032E+04  0.77000000000E+02 0.  0.
   -5000001    1    1    2    0    0  0.42183642201E+02  0.15103970931E+02  0.62069971572E+03  0.62706038522E+03  0.77000000000E+02 0.  0.
<mgrwt>
<rscale>  0 0.20921827E+03</rscale>
<asrwt>0</asrwt>
<pdfrwt beam="1">  1        2 0.37459980E+00 0.20921827E+03</pdfrwt>
<pdfrwt beam="2">  1       -2 0.59617754E-03 0.20921827E+03</pdfrwt>
<totfact> 0.19487746E+04</totfact>
</mgrwt>
</event>
<event>
 4    1  0.6853809E-004  0.3084782E+03  0.7818608E-02  0.1081078E+00
         -2   -1    0    0    0  501 -0.00000000000E+00  0.00000000000E+00  0.67301719581E+02  0.67301719629E+02  0.25500000000E-02 0. -1.
          2   -1    0    0  501    0  0.00000000000E+00 -0.00000000000E+00 -0.35347831802E+03  0.35347831803E+03  0.25500000000E-02 0.  1.
    5000001    1    1    2    0    0 -0.10725537337E+03  0.67275134794E+02 -0.20145693606E+03  0.25008709676E+03  0.77000000000E+02 0.  0.
   -5000001    1    1    2    0    0  0.10725537337E+03 -0.67275134794E+02 -0.84719662378E+02  0.17069294090E+03  0.77000000000E+02 0.  0.
<mgrwt>
<rscale>  0 0.30847819E+03</rscale>
<asrwt>0</asrwt>
<pdfrwt beam="1">  1        2 0.50496902E-01 0.30847819E+03</pdfrwt>
<pdfrwt beam="2">  1       -2 0.96145315E-02 0.30847819E+03</pdfrwt>
<totfact> 0.69946828E+03</totfact>
</mgrwt>
</event>
<event>
 4    1  0.6853809E-004  0.2014146E+03  0.7818608E-02  0.1148551E+00
         -2   -1    0    0    0  501 -0.00000000000E+00  0.00000000000E+00  0.48656887016E+02  0.48656887083E+02  0.25500000000E-02 0. -1.
          2   -1    0    0  501    0  0.00000000000E+00 -0.00000000000E+00 -0.20843823291E+03  0.20843823293E+03  0.25500000000E-02 0.  1.
    5000001    1    1    2    0    0 -0.24583338310E+02 -0.42310738229E+02 -0.13432209289E+03  0.16237599493E+03  0.77000000000E+02 0.  0.
   -5000001    1    1    2    0    0  0.24583338310E+02  0.42310738229E+02 -0.25459253006E+02  0.94719125078E+02  0.77000000000E+02 0.  0.
<mgrwt>
<rscale>  0 0.20141455E+03</rscale>
<asrwt>0</asrwt>
<pdfrwt beam="1">  1        2 0.29776890E-01 0.20141455E+03</pdfrwt>
<pdfrwt beam="2">  1       -2 0.69509840E-02 0.20141455E+03</pdfrwt>
<totfact> 0.20093409E+04</totfact>
</mgrwt>
</event>
<event>
 4    1  0.6853809E-004  0.5098186E+03  0.7818608E-02  0.1011247E+00
          2   -1    0    0  501    0  0.00000000000E+00  0.00000000000E+00  0.57563314688E+03  0.57563314688E+03  0.25500000000E-02 0.  1.
         -2   -1    0    0    0  501 -0.00000000000E+00 -0.00000000000E+00 -0.11288223986E+03  0.11288223989E+03  0.25500000000E-02 0. -1.
    5000001    1    1    2    0    0 -0.21420324705E+03  0.81580632171E+02  0.12239898066E+03  0.27101465100E+03  0.77000000000E+02 0.  0.
   -5000001    1    1    2    0    0  0.21420324705E+03 -0.81580632171E+02  0.34035192636E+03  0.41750073577E+03  0.77000000000E+02 0.  0.
<mgrwt>
<rscale>  0 0.50981863E+03</rscale>
<asrwt>0</asrwt>
<pdfrwt beam="1">  1        2 0.82233308E-01 0.50981863E+03</pdfrwt>
<pdfrwt beam="2">  1       -2 0.16126034E-01 0.50981863E+03</pdfrwt>
<totfact> 0.17602121E+03</totfact>
</mgrwt>
</event>
<event>
 4    1  0.6853809E-004  0.2086157E+03  0.7818608E-02  0.1142667E+00
          2   -1    0    0  501    0  0.00000000000E+00  0.00000000000E+00  0.97624849439E+03  0.97624849439E+03  0.25500000000E-02 0.  1.
         -2   -1    0    0    0  501 -0.00000000000E+00 -0.00000000000E+00 -0.11144837914E+02  0.11144838206E+02  0.25500000000E-02 0. -1.
    5000001    1    1    2    0    0  0.30226427188E+02 -0.56031889327E+02  0.62437996469E+03  0.63232313719E+03  0.77000000000E+02 0.  0.
   -5000001    1    1    2    0    0 -0.30226427188E+02  0.56031889327E+02  0.34072369179E+03  0.35507019541E+03  0.77000000000E+02 0.  0.
<mgrwt>
<rscale>  0 0.20861574E+03</rscale>
<asrwt>0</asrwt>
<pdfrwt beam="1">  1        2 0.13946410E+00 0.20861574E+03</pdfrwt>
<pdfrwt beam="2">  1       -2 0.15921194E-02 0.20861574E+03</pdfrwt>
<totfact> 0.31819510E+04</totfact>
</mgrwt>
</event>
<event>
 4    1  0.6853809E-004  0.2086030E+03  0.7818608E-02  0.1142677E+00
         -2   -1    0    0    0  501 -0.00000000000E+00  0.00000000000E+00  0.28265042057E+02  0.28265042172E+02  0.25500000000E-02 0. -1.
          2   -1    0    0  501    0  0.00000000000E+00 -0.00000000000E+00 -0.38488542788E+03  0.38488542789E+03  0.25500000000E-02 0.  1.
    5000001    1    1    2    0    0  0.50568288212E+02  0.40500874155E+02 -0.23263422105E+03  0.25346627662E+03  0.77000000000E+02 0.  0.
   -5000001    1    1    2    0    0 -0.50568288212E+02 -0.40500874155E+02 -0.12398616478E+03  0.15968419344E+03  0.77000000000E+02 0.  0.
<mgrwt>
<rscale>  0 0.20860300E+03</rscale>
<asrwt>0</asrwt>
<pdfrwt beam="1">  1        2 0.54983629E-01 0.20860300E+03</pdfrwt>
<pdfrwt beam="2">  1       -2 0.40378634E-02 0.20860300E+03</pdfrwt>
<totfact> 0.23747789E+04</totfact>
</mgrwt>
</event>
<event>
 4    1  0.6853809E-004  0.2021278E+03  0.7818608E-02  0.1147956E+00
         -2   -1    0    0    0  501 -0.00000000000E+00  0.00000000000E+00  0.11522230245E+02  0.11522230527E+02  0.25500000000E-02 0. -1.
          2   -1    0    0  501    0  0.00000000000E+00 -0.00000000000E+00 -0.88645307051E+03  0.88645307052E+03  0.25500000000E-02 0.  1.
    5000001    1    1    2    0    0 -0.47862523434E+02  0.35831445323E+02 -0.55585935649E+03  0.56434328012E+03  0.77000000000E+02 0.  0.
   -5000001    1    1    2    0    0  0.47862523434E+02 -0.35831445323E+02 -0.31907148378E+03  0.33363202092E+03  0.77000000000E+02 0.  0.
<mgrwt>
<rscale>  0 0.20212785E+03</rscale>
<asrwt>0</asrwt>
<pdfrwt beam="1">  1        2 0.12663611E+00 0.20212785E+03</pdfrwt>
<pdfrwt beam="2">  1       -2 0.16460335E-02 0.20212785E+03</pdfrwt>
<totfact> 0.34297557E+04</totfact>
</mgrwt>
</event>
<event>
 4    1  0.6853809E-004  0.2756787E+03  0.7818608E-02  0.1098073E+00
          2   -1    0    0  501    0  0.00000000000E+00  0.00000000000E+00  0.63622056339E+03  0.63622056340E+03  0.25500000000E-02 0.  1.
         -2   -1    0    0    0  501 -0.00000000000E+00 -0.00000000000E+00 -0.29863373297E+02  0.29863373406E+02  0.25500000000E-02 0. -1.
    5000001    1    1    2    0    0  0.87530684995E+02 -0.41536477055E+02  0.44982562118E+03  0.46653937584E+03  0.77000000000E+02 0.  0.
   -5000001    1    1    2    0    0 -0.87530684995E+02  0.41536477055E+02  0.15653156891E+03  0.19954456096E+03  0.77000000000E+02 0.  0.
<mgrwt>
<rscale>  0 0.27567874E+03</rscale>
<asrwt>0</asrwt>
<pdfrwt beam="1">  1        2 0.90888652E-01 0.27567874E+03</pdfrwt>
<pdfrwt beam="2">  1       -2 0.42661962E-02 0.27567874E+03</pdfrwt>
<totfact> 0.12747473E+04</totfact>
</mgrwt>
</event>
<event>
 4    1  0.6853809E-004  0.2725985E+03  0.7818608E-02  0.1099802E+00
         -2   -1    0    0    0  501 -0.00000000000E+00  0.00000000000E+00  0.10248806698E+03  0.10248806701E+03  0.25500000000E-02 0. -1.
          2   -1    0    0  501    0  0.00000000000E+00 -0.00000000000E+00 -0.18126486063E+03  0.18126486064E+03  0.25500000000E-02 0.  1.
    5000001    1    1    2    0    0 -0.11235859117E+03 -0.45955907409E+01 -0.41164900907E+02  0.14236966507E+03  0.77000000000E+02 0.  0.
   -5000001    1    1    2    0    0  0.11235859117E+03  0.45955907409E+01 -0.37611892741E+02  0.14138326259E+03  0.77000000000E+02 0.  0.
<mgrwt>
<rscale>  0 0.27259850E+03</rscale>
<asrwt>0</asrwt>
<pdfrwt beam="1">  1        2 0.25894980E-01 0.27259850E+03</pdfrwt>
<pdfrwt beam="2">  1       -2 0.14641152E-01 0.27259850E+03</pdfrwt>
<totfact> 0.73023474E+03</totfact>
</mgrwt>
</event>
<event>
 4    1  0.6853809E-004  0.2266342E+03  0.7818608E-02  0.1129031E+00
          2   -1    0    0  501    0  0.00000000000E+00  0.00000000000E+00  0.13481345964E+03  0.13481345966E+03  0.25500000000E-02 0.  1.
         -2   -1    0    0    0  501 -0.00000000000E+00 -0.00000000000E+00 -0.95248409257E+02  0.95248409291E+02  0.25500000000E-02 0. -1.
    5000001    1    1    2    0    0 -0.30866353872E+02  0.73728642521E+02  0.43000326225E+02  0.11902383200E+03  0.77000000000E+02 0.  0.
   -5000001    1    1    2    0    0  0.30866353872E+02 -0.73728642521E+02 -0.34352758453E+01  0.11103803695E+03  0.77000000000E+02 0.  0.
<mgrwt>
<rscale>  0 0.22663422E+03</rscale>
<asrwt>0</asrwt>
<pdfrwt beam="1">  1        2 0.19259066E-01 0.22663422E+03</pdfrwt>
<pdfrwt beam="2">  1       -2 0.13606916E-01 0.22663422E+03</pdfrwt>
<totfact> 0.11397404E+04</totfact>
</mgrwt>
</event>
<event>
 4    1  0.6853809E-004  0.1788112E+03  0.7818608E-02  0.1168959E+00
          2   -1    0    0  501    0  0.00000000000E+00  0.00000000000E+00  0.54632383111E+03  0.54632383112E+03  0.25500000000E-02 0.  1.
         -2   -1    0    0    0  501 -0.00000000000E+00 -0.00000000000E+00 -0.14631184993E+02  0.14631185216E+02  0.25500000000E-02 0. -1.
    5000001    1    1    2    0    0 -0.45117219984E+02  0.20229098548E+01  0.25025207942E+03  0.26569674246E+03  0.77000000000E+02 0.  0.
   -5000001    1    1    2    0    0  0.45117219984E+02 -0.20229098548E+01  0.28144056670E+03  0.29525827387E+03  0.77000000000E+02 0.  0.
<mgrwt>
<rscale>  0 0.17881124E+03</rscale>
<asrwt>0</asrwt>
<pdfrwt beam="1">  1        2 0.78046270E-01 0.17881124E+03</pdfrwt>
<pdfrwt beam="2">  1       -2 0.20901691E-02 0.17881124E+03</pdfrwt>
<totfact> 0.42402753E+04</totfact>
</mgrwt>
</event>
<event>
 4    1  0.6853809E-004  0.2249717E+03  0.7818608E-02  0.1130230E+00
          2   -1    0    0  501    0  0.00000000000E+00  0.00000000000E+00  0.31611610680E+03  0.31611610681E+03  0.25500000000E-02 0.  1.
         -2   -1    0    0    0  501 -0.00000000000E+00 -0.00000000000E+00 -0.40026651160E+02  0.40026651242E+02  0.25500000000E-02 0. -1.
    5000001    1    1    2    0    0 -0.13748420622E+02  0.78708654915E+02  0.16723473383E+03  0.20070009374E+03  0.77000000000E+02 0.  0.
   -5000001    1    1    2    0    0  0.13748420622E+02 -0.78708654915E+02  0.10885472181E+03  0.15544266431E+03  0.77000000000E+02 0.  0.
<mgrwt>
<rscale>  0 0.22497172E+03</rscale>
<asrwt>0</asrwt>
<pdfrwt beam="1">  1        2 0.45159444E-01 0.22497172E+03</pdfrwt>
<pdfrwt beam="2">  1       -2 0.57180930E-02 0.22497172E+03</pdfrwt>
<totfact> 0.17426763E+04</totfact>
</mgrwt>
</event>
<event>
 4    1  0.6853809E-004  0.2329843E+03  0.7818608E-02  0.1124557E+00
         -2   -1    0    0    0  501 -0.00000000000E+00  0.00000000000E+00  0.31419339613E+03  0.31419339614E+03  0.25500000000E-02 0. -1.
          2   -1    0    0  501    0  0.00000000000E+00 -0.00000000000E+00 -0.43191301881E+02  0.43191301956E+02  0.25500000000E-02 0.  1.
    5000001    1    1    2    0    0 -0.11326277509E+02  0.86084143332E+02  0.11995912556E+03  0.16690702831E+03  0.77000000000E+02 0.  0.
   -5000001    1    1    2    0    0  0.11326277509E+02 -0.86084143332E+02  0.15104296868E+03  0.19047766978E+03  0.77000000000E+02 0.  0.
<mgrwt>
<rscale>  0 0.23298431E+03</rscale>
<asrwt>0</asrwt>
<pdfrwt beam="1">  1        2 0.61701858E-02 0.23298431E+03</pdfrwt>
<pdfrwt beam="2">  1       -2 0.44884772E-01 0.23298431E+03</pdfrwt>
<totfact> 0.55824388E+03</totfact>
</mgrwt>
</event>
<event>
 4    1  0.6853809E-004  0.3203248E+03  0.7818608E-02  0.1075500E+00
          2   -1    0    0  501    0  0.00000000000E+00  0.00000000000E+00  0.31237902302E+03  0.31237902303E+03  0.25500000000E-02 0.  1.
         -2   -1    0    0    0  501 -0.00000000000E+00 -0.00000000000E+00 -0.82118161879E+02  0.82118161919E+02  0.25500000000E-02 0. -1.
    5000001    1    1    2    0    0  0.35671987893E+02  0.11288293577E+03  0.20817546401E+03  0.25155729313E+03  0.77000000000E+02 0.  0.
   -5000001    1    1    2    0    0 -0.35671987893E+02 -0.11288293577E+03  0.22085397129E+02  0.14293989182E+03  0.77000000000E+02 0.  0.
<mgrwt>
<rscale>  0 0.32032478E+03</rscale>
<asrwt>0</asrwt>
<pdfrwt beam="1">  1        2 0.44625574E-01 0.32032478E+03</pdfrwt>
<pdfrwt beam="2">  1       -2 0.11731166E-01 0.32032478E+03</pdfrwt>
<totfact> 0.58184563E+03</totfact>
</mgrwt>
</event>
<event>
 4    1  0.6853809E-004  0.2502049E+03  0.7818608E-02  0.1113175E+00
          2   -1    0    0  501    0  0.00000000000E+00  0.00000000000E+00  0.25492804604E+03  0.25492804605E+03  0.25500000000E-02 0.  1.
         -2   -1    0    0    0  501 -0.00000000000E+00 -0.00000000000E+00 -0.61392339262E+02  0.61392339314E+02  0.25500000000E-02 0. -1.
    5000001    1    1    2    0    0  0.92113783625E+02  0.32838711922E+02  0.80861511076E+02  0.14842814460E+03  0.77000000000E+02 0.  0.
   -5000001    1    1    2    0    0 -0.92113783625E+02 -0.32838711922E+02  0.11267419570E+03  0.16789224077E+03  0.77000000000E+02 0.  0.
<mgrwt>
<rscale>  0 0.25020495E+03</rscale>
<asrwt>0</asrwt>
<pdfrwt beam="1">  1        2 0.36418292E-01 0.25020495E+03</pdfrwt>
<pdfrwt beam="2">  1       -2 0.87703342E-02 0.25020495E+03</pdfrwt>
<totfact> 0.11403448E+04</totfact>
</mgrwt>
</event>
<event>
 4    1  0.6853809E-004  0.2803338E+03  0.7818608E-02  0.1095507E+00
          2   -1    0    0  501    0  0.00000000000E+00  0.00000000000E+00  0.12835105740E+04  0.12835105740E+04  0.25500000000E-02 0.  1.
         -2   -1    0    0    0  501 -0.00000000000E+00 -0.00000000000E+00 -0.15307051827E+02  0.15307052039E+02  0.25500000000E-02 0. -1.
    5000001    1    1    2    0    0 -0.70372941158E+02  0.34278005301E+02  0.10377526186E+04  0.10435453176E+04  0.77000000000E+02 0.  0.
   -5000001    1    1    2    0    0  0.70372941158E+02 -0.34278005301E+02  0.23045090358E+03  0.25527230843E+03  0.77000000000E+02 0.  0.
<mgrwt>
<rscale>  0 0.28033382E+03</rscale>
<asrwt>0</asrwt>
<pdfrwt beam="1">  1        2 0.18335872E+00 0.28033382E+03</pdfrwt>
<pdfrwt beam="2">  1       -2 0.21867210E-02 0.28033382E+03</pdfrwt>
<totfact> 0.13681698E+04</totfact>
</mgrwt>
</event>
<event>
 4    1  0.6853809E-004  0.1882764E+03  0.7818608E-02  0.1160025E+00
          2   -1    0    0  501    0  0.00000000000E+00  0.00000000000E+00  0.25028348009E+03  0.25028348010E+03  0.25500000000E-02 0.  1.
         -2   -1    0    0    0  501 -0.00000000000E+00 -0.00000000000E+00 -0.35407848130E+02  0.35407848222E+02  0.25500000000E-02 0. -1.
    5000001    1    1    2    0    0  0.47159583332E+02 -0.14367867673E+02  0.73421642313E+02  0.11726124458E+03  0.77000000000E+02 0.  0.
   -5000001    1    1    2    0    0 -0.47159583332E+02  0.14367867673E+02  0.14145398964E+03  0.16843008374E+03  0.77000000000E+02 0.  0.
<mgrwt>
<rscale>  0 0.18827639E+03</rscale>
<asrwt>0</asrwt>
<pdfrwt beam="1">  1        2 0.35754783E-01 0.18827639E+03</pdfrwt>
<pdfrwt beam="2">  1       -2 0.50582640E-02 0.18827639E+03</pdfrwt>
<totfact> 0.26613259E+04</totfact>
</mgrwt>
</event>
<event>
 4    1  0.6853809E-004  0.3632072E+03  0.7818608E-02  0.1057321E+00
         -2   -1    0    0    0  501 -0.00000000000E+00  0.00000000000E+00  0.18357737384E+02  0.18357737561E+02  0.25500000000E-02 0. -1.
          2   -1    0    0  501    0  0.00000000000E+00 -0.00000000000E+00 -0.17965104192E+04  0.17965104192E+04  0.25500000000E-02 0.  1.
    5000001    1    1    2    0    0  0.11751267422E+03 -0.89607721279E+02 -0.52833428918E+03  0.55398997594E+03  0.77000000000E+02 0.  0.
   -5000001    1    1    2    0    0 -0.11751267422E+03  0.89607721279E+02 -0.12498183926E+04  0.12608781808E+04  0.77000000000E+02 0.  0.
<mgrwt>
<rscale>  0 0.36320720E+03</rscale>
<asrwt>0</asrwt>
<pdfrwt beam="1">  1        2 0.25664423E+00 0.36320720E+03</pdfrwt>
<pdfrwt beam="2">  1       -2 0.26225351E-02 0.36320720E+03</pdfrwt>
<totfact> 0.57607875E+03</totfact>
</mgrwt>
</event>
<event>
 4    1  0.6853809E-004  0.4986588E+03  0.7818608E-02  0.1014130E+00
         -2   -1    0    0    0  501 -0.00000000000E+00  0.00000000000E+00  0.11731283597E+03  0.11731283599E+03  0.25500000000E-02 0. -1.
          2   -1    0    0  501    0  0.00000000000E+00 -0.00000000000E+00 -0.52990928595E+03  0.52990928596E+03  0.25500000000E-02 0.  1.
    5000001    1    1    2    0    0  0.24092649898E+02 -0.23126141295E+03 -0.26681364280E+03  0.36218892429E+03  0.77000000000E+02 0.  0.
   -5000001    1    1    2    0    0 -0.24092649898E+02  0.23126141295E+03 -0.14578280718E+03  0.28503319766E+03  0.77000000000E+02 0.  0.
<mgrwt>
<rscale>  0 0.49865885E+03</rscale>
<asrwt>0</asrwt>
<pdfrwt beam="1">  1        2 0.75701326E-01 0.49865885E+03</pdfrwt>
<pdfrwt beam="2">  1       -2 0.16758977E-01 0.49865885E+03</pdfrwt>
<totfact> 0.18137430E+03</totfact>
</mgrwt>
</event>
<event>
 4    1  0.6853809E-004  0.5343120E+03  0.7818608E-02  0.1005192E+00
          2   -1    0    0  501    0  0.00000000000E+00  0.00000000000E+00  0.10309949704E+04  0.10309949704E+04  0.25500000000E-02 0.  1.
         -2   -1    0    0    0  501 -0.00000000000E+00 -0.00000000000E+00 -0.69226649042E+02  0.69226649089E+02  0.25500000000E-02 0. -1.
    5000001    1    1    2    0    0  0.24346711279E+03 -0.36188135421E+02  0.62439745720E+03  0.67556420917E+03  0.77000000000E+02 0.  0.
   -5000001    1    1    2    0    0 -0.24346711279E+03  0.36188135421E+02  0.33737086417E+03  0.42465741033E+03  0.77000000000E+02 0.  0.
<mgrwt>
<rscale>  0 0.53431200E+03</rscale>
<asrwt>0</asrwt>
<pdfrwt beam="1">  1        2 0.14728499E+00 0.53431200E+03</pdfrwt>
<pdfrwt beam="2">  1       -2 0.98895216E-02 0.53431200E+03</pdfrwt>
<totfact> 0.18860116E+03</totfact>
</mgrwt>
</event>
<event>
 4    1  0.6853809E-004  0.2083985E+03  0.7818608E-02  0.1142840E+00
         -2   -1    0    0    0  501 -0.00000000000E+00  0.00000000000E+00  0.10485193333E+03  0.10485193336E+03  0.25500000000E-02 0. -1.
          2   -1    0    0  501    0  0.00000000000E+00 -0.00000000000E+00 -0.10355064727E+03  0.10355064730E+03  0.25500000000E-02 0.  1.
    5000001    1    1    2    0    0 -0.53415892203E+02  0.43761545823E+02 -0.12004845186E+02  0.10412226823E+03  0.77000000000E+02 0.  0.
   -5000001    1    1    2    0    0  0.53415892203E+02 -0.43761545823E+02  0.13306131241E+02  0.10428031243E+03  0.77000000000E+02 0.  0.
<mgrwt>
<rscale>  0 0.20839852E+03</rscale>
<asrwt>0</asrwt>
<pdfrwt beam="1">  1        2 0.14792950E-01 0.20839852E+03</pdfrwt>
<pdfrwt beam="2">  1       -2 0.14978848E-01 0.20839852E+03</pdfrwt>
<totfact> 0.13169007E+04</totfact>
</mgrwt>
</event>
<event>
 4    1  0.6853809E-004  0.7243245E+03  0.7818608E-02  0.9676515E-01
         -2   -1    0    0    0  501 -0.00000000000E+00  0.00000000000E+00  0.84295258618E+02  0.84295258657E+02  0.25500000000E-02 0. -1.
          2   -1    0    0  501    0  0.00000000000E+00 -0.00000000000E+00 -0.15559773148E+04  0.15559773148E+04  0.25500000000E-02 0.  1.
    5000001    1    1    2    0    0  0.71618134151E+02  0.28488544649E+03 -0.11827314728E+04  0.12210944318E+04  0.77000000000E+02 0.  0.
   -5000001    1    1    2    0    0 -0.71618134151E+02 -0.28488544649E+03 -0.28895058340E+03  0.41917814162E+03  0.77000000000E+02 0.  0.
<mgrwt>
<rscale>  0 0.72432454E+03</rscale>
<asrwt>0</asrwt>
<pdfrwt beam="1">  1        2 0.22228246E+00 0.72432454E+03</pdfrwt>
<pdfrwt beam="2">  1       -2 0.12042181E-01 0.72432454E+03</pdfrwt>
<totfact> 0.69887218E+02</totfact>
</mgrwt>
</event>
<event>
 4    1  0.6853809E-004  0.2035155E+03  0.7818608E-02  0.1146806E+00
          2   -1    0    0  501    0  0.00000000000E+00  0.00000000000E+00  0.26616955681E+04  0.26616955681E+04  0.25500000000E-02 0.  1.
         -2   -1    0    0    0  501 -0.00000000000E+00 -0.00000000000E+00 -0.38902433221E+01  0.38902441578E+01  0.25500000000E-02 0. -1.
    5000001    1    1    2    0    0  0.63682109670E+02  0.34909675341E+01  0.10810664066E+04  0.10856800511E+04  0.77000000000E+02 0.  0.
   -5000001    1    1    2    0    0 -0.63682109670E+02 -0.34909675341E+01  0.15767389182E+04  0.15799057612E+04  0.77000000000E+02 0.  0.
<mgrwt>
<rscale>  0 0.20351555E+03</rscale>
<asrwt>0</asrwt>
<pdfrwt beam="1">  1        2 0.38024212E+00 0.20351555E+03</pdfrwt>
<pdfrwt beam="2">  1       -2 0.55574925E-03 0.20351555E+03</pdfrwt>
<totfact> 0.20572926E+04</totfact>
</mgrwt>
</event>
<event>
 4    1  0.6853809E-004  0.3702429E+03  0.7818608E-02  0.1054600E+00
          2   -1    0    0  501    0  0.00000000000E+00  0.00000000000E+00  0.30243333795E+03  0.30243333796E+03  0.25500000000E-02 0.  1.
         -2   -1    0    0    0  501 -0.00000000000E+00 -0.00000000000E+00 -0.11331407899E+03  0.11331407902E+03  0.25500000000E-02 0. -1.
    5000001    1    1    2    0    0 -0.12927012534E+03  0.70552759309E+02  0.29723471491E+01  0.16621158804E+03  0.77000000000E+02 0.  0.
   -5000001    1    1    2    0    0  0.12927012534E+03 -0.70552759309E+02  0.18614691180E+03  0.24953582894E+03  0.77000000000E+02 0.  0.
<mgrwt>
<rscale>  0 0.37024292E+03</rscale>
<asrwt>0</asrwt>
<pdfrwt beam="1">  1        2 0.43204763E-01 0.37024292E+03</pdfrwt>
<pdfrwt beam="2">  1       -2 0.16187725E-01 0.37024292E+03</pdfrwt>
<totfact> 0.35592699E+03</totfact>
</mgrwt>
</event>
<event>
 4    1  0.6853809E-004  0.1963294E+03  0.7818608E-02  0.1152873E+00
         -2   -1    0    0    0  501 -0.00000000000E+00  0.00000000000E+00  0.29452251102E+03  0.29452251103E+03  0.25500000000E-02 0. -1.
          2   -1    0    0  501    0  0.00000000000E+00 -0.00000000000E+00 -0.32718425728E+02  0.32718425828E+02  0.25500000000E-02 0.  1.
    5000001    1    1    2    0    0  0.75943541824E+00 -0.59933790422E+02  0.14875130361E+03  0.17790049551E+03  0.77000000000E+02 0.  0.
   -5000001    1    1    2    0    0 -0.75943541824E+00  0.59933790422E+02  0.11305278168E+03  0.14934044135E+03  0.77000000000E+02 0.  0.
<mgrwt>
<rscale>  0 0.19632945E+03</rscale>
<asrwt>0</asrwt>
<pdfrwt beam="1">  1        2 0.46740606E-02 0.19632945E+03</pdfrwt>
<pdfrwt beam="2">  1       -2 0.42074646E-01 0.19632945E+03</pdfrwt>
<totfact> 0.90055311E+03</totfact>
</mgrwt>
</event>
<event>
 4    1  0.6853809E-004  0.4233167E+03  0.7818608E-02  0.1035992E+00
         -2   -1    0    0    0  501 -0.00000000000E+00  0.00000000000E+00  0.35719396575E+02  0.35719396666E+02  0.25500000000E-02 0. -1.
          2   -1    0    0  501    0  0.00000000000E+00 -0.00000000000E+00 -0.12541995691E+04  0.12541995691E+04  0.25500000000E-02 0.  1.
    5000001    1    1    2    0    0 -0.16749992603E+03  0.98587684505E+02 -0.71005016684E+03  0.74018646042E+03  0.77000000000E+02 0.  0.
   -5000001    1    1    2    0    0  0.16749992603E+03 -0.98587684505E+02 -0.50843000567E+03  0.54973250534E+03  0.77000000000E+02 0.  0.
<mgrwt>
<rscale>  0 0.42331668E+03</rscale>
<asrwt>0</asrwt>
<pdfrwt beam="1">  1        2 0.17917134E+00 0.42331668E+03</pdfrwt>
<pdfrwt beam="2">  1       -2 0.51027717E-02 0.42331668E+03</pdfrwt>
<totfact> 0.39923445E+03</totfact>
</mgrwt>
</event>
<event>
 4    1  0.6853809E-004  0.4067036E+03  0.7818608E-02  0.1041483E+00
          2   -1    0    0  501    0  0.00000000000E+00  0.00000000000E+00  0.70205248620E+03  0.70205248621E+03  0.25500000000E-02 0.  1.
         -2   -1    0    0    0  501 -0.00000000000E+00 -0.00000000000E+00 -0.58901504246E+02  0.58901504301E+02  0.25500000000E-02 0. -1.
    5000001    1    1    2    0    0  0.41853209269E+02 -0.18349367916E+03  0.32373010107E+03  0.38229805095E+03  0.77000000000E+02 0.  0.
   -5000001    1    1    2    0    0 -0.41853209269E+02  0.18349367916E+03  0.31942088089E+03  0.37865593956E+03  0.77000000000E+02 0.  0.
<mgrwt>
<rscale>  0 0.40670357E+03</rscale>
<asrwt>0</asrwt>
<pdfrwt beam="1">  1        2 0.10029321E+00 0.40670357E+03</pdfrwt>
<pdfrwt beam="2">  1       -2 0.84145007E-02 0.40670357E+03</pdfrwt>
<totfact> 0.40204383E+03</totfact>
</mgrwt>
</event>
<event>
 4    1  0.6853809E-004  0.1680040E+03  0.7818608E-02  0.1179945E+00
         -2   -1    0    0    0  501 -0.00000000000E+00  0.00000000000E+00  0.82493494318E+03  0.82493494318E+03  0.25500000000E-02 0. -1.
          2   -1    0    0  501    0  0.00000000000E+00 -0.00000000000E+00 -0.85538138887E+01  0.85538142688E+01  0.25500000000E-02 0.  1.
    5000001    1    1    2    0    0 -0.30640463601E+02 -0.13666988822E+02  0.41468857752E+03  0.42310901777E+03  0.77000000000E+02 0.  0.
   -5000001    1    1    2    0    0  0.30640463601E+02  0.13666988822E+02  0.40169255176E+03  0.41037973968E+03  0.77000000000E+02 0.  0.
<mgrwt>
<rscale>  0 0.16800405E+03</rscale>
<asrwt>0</asrwt>
<pdfrwt beam="1">  1        2 0.12219741E-02 0.16800405E+03</pdfrwt>
<pdfrwt beam="2">  1       -2 0.11784778E+00 0.16800405E+03</pdfrwt>
<totfact> 0.60748756E+03</totfact>
</mgrwt>
</event>
<event>
 4    1  0.6853809E-004  0.2838450E+03  0.7818608E-02  0.1093607E+00
         -2   -1    0    0    0  501 -0.00000000000E+00  0.00000000000E+00  0.98163600850E+02  0.98163600883E+02  0.25500000000E-02 0. -1.
          2   -1    0    0  501    0  0.00000000000E+00 -0.00000000000E+00 -0.20518806584E+03  0.20518806585E+03  0.25500000000E-02 0.  1.
    5000001    1    1    2    0    0  0.10720720153E+03  0.40588467523E+01  0.20525295455E+01  0.13207221954E+03  0.77000000000E+02 0.  0.
   -5000001    1    1    2    0    0 -0.10720720153E+03 -0.40588467523E+01 -0.10907699453E+03  0.17127944720E+03  0.77000000000E+02 0.  0.
<mgrwt>
<rscale>  0 0.28384502E+03</rscale>
<asrwt>0</asrwt>
<pdfrwt beam="1">  1        2 0.29312581E-01 0.28384502E+03</pdfrwt>
<pdfrwt beam="2">  1       -2 0.14023372E-01 0.28384502E+03</pdfrwt>
<totfact> 0.68449229E+03</totfact>
</mgrwt>
</event>
<event>
 4    1  0.6853809E-004  0.2737469E+03  0.7818608E-02  0.1099154E+00
         -2   -1    0    0    0  501 -0.00000000000E+00  0.00000000000E+00  0.33775186915E+02  0.33775187011E+02  0.25500000000E-02 0. -1.
          2   -1    0    0  501    0  0.00000000000E+00 -0.00000000000E+00 -0.55467761142E+03  0.55467761142E+03  0.25500000000E-02 0.  1.
    5000001    1    1    2    0    0  0.12561318574E+02 -0.98020731284E+02 -0.37896333160E+03  0.39913413433E+03  0.77000000000E+02 0.  0.
   -5000001    1    1    2    0    0 -0.12561318574E+02  0.98020731284E+02 -0.14193909290E+03  0.18931866411E+03  0.77000000000E+02 0.  0.
<mgrwt>
<rscale>  0 0.27374689E+03</rscale>
<asrwt>0</asrwt>
<pdfrwt beam="1">  1        2 0.79239653E-01 0.27374689E+03</pdfrwt>
<pdfrwt beam="2">  1       -2 0.48250270E-02 0.27374689E+03</pdfrwt>
<totfact> 0.12368883E+04</totfact>
</mgrwt>
</event>
<event>
 4    1  0.6853809E-004  0.2142967E+03  0.7818608E-02  0.1138208E+00
         -2   -1    0    0    0  501 -0.00000000000E+00  0.00000000000E+00  0.17144727678E+03  0.17144727680E+03  0.25500000000E-02 0. -1.
          2   -1    0    0  501    0  0.00000000000E+00 -0.00000000000E+00 -0.66963814049E+02  0.66963814097E+02  0.25500000000E-02 0.  1.
    5000001    1    1    2    0    0  0.30964751163E+01  0.69119451939E+02  0.83006242802E+02  0.13268806705E+03  0.77000000000E+02 0.  0.
   -5000001    1    1    2    0    0 -0.30964751163E+01 -0.69119451939E+02  0.21477219930E+02  0.10572302384E+03  0.77000000000E+02 0.  0.
<mgrwt>
<rscale>  0 0.21429665E+03</rscale>
<asrwt>0</asrwt>
<pdfrwt beam="1">  1        2 0.95662592E-02 0.21429665E+03</pdfrwt>
<pdfrwt beam="2">  1       -2 0.24492468E-01 0.21429665E+03</pdfrwt>
<totfact> 0.97243783E+03</totfact>
</mgrwt>
</event>
<event>
 4    1  0.6853809E-004  0.1931716E+03  0.7818608E-02  0.1155631E+00
         -2   -1    0    0    0  501 -0.00000000000E+00  0.00000000000E+00  0.34497034110E+02  0.34497034204E+02  0.25500000000E-02 0. -1.
          2   -1    0    0  501    0  0.00000000000E+00 -0.00000000000E+00 -0.27042384377E+03  0.27042384378E+03  0.25500000000E-02 0.  1.
    5000001    1    1    2    0    0 -0.35925074089E+02 -0.14955348263E+01 -0.19041922578E+03  0.20852177133E+03  0.77000000000E+02 0.  0.
   -5000001    1    1    2    0    0  0.35925074089E+02  0.14955348263E+01 -0.45507583876E+02  0.96399106650E+02  0.77000000000E+02 0.  0.
<mgrwt>
<rscale>  0 0.19317164E+03</rscale>
<asrwt>0</asrwt>
<pdfrwt beam="1">  1        2 0.38631977E-01 0.19317164E+03</pdfrwt>
<pdfrwt beam="2">  1       -2 0.49281479E-02 0.19317164E+03</pdfrwt>
<totfact> 0.25526631E+04</totfact>
</mgrwt>
</event>
<event>
 4    1  0.6853809E-004  0.3851853E+03  0.7818608E-02  0.1049034E+00
          2   -1    0    0  501    0  0.00000000000E+00  0.00000000000E+00  0.33972473016E+03  0.33972473017E+03  0.25500000000E-02 0.  1.
         -2   -1    0    0    0  501 -0.00000000000E+00 -0.00000000000E+00 -0.10918229656E+03  0.10918229659E+03  0.25500000000E-02 0. -1.
    5000001    1    1    2    0    0 -0.10020187844E+03  0.14009415365E+03  0.16035003573E+03  0.24760436646E+03  0.77000000000E+02 0.  0.
   -5000001    1    1    2    0    0  0.10020187844E+03 -0.14009415365E+03  0.70192397869E+02  0.20130266031E+03  0.77000000000E+02 0.  0.
<mgrwt>
<rscale>  0 0.38518529E+03</rscale>
<asrwt>0</asrwt>
<pdfrwt beam="1">  1        2 0.48532105E-01 0.38518529E+03</pdfrwt>
<pdfrwt beam="2">  1       -2 0.15597471E-01 0.38518529E+03</pdfrwt>
<totfact> 0.33406307E+03</totfact>
</mgrwt>
</event>
<event>
 4    1  0.6853809E-004  0.3516714E+03  0.7818608E-02  0.1061931E+00
          2   -1    0    0  501    0  0.00000000000E+00  0.00000000000E+00  0.59455881104E+02  0.59455881159E+02  0.25500000000E-02 0.  1.
         -2   -1    0    0    0  501 -0.00000000000E+00 -0.00000000000E+00 -0.52001900590E+03  0.52001900591E+03  0.25500000000E-02 0. -1.
    5000001    1    1    2    0    0  0.72312148249E+02 -0.11776300953E+02  0.53303266261E+00  0.10628740364E+03  0.77000000000E+02 0.  0.
   -5000001    1    1    2    0    0 -0.72312148249E+02  0.11776300953E+02 -0.46109615746E+03  0.47318748343E+03  0.77000000000E+02 0.  0.
<mgrwt>
<rscale>  0 0.35167137E+03</rscale>
<asrwt>0</asrwt>
<pdfrwt beam="1">  1        2 0.84936976E-02 0.35167137E+03</pdfrwt>
<pdfrwt beam="2">  1       -2 0.74288427E-01 0.35167137E+03</pdfrwt>
<totfact> 0.13287901E+03</totfact>
</mgrwt>
</event>
<event>
 4    1  0.6853809E-004  0.3134984E+03  0.7818608E-02  0.1078681E+00
         -2   -1    0    0    0  501 -0.00000000000E+00  0.00000000000E+00  0.24509288144E+02  0.24509288276E+02  0.25500000000E-02 0. -1.
          2   -1    0    0  501    0  0.00000000000E+00 -0.00000000000E+00 -0.10024897448E+04  0.10024897448E+04  0.25500000000E-02 0.  1.
    5000001    1    1    2    0    0 -0.13453889102E+03  0.22927535088E+02 -0.50164610546E+03  0.52555132973E+03  0.77000000000E+02 0.  0.
   -5000001    1    1    2    0    0  0.13453889102E+03 -0.22927535088E+02 -0.47633435119E+03  0.50144770334E+03  0.77000000000E+02 0.  0.
<mgrwt>
<rscale>  0 0.31349839E+03</rscale>
<asrwt>0</asrwt>
<pdfrwt beam="1">  1        2 0.14321280E+00 0.31349839E+03</pdfrwt>
<pdfrwt beam="2">  1       -2 0.35013275E-02 0.31349839E+03</pdfrwt>
<totfact> 0.97730283E+03</totfact>
</mgrwt>
</event>
<event>
 4    1  0.6853809E-004  0.3320132E+03  0.7818608E-02  0.1070250E+00
          2   -1    0    0  501    0  0.00000000000E+00  0.00000000000E+00  0.68785291896E+03  0.68785291896E+03  0.25500000000E-02 0.  1.
         -2   -1    0    0    0  501 -0.00000000000E+00 -0.00000000000E+00 -0.40064073197E+02  0.40064073279E+02  0.25500000000E-02 0. -1.
    5000001    1    1    2    0    0  0.87286159552E+02  0.10902279975E+03  0.22284378370E+03  0.27403137859E+03  0.77000000000E+02 0.  0.
   -5000001    1    1    2    0    0 -0.87286159552E+02 -0.10902279975E+03  0.42494506206E+03  0.45388561365E+03  0.77000000000E+02 0.  0.
<mgrwt>
<rscale>  0 0.33201319E+03</rscale>
<asrwt>0</asrwt>
<pdfrwt beam="1">  1        2 0.98264709E-01 0.33201319E+03</pdfrwt>
<pdfrwt beam="2">  1       -2 0.57234387E-02 0.33201319E+03</pdfrwt>
<totfact> 0.74841314E+03</totfact>
</mgrwt>
</event>
<event>
 4    1  0.6853809E-004  0.2535065E+03  0.7818608E-02  0.1111109E+00
          2   -1    0    0  501    0  0.00000000000E+00  0.00000000000E+00  0.15150107572E+04  0.15150107572E+04  0.25500000000E-02 0.  1.
         -2   -1    0    0    0  501 -0.00000000000E+00 -0.00000000000E+00 -0.10604799046E+02  0.10604799352E+02  0.25500000000E-02 0. -1.
    5000001    1    1    2    0    0  0.94114863988E+02 -0.16210769189E+02  0.94412021853E+03  0.95205692251E+03  0.77000000000E+02 0.  0.
   -5000001    1    1    2    0    0 -0.94114863988E+02  0.16210769189E+02  0.56028573962E+03  0.57355863404E+03  0.77000000000E+02 0.  0.
<mgrwt>
<rscale>  0 0.25350649E+03</rscale>
<asrwt>0</asrwt>
<pdfrwt beam="1">  1        2 0.21643017E+00 0.25350649E+03</pdfrwt>
<pdfrwt beam="2">  1       -2 0.15149709E-02 0.25350649E+03</pdfrwt>
<totfact> 0.17757151E+04</totfact>
</mgrwt>
</event>
<event>
 4    1  0.6853809E-004  0.1739028E+03  0.7818608E-02  0.1173838E+00
          2   -1    0    0  501    0  0.00000000000E+00  0.00000000000E+00  0.88039496632E+03  0.88039496632E+03  0.25500000000E-02 0.  1.
         -2   -1    0    0    0  501 -0.00000000000E+00 -0.00000000000E+00 -0.85876788778E+01  0.85876792564E+01  0.25500000000E-02 0. -1.
    5000001    1    1    2    0    0  0.38000098550E+02 -0.13202536453E+02  0.45450086469E+03  0.46272924099E+03  0.77000000000E+02 0.  0.
   -5000001    1    1    2    0    0 -0.38000098550E+02  0.13202536453E+02  0.41730642275E+03  0.42625340459E+03  0.77000000000E+02 0.  0.
<mgrwt>
<rscale>  0 0.17390284E+03</rscale>
<asrwt>0</asrwt>
<pdfrwt beam="1">  1        2 0.12577081E+00 0.17390284E+03</pdfrwt>
<pdfrwt beam="2">  1       -2 0.12268103E-02 0.17390284E+03</pdfrwt>
<totfact> 0.52323760E+04</totfact>
</mgrwt>
</event>
<event>
 4    1  0.6853809E-004  0.5503709E+03  0.7818608E-02  0.1001408E+00
         -2   -1    0    0    0  501 -0.00000000000E+00  0.00000000000E+00  0.37392816353E+03  0.37392816354E+03  0.25500000000E-02 0. -1.
          2   -1    0    0  501    0  0.00000000000E+00 -0.00000000000E+00 -0.20251760425E+03  0.20251760427E+03  0.25500000000E-02 0.  1.
    5000001    1    1    2    0    0 -0.15340867478E+03 -0.21108968207E+03  0.42457866205E+02  0.27536293465E+03  0.77000000000E+02 0.  0.
   -5000001    1    1    2    0    0  0.15340867478E+03  0.21108968207E+03  0.12895269307E+03  0.30108283316E+03  0.77000000000E+02 0.  0.
<mgrwt>
<rscale>  0 0.55037091E+03</rscale>
<asrwt>0</asrwt>
<pdfrwt beam="1">  1        2 0.28931087E-01 0.55037091E+03</pdfrwt>
<pdfrwt beam="2">  1       -2 0.53418308E-01 0.55037091E+03</pdfrwt>
<totfact> 0.61670580E+02</totfact>
</mgrwt>
</event>
<event>
 4    1  0.6853809E-004  0.2205149E+03  0.7818608E-02  0.1133500E+00
          2   -1    0    0  501    0  0.00000000000E+00  0.00000000000E+00  0.18244479953E+04  0.18244479953E+04  0.25500000000E-02 0.  1.
         -2   -1    0    0    0  501 -0.00000000000E+00 -0.00000000000E+00 -0.66632224289E+01  0.66632229168E+01  0.25500000000E-02 0. -1.
    5000001    1    1    2    0    0 -0.22396909541E+02 -0.66661924283E+02  0.61154338551E+03  0.62037065216E+03  0.77000000000E+02 0.  0.
   -5000001    1    1    2    0    0  0.22396909541E+02  0.66661924283E+02  0.12062413874E+04  0.12107405661E+04  0.77000000000E+02 0.  0.
<mgrwt>
<rscale>  0 0.22051488E+03</rscale>
<asrwt>0</asrwt>
<pdfrwt beam="1">  1        2 0.26063535E+00 0.22051488E+03</pdfrwt>
<pdfrwt beam="2">  1       -2 0.95188924E-03 0.22051488E+03</pdfrwt>
<totfact> 0.24406249E+04</totfact>
</mgrwt>
</event>
<event>
 4    1  0.6853809E-004  0.1771242E+03  0.7818608E-02  0.1170616E+00
         -2   -1    0    0    0  501 -0.00000000000E+00  0.00000000000E+00  0.53456012372E+01  0.53456018454E+01  0.25500000000E-02 0. -1.
          2   -1    0    0  501    0  0.00000000000E+00 -0.00000000000E+00 -0.14672334264E+04  0.14672334265E+04  0.25500000000E-02 0.  1.
    5000001    1    1    2    0    0  0.30734289574E+02 -0.11645495886E+02 -0.97104374132E+03  0.97464617256E+03  0.77000000000E+02 0.  0.
   -5000001    1    1    2    0    0 -0.30734289574E+02  0.11645495886E+02 -0.49084408389E+03  0.49793285573E+03  0.77000000000E+02 0.  0.
<mgrwt>
<rscale>  0 0.17712420E+03</rscale>
<asrwt>0</asrwt>
<pdfrwt beam="1">  1        2 0.20960452E+00 0.17712420E+03</pdfrwt>
<pdfrwt beam="2">  1       -2 0.76365830E-03 0.17712420E+03</pdfrwt>
<totfact> 0.49501707E+04</totfact>
</mgrwt>
</event>
<event>
 4    1  0.6853809E-004  0.2947152E+03  0.7818608E-02  0.1087913E+00
          2   -1    0    0  501    0  0.00000000000E+00  0.00000000000E+00  0.12448892098E+04  0.12448892098E+04  0.25500000000E-02 0.  1.
         -2   -1    0    0    0  501 -0.00000000000E+00 -0.00000000000E+00 -0.17442720938E+02  0.17442721124E+02  0.25500000000E-02 0. -1.
    5000001    1    1    2    0    0  0.95897569745E+02  0.73813561574E+02  0.75837141039E+03  0.77181667632E+03  0.77000000000E+02 0.  0.
   -5000001    1    1    2    0    0 -0.95897569745E+02 -0.73813561574E+02  0.46907507851E+03  0.49051525464E+03  0.77000000000E+02 0.  0.
<mgrwt>
<rscale>  0 0.29471515E+03</rscale>
<asrwt>0</asrwt>
<pdfrwt beam="1">  1        2 0.17784127E+00 0.29471515E+03</pdfrwt>
<pdfrwt beam="2">  1       -2 0.24918179E-02 0.29471515E+03</pdfrwt>
<totfact> 0.11843473E+04</totfact>
</mgrwt>
</event>
<event>
 4    1  0.6853809E-004  0.2249951E+03  0.7818608E-02  0.1130213E+00
         -2   -1    0    0    0  501 -0.00000000000E+00  0.00000000000E+00  0.15430931174E+02  0.15430931385E+02  0.25500000000E-02 0. -1.
          2   -1    0    0  501    0  0.00000000000E+00 -0.00000000000E+00 -0.82015108462E+03  0.82015108463E+03  0.25500000000E-02 0.  1.
    5000001    1    1    2    0    0 -0.32830775508E+02 -0.53166870319E+02 -0.59964947937E+03  0.60779361137E+03  0.77000000000E+02 0.  0.
   -5000001    1    1    2    0    0  0.32830775508E+02  0.53166870319E+02 -0.20507067408E+03  0.22778840464E+03  0.77000000000E+02 0.  0.
<mgrwt>
<rscale>  0 0.22499507E+03</rscale>
<asrwt>0</asrwt>
<pdfrwt beam="1">  1        2 0.11716441E+00 0.22499507E+03</pdfrwt>
<pdfrwt beam="2">  1       -2 0.22044193E-02 0.22499507E+03</pdfrwt>
<totfact> 0.24854606E+04</totfact>
</mgrwt>
</event>
<event>
 4    1  0.6853809E-004  0.2215105E+03  0.7818608E-02  0.1132762E+00
          2   -1    0    0  501    0  0.00000000000E+00  0.00000000000E+00  0.91395291381E+03  0.91395291382E+03  0.25500000000E-02 0.  1.
         -2   -1    0    0    0  501 -0.00000000000E+00 -0.00000000000E+00 -0.13421611058E+02  0.13421611300E+02  0.25500000000E-02 0. -1.
    5000001    1    1    2    0    0 -0.75782110291E+02 -0.15953237340E+02  0.52749517738E+03  0.53868134939E+03  0.77000000000E+02 0.  0.
   -5000001    1    1    2    0    0  0.75782110291E+02  0.15953237340E+02  0.37303612537E+03  0.38869317573E+03  0.77000000000E+02 0.  0.
<mgrwt>
<rscale>  0 0.22151046E+03</rscale>
<asrwt>0</asrwt>
<pdfrwt beam="1">  1        2 0.13056475E+00 0.22151046E+03</pdfrwt>
<pdfrwt beam="2">  1       -2 0.19173723E-02 0.22151046E+03</pdfrwt>
<totfact> 0.26557475E+04</totfact>
</mgrwt>
</event>
<event>
 4    1  0.6853809E-004  0.2345683E+03  0.7818608E-02  0.1123465E+00
         -2   -1    0    0    0  501 -0.00000000000E+00  0.00000000000E+00  0.20529500659E+02  0.20529500818E+02  0.25500000000E-02 0. -1.
          2   -1    0    0  501    0  0.00000000000E+00 -0.00000000000E+00 -0.67003938709E+03  0.67003938709E+03  0.25500000000E-02 0.  1.
    5000001    1    1    2    0    0  0.87612764799E+02  0.11093499328E+02 -0.30931316707E+03  0.33076078608E+03  0.77000000000E+02 0.  0.
   -5000001    1    1    2    0    0 -0.87612764799E+02 -0.11093499328E+02 -0.34019671935E+03  0.35980810183E+03  0.77000000000E+02 0.  0.
<mgrwt>
<rscale>  0 0.23456832E+03</rscale>
<asrwt>0</asrwt>
<pdfrwt beam="1">  1        2 0.95719898E-01 0.23456832E+03</pdfrwt>
<pdfrwt beam="2">  1       -2 0.29327863E-02 0.23456832E+03</pdfrwt>
<totfact> 0.20849584E+04</totfact>
</mgrwt>
</event>
<event>
 4    1  0.6853809E-004  0.8301308E+03  0.7818608E-02  0.9517400E-01
         -2   -1    0    0    0  501 -0.00000000000E+00  0.00000000000E+00  0.11925146953E+03  0.11925146956E+03  0.25500000000E-02 0. -1.
          2   -1    0    0  501    0  0.00000000000E+00 -0.00000000000E+00 -0.14446720833E+04  0.14446720833E+04  0.25500000000E-02 0.  1.
    5000001    1    1    2    0    0 -0.34040827663E+03  0.22268818443E+03 -0.71867488672E+03  0.82939159332E+03  0.77000000000E+02 0.  0.
   -5000001    1    1    2    0    0  0.34040827663E+03 -0.22268818443E+03 -0.60674572705E+03  0.73453195953E+03  0.77000000000E+02 0.  0.
<mgrwt>
<rscale>  0 0.83013076E+03</rscale>
<asrwt>0</asrwt>
<pdfrwt beam="1">  1        2 0.20638171E+00 0.83013076E+03</pdfrwt>
<pdfrwt beam="2">  1       -2 0.17035925E-01 0.83013076E+03</pdfrwt>
<totfact> 0.44354740E+02</totfact>
</mgrwt>
</event>
<event>
 4    1  0.6853809E-004  0.3151302E+03  0.7818608E-02  0.1077913E+00
          2   -1    0    0  501    0  0.00000000000E+00  0.00000000000E+00  0.14540522380E+04  0.14540522380E+04  0.25500000000E-02 0.  1.
         -2   -1    0    0    0  501 -0.00000000000E+00 -0.00000000000E+00 -0.17074192488E+02  0.17074192678E+02  0.25500000000E-02 0. -1.
    5000001    1    1    2    0    0 -0.49186963380E+02  0.12814325799E+03  0.68302336302E+03  0.70092079893E+03  0.77000000000E+02 0.  0.
   -5000001    1    1    2    0    0  0.49186963380E+02 -0.12814325799E+03  0.75395468253E+03  0.77020563179E+03  0.77000000000E+02 0.  0.
<mgrwt>
<rscale>  0 0.31513025E+03</rscale>
<asrwt>0</asrwt>
<pdfrwt beam="1">  1        2 0.20772177E+00 0.31513025E+03</pdfrwt>
<pdfrwt beam="2">  1       -2 0.24391702E-02 0.31513025E+03</pdfrwt>
<totfact> 0.95176496E+03</totfact>
</mgrwt>
</event>
<event>
 4    1  0.6853809E-004  0.2789588E+03  0.7818608E-02  0.1096259E+00
         -2   -1    0    0    0  501 -0.00000000000E+00  0.00000000000E+00  0.72526979304E+02  0.72526979349E+02  0.25500000000E-02 0. -1.
          2   -1    0    0  501    0  0.00000000000E+00 -0.00000000000E+00 -0.26823818326E+03  0.26823818327E+03  0.25500000000E-02 0.  1.
    5000001    1    1    2    0    0  0.55713666329E+02  0.96384297081E+02 -0.56763925420E+02  0.14678245320E+03  0.77000000000E+02 0.  0.
   -5000001    1    1    2    0    0 -0.55713666329E+02 -0.96384297081E+02 -0.13894727853E+03  0.19398270941E+03  0.77000000000E+02 0.  0.
<mgrwt>
<rscale>  0 0.27895882E+03</rscale>
<asrwt>0</asrwt>
<pdfrwt beam="1">  1        2 0.38319740E-01 0.27895882E+03</pdfrwt>
<pdfrwt beam="2">  1       -2 0.10360997E-01 0.27895882E+03</pdfrwt>
<totfact> 0.83326003E+03</totfact>
</mgrwt>
</event>
<event>
 4    1  0.6853809E-004  0.2364919E+03  0.7818608E-02  0.1122152E+00
         -2   -1    0    0    0  501 -0.00000000000E+00  0.00000000000E+00  0.61676380963E+01  0.61676386234E+01  0.25500000000E-02 0. -1.
          2   -1    0    0  501    0  0.00000000000E+00 -0.00000000000E+00 -0.22670112616E+04  0.22670112616E+04  0.25500000000E-02 0.  1.
    5000001    1    1    2    0    0 -0.51910231297E+02 -0.70528866062E+02 -0.13188069273E+04  0.13239523045E+04  0.77000000000E+02 0.  0.
   -5000001    1    1    2    0    0  0.51910231297E+02  0.70528866062E+02 -0.94203669612E+03  0.94922659565E+03  0.77000000000E+02 0.  0.
<mgrwt>
<rscale>  0 0.23649191E+03</rscale>
<asrwt>0</asrwt>
<pdfrwt beam="1">  1        2 0.32385822E+00 0.23649191E+03</pdfrwt>
<pdfrwt beam="2">  1       -2 0.88109265E-03 0.23649191E+03</pdfrwt>
<totfact> 0.16686688E+04</totfact>
</mgrwt>
</event>
<event>
 4    1  0.6853809E-004  0.1713525E+03  0.7818608E-02  0.1176445E+00
          2   -1    0    0  501    0  0.00000000000E+00  0.00000000000E+00  0.17244140951E+04  0.17244140951E+04  0.25500000000E-02 0.  1.
         -2   -1    0    0    0  501 -0.00000000000E+00 -0.00000000000E+00 -0.42567611578E+01  0.42567619216E+01  0.25500000000E-02 0. -1.
    5000001    1    1    2    0    0  0.36703439130E+01  0.13572187714E+02  0.50861098149E+03  0.51459868461E+03  0.77000000000E+02 0.  0.
   -5000001    1    1    2    0    0 -0.36703439130E+01 -0.13572187714E+02  0.12115463524E+04  0.12140721724E+04  0.77000000000E+02 0.  0.
<mgrwt>
<rscale>  0 0.17135250E+03</rscale>
<asrwt>0</asrwt>
<pdfrwt beam="1">  1        2 0.24634555E+00 0.17135250E+03</pdfrwt>
<pdfrwt beam="2">  1       -2 0.60810712E-03 0.17135250E+03</pdfrwt>
<totfact> 0.51149822E+04</totfact>
</mgrwt>
</event>
<event>
 4    1  0.6853809E-004  0.3266710E+03  0.7818608E-02  0.1072619E+00
          2   -1    0    0  501    0  0.00000000000E+00  0.00000000000E+00  0.12316938782E+04  0.12316938782E+04  0.25500000000E-02 0.  1.
         -2   -1    0    0    0  501 -0.00000000000E+00 -0.00000000000E+00 -0.21659998311E+02  0.21659998461E+02  0.25500000000E-02 0. -1.
    5000001    1    1    2    0    0  0.11224820453E+03  0.74884457542E+02  0.41156933486E+03  0.43991551326E+03  0.77000000000E+02 0.  0.
   -5000001    1    1    2    0    0 -0.11224820453E+03 -0.74884457542E+02  0.79846454506E+03  0.81343836344E+03  0.77000000000E+02 0.  0.
<mgrwt>
<rscale>  0 0.32667101E+03</rscale>
<asrwt>0</asrwt>
<pdfrwt beam="1">  1        2 0.17595633E+00 0.32667101E+03</pdfrwt>
<pdfrwt beam="2">  1       -2 0.30942844E-02 0.32667101E+03</pdfrwt>
<totfact> 0.87418791E+03</totfact>
</mgrwt>
</event>
<event>
 4    1  0.6853809E-004  0.2648474E+03  0.7818608E-02  0.1104265E+00
         -2   -1    0    0    0  501 -0.00000000000E+00  0.00000000000E+00  0.17529657313E+02  0.17529657499E+02  0.25500000000E-02 0. -1.
          2   -1    0    0  501    0  0.00000000000E+00 -0.00000000000E+00 -0.10003637620E+04  0.10003637620E+04  0.25500000000E-02 0.  1.
    5000001    1    1    2    0    0  0.92091395803E+02 -0.55763640595E+02 -0.50708783081E+03  0.52407773941E+03  0.77000000000E+02 0.  0.
   -5000001    1    1    2    0    0 -0.92091395803E+02  0.55763640595E+02 -0.47574627388E+03  0.49381568009E+03  0.77000000000E+02 0.  0.
<mgrwt>
<rscale>  0 0.26484738E+03</rscale>
<asrwt>0</asrwt>
<pdfrwt beam="1">  1        2 0.14290907E+00 0.26484738E+03</pdfrwt>
<pdfrwt beam="2">  1       -2 0.25042374E-02 0.26484738E+03</pdfrwt>
<totfact> 0.16055299E+04</totfact>
</mgrwt>
</event>
<event>
 4    1  0.6853809E-004  0.2470444E+03  0.7818608E-02  0.1115187E+00
          2   -1    0    0  501    0  0.00000000000E+00  0.00000000000E+00  0.18850671677E+03  0.18850671678E+03  0.25500000000E-02 0.  1.
         -2   -1    0    0    0  501 -0.00000000000E+00 -0.00000000000E+00 -0.80939976375E+02  0.80939976415E+02  0.25500000000E-02 0. -1.
    5000001    1    1    2    0    0 -0.17129544941E+02  0.60905976097E+02  0.13337897983E+03  0.16649898347E+03  0.77000000000E+02 0.  0.
   -5000001    1    1    2    0    0  0.17129544941E+02 -0.60905976097E+02 -0.25812239441E+02  0.10294770973E+03  0.77000000000E+02 0.  0.
<mgrwt>
<rscale>  0 0.24704436E+03</rscale>
<asrwt>0</asrwt>
<pdfrwt beam="1">  1        2 0.26929531E-01 0.24704436E+03</pdfrwt>
<pdfrwt beam="2">  1       -2 0.11562854E-01 0.24704436E+03</pdfrwt>
<totfact> 0.10217297E+04</totfact>
</mgrwt>
</event>
<event>
 4    1  0.6853809E-004  0.2599532E+03  0.7818608E-02  0.1107171E+00
         -2   -1    0    0    0  501 -0.00000000000E+00  0.00000000000E+00  0.29094371092E+02  0.29094371204E+02  0.25500000000E-02 0. -1.
          2   -1    0    0  501    0  0.00000000000E+00 -0.00000000000E+00 -0.58065918629E+03  0.58065918629E+03  0.25500000000E-02 0.  1.
    5000001    1    1    2    0    0 -0.49162077805E+02 -0.78356542861E+02 -0.39089174408E+03  0.40900123874E+03  0.77000000000E+02 0.  0.
   -5000001    1    1    2    0    0  0.49162077805E+02  0.78356542861E+02 -0.16067307112E+03  0.20075231875E+03  0.77000000000E+02 0.  0.
<mgrwt>
<rscale>  0 0.25995318E+03</rscale>
<asrwt>0</asrwt>
<pdfrwt beam="1">  1        2 0.82951305E-01 0.25995318E+03</pdfrwt>
<pdfrwt beam="2">  1       -2 0.41563391E-02 0.25995318E+03</pdfrwt>
<totfact> 0.14680615E+04</totfact>
</mgrwt>
</event>
<event>
 4    1  0.6853809E-004  0.1893949E+03  0.7818608E-02  0.1159008E+00
          2   -1    0    0  501    0  0.00000000000E+00  0.00000000000E+00  0.17830318024E+03  0.17830318026E+03  0.25500000000E-02 0.  1.
         -2   -1    0    0    0  501 -0.00000000000E+00 -0.00000000000E+00 -0.50294130110E+02  0.50294130174E+02  0.25500000000E-02 0. -1.
    5000001    1    1    2    0    0  0.18276049149E+02 -0.20588225083E+02  0.63626134912E+01  0.82020557393E+02  0.77000000000E+02 0.  0.
   -5000001    1    1    2    0    0 -0.18276049149E+02  0.20588225083E+02  0.12164643664E+03  0.14657675304E+03  0.77000000000E+02 0.  0.
<mgrwt>
<rscale>  0 0.18939486E+03</rscale>
<asrwt>0</asrwt>
<pdfrwt beam="1">  1        2 0.25471883E-01 0.18939486E+03</pdfrwt>
<pdfrwt beam="2">  1       -2 0.71848757E-02 0.18939486E+03</pdfrwt>
<totfact> 0.22562882E+04</totfact>
</mgrwt>
</event>
<event>
 4    1  0.6853809E-004  0.5191125E+03  0.7818608E-02  0.1008907E+00
         -2   -1    0    0    0  501 -0.00000000000E+00  0.00000000000E+00  0.51562863463E+03  0.51562863464E+03  0.25500000000E-02 0.  1.
          2   -1    0    0  501    0  0.00000000000E+00 -0.00000000000E+00 -0.13065498961E+03  0.13065498964E+03  0.25500000000E-02 0. -1.
    5000001    1    1    2    0    0  0.12791059829E+03 -0.18427745565E+03  0.32377829910E+03  0.40134858762E+03  0.77000000000E+02 0.  0.
   -5000001    1    1    2    0    0 -0.12791059829E+03  0.18427745565E+03  0.61195345922E+02  0.24493503665E+03  0.77000000000E+02 0.  0.
<mgrwt>
<rscale>  0 0.51911253E+03</rscale>
<asrwt>0</asrwt>
<pdfrwt beam="1">  1        2 0.18664999E-01 0.51911253E+03</pdfrwt>
<pdfrwt beam="2">  1       -2 0.73661233E-01 0.51911253E+03</pdfrwt>
<totfact> 0.51668875E+02</totfact>
</mgrwt>
</event>
<event>
 4    1  0.6853809E-004  0.2103782E+03  0.7818608E-02  0.1141267E+00
          2   -1    0    0  501    0  0.00000000000E+00  0.00000000000E+00  0.12149670075E+04  0.12149670075E+04  0.25500000000E-02 0.  1.
         -2   -1    0    0    0  501 -0.00000000000E+00 -0.00000000000E+00 -0.91070366119E+01  0.91070369689E+01  0.25500000000E-02 0. -1.
    5000001    1    1    2    0    0  0.55382475367E+02 -0.27306792287E+02  0.81455424392E+03  0.82051233736E+03  0.77000000000E+02 0.  0.
   -5000001    1    1    2    0    0 -0.55382475367E+02  0.27306792287E+02  0.39130572694E+03  0.40356170708E+03  0.77000000000E+02 0.  0.
<mgrwt>
<rscale>  0 0.21037822E+03</rscale>
<asrwt>0</asrwt>
<pdfrwt beam="1">  1        2 0.17356658E+00 0.21037822E+03</pdfrwt>
<pdfrwt beam="2">  1       -2 0.13010063E-02 0.21037822E+03</pdfrwt>
<totfact> 0.31366995E+04</totfact>
</mgrwt>
</event>
<event>
 4    1  0.6853809E-004  0.3186862E+03  0.7818608E-02  0.1076256E+00
          2   -1    0    0  501    0  0.00000000000E+00  0.00000000000E+00  0.21513946201E+04  0.21513946201E+04  0.25500000000E-02 0.  1.
         -2   -1    0    0    0  501 -0.00000000000E+00 -0.00000000000E+00 -0.11801752918E+02  0.11801753194E+02  0.25500000000E-02 0. -1.
    5000001    1    1    2    0    0  0.11460455057E+03 -0.35453952962E+02  0.58647234716E+03  0.60354784382E+03  0.77000000000E+02 0.  0.
   -5000001    1    1    2    0    0 -0.11460455057E+03  0.35453952962E+02  0.15531205200E+04  0.15596485295E+04  0.77000000000E+02 0.  0.
<mgrwt>
<rscale>  0 0.31868623E+03</rscale>
<asrwt>0</asrwt>
<pdfrwt beam="1">  1        2 0.30734248E+00 0.31868623E+03</pdfrwt>
<pdfrwt beam="2">  1       -2 0.16859626E-02 0.31868623E+03</pdfrwt>
<totfact> 0.74146656E+03</totfact>
</mgrwt>
</event>
<event>
 4    1  0.6853809E-004  0.3635431E+03  0.7818608E-02  0.1057190E+00
          2   -1    0    0  501    0  0.00000000000E+00  0.00000000000E+00  0.36509510039E+03  0.36509510040E+03  0.25500000000E-02 0.  1.
         -2   -1    0    0    0  501 -0.00000000000E+00 -0.00000000000E+00 -0.90499404842E+02  0.90499404878E+02  0.25500000000E-02 0. -1.
    5000001    1    1    2    0    0 -0.41026240238E+02  0.15855913112E+03  0.11603987359E+03  0.21498465692E+03  0.77000000000E+02 0.  0.
   -5000001    1    1    2    0    0  0.41026240238E+02 -0.15855913112E+03  0.15855582196E+03  0.24060984836E+03  0.77000000000E+02 0.  0.
<mgrwt>
<rscale>  0 0.36354306E+03</rscale>
<asrwt>0</asrwt>
<pdfrwt beam="1">  1        2 0.52156442E-01 0.36354306E+03</pdfrwt>
<pdfrwt beam="2">  1       -2 0.12928487E-01 0.36354306E+03</pdfrwt>
<totfact> 0.42088587E+03</totfact>
</mgrwt>
</event>
<event>
 4    1  0.6853809E-004  0.9078738E+03  0.7818608E-02  0.9415792E-01
         -2   -1    0    0    0  501 -0.00000000000E+00  0.00000000000E+00  0.84942287969E+02  0.84942288008E+02  0.25500000000E-02 0. -1.
          2   -1    0    0  501    0  0.00000000000E+00 -0.00000000000E+00 -0.24258669368E+04  0.24258669368E+04  0.25500000000E-02 0.  1.
    5000001    1    1    2    0    0  0.33395335279E+02  0.42340580017E+03 -0.78187961156E+03  0.89311390484E+03  0.77000000000E+02 0.  0.
   -5000001    1    1    2    0    0 -0.33395335279E+02 -0.42340580017E+03 -0.15590450373E+04  0.16176953200E+04  0.77000000000E+02 0.  0.
<mgrwt>
<rscale>  0 0.90787375E+03</rscale>
<asrwt>0</asrwt>
<pdfrwt beam="1">  1        2 0.34655238E+00 0.90787375E+03</pdfrwt>
<pdfrwt beam="2">  1       -2 0.12134614E-01 0.90787375E+03</pdfrwt>
<totfact> 0.24508114E+02</totfact>
</mgrwt>
</event>
<event>
 4    1  0.6853809E-004  0.2224996E+03  0.7818608E-02  0.1132033E+00
         -2   -1    0    0    0  501 -0.00000000000E+00  0.00000000000E+00  0.12010564003E+02  0.12010564274E+02  0.25500000000E-02 0. -1.
          2   -1    0    0  501    0  0.00000000000E+00 -0.00000000000E+00 -0.10304692293E+04  0.10304692293E+04  0.25500000000E-02 0.  1.
    5000001    1    1    2    0    0  0.23557718440E+02 -0.55201099580E+02 -0.75915408948E+03  0.76540581333E+03  0.77000000000E+02 0.  0.
   -5000001    1    1    2    0    0 -0.23557718440E+02  0.55201099580E+02 -0.25930457576E+03  0.27707398020E+03  0.77000000000E+02 0.  0.
<mgrwt>
<rscale>  0 0.22249959E+03</rscale>
<asrwt>0</asrwt>
<pdfrwt beam="1">  1        2 0.14720983E+00 0.22249959E+03</pdfrwt>
<pdfrwt beam="2">  1       -2 0.17157955E-02 0.22249959E+03</pdfrwt>
<totfact> 0.26633971E+04</totfact>
</mgrwt>
</event>
<event>
 4    1  0.6853809E-004  0.2964933E+03  0.7818608E-02  0.1087007E+00
         -2   -1    0    0    0  501 -0.00000000000E+00  0.00000000000E+00  0.15280991037E+03  0.15280991040E+03  0.25500000000E-02 0. -1.
          2   -1    0    0  501    0  0.00000000000E+00 -0.00000000000E+00 -0.14381967540E+03  0.14381967542E+03  0.25500000000E-02 0.  1.
    5000001    1    1    2    0    0  0.55418207455E+02 -0.11049470594E+03 -0.23227073926E+02  0.14747459009E+03  0.77000000000E+02 0.  0.
   -5000001    1    1    2    0    0 -0.55418207455E+02  0.11049470594E+03  0.32217308899E+02  0.14915499573E+03  0.77000000000E+02 0.  0.
<mgrwt>
<rscale>  0 0.29649332E+03</rscale>
<asrwt>0</asrwt>
<pdfrwt beam="1">  1        2 0.20545668E-01 0.29649332E+03</pdfrwt>
<pdfrwt beam="2">  1       -2 0.21829987E-01 0.29649332E+03</pdfrwt>
<totfact> 0.48447319E+03</totfact>
</mgrwt>
</event>
<event>
 4    1  0.6853809E-004  0.2947303E+03  0.7818608E-02  0.1087905E+00
         -2   -1    0    0    0  501 -0.00000000000E+00  0.00000000000E+00  0.35865911445E+03  0.35865911446E+03  0.25500000000E-02 0. -1.
          2   -1    0    0  501    0  0.00000000000E+00 -0.00000000000E+00 -0.60549120492E+02  0.60549120546E+02  0.25500000000E-02 0.  1.
    5000001    1    1    2    0    0 -0.45919944757E+02  0.10754094920E+03  0.21444879767E+03  0.25610736792E+03  0.77000000000E+02 0.  0.
   -5000001    1    1    2    0    0  0.45919944757E+02 -0.10754094920E+03  0.83661196294E+02  0.16310086709E+03  0.77000000000E+02 0.  0.
<mgrwt>
<rscale>  0 0.29473034E+03</rscale>
<asrwt>0</asrwt>
<pdfrwt beam="1">  1        2 0.86498741E-02 0.29473034E+03</pdfrwt>
<pdfrwt beam="2">  1       -2 0.51237018E-01 0.29473034E+03</pdfrwt>
<totfact> 0.28129003E+03</totfact>
</mgrwt>
</event>
<event>
 4    1  0.6853809E-004  0.1951492E+03  0.7818608E-02  0.1153897E+00
         -2   -1    0    0    0  501 -0.00000000000E+00  0.00000000000E+00  0.33582217623E+02  0.33582217720E+02  0.25500000000E-02 0. -1.
          2   -1    0    0  501    0  0.00000000000E+00 -0.00000000000E+00 -0.28350734936E+03  0.28350734937E+03  0.25500000000E-02 0.  1.
    5000001    1    1    2    0    0 -0.24724664913E+02  0.48295459652E+02 -0.83599025191E+02  0.12594267542E+03  0.77000000000E+02 0.  0.
   -5000001    1    1    2    0    0  0.24724664913E+02 -0.48295459652E+02 -0.16632610654E+03  0.19114689167E+03  0.77000000000E+02 0.  0.
<mgrwt>
<rscale>  0 0.19514923E+03</rscale>
<asrwt>0</asrwt>
<pdfrwt beam="1">  1        2 0.40501049E-01 0.19514923E+03</pdfrwt>
<pdfrwt beam="2">  1       -2 0.47974598E-02 0.19514923E+03</pdfrwt>
<totfact> 0.25291047E+04</totfact>
</mgrwt>
</event>
<event>
 4    1  0.6853809E-004  0.3517801E+03  0.7818608E-02  0.1061887E+00
          2   -1    0    0  501    0  0.00000000000E+00  0.00000000000E+00  0.10200328837E+03  0.10200328840E+03  0.25500000000E-02 0.  1.
         -2   -1    0    0    0  501 -0.00000000000E+00 -0.00000000000E+00 -0.30329722780E+03  0.30329722781E+03  0.25500000000E-02 0. -1.
    5000001    1    1    2    0    0  0.99311191655E+02  0.10328067468E+03 -0.17775188015E+03  0.24094468545E+03  0.77000000000E+02 0.  0.
   -5000001    1    1    2    0    0 -0.99311191655E+02 -0.10328067468E+03 -0.23542059283E+02  0.16435583076E+03  0.77000000000E+02 0.  0.
<mgrwt>
<rscale>  0 0.35178013E+03</rscale>
<asrwt>0</asrwt>
<pdfrwt beam="1">  1        2 0.14571899E-01 0.35178013E+03</pdfrwt>
<pdfrwt beam="2">  1       -2 0.43328175E-01 0.35178013E+03</pdfrwt>
<totfact> 0.20698601E+03</totfact>
</mgrwt>
</event>
<event>
 4    1  0.6853809E-004  0.2177429E+03  0.7818608E-02  0.1135577E+00
          2   -1    0    0  501    0  0.00000000000E+00  0.00000000000E+00  0.93294805474E+02  0.93294805509E+02  0.25500000000E-02 0.  1.
         -2   -1    0    0    0  501 -0.00000000000E+00 -0.00000000000E+00 -0.12704881336E+03  0.12704881339E+03  0.25500000000E-02 0. -1.
    5000001    1    1    2    0    0 -0.48776763143E+02  0.38583867630E+02  0.29008899408E+02  0.10314263769E+03  0.77000000000E+02 0.  0.
   -5000001    1    1    2    0    0  0.48776763143E+02 -0.38583867630E+02 -0.62762907295E+02  0.11720098121E+03  0.77000000000E+02 0.  0.
<mgrwt>
<rscale>  0 0.21774292E+03</rscale>
<asrwt>0</asrwt>
<pdfrwt beam="1">  1        2 0.13327829E-01 0.21774292E+03</pdfrwt>
<pdfrwt beam="2">  1       -2 0.18149830E-01 0.21774292E+03</pdfrwt>
<totfact> 0.10863270E+04</totfact>
</mgrwt>
</event>
<event>
 4    1  0.6853809E-004  0.2001903E+03  0.7818608E-02  0.1149579E+00
         -2   -1    0    0    0  501 -0.00000000000E+00  0.00000000000E+00  0.64705231630E+01  0.64705236655E+01  0.25500000000E-02 0. -1.
          2   -1    0    0  501    0  0.00000000000E+00 -0.00000000000E+00 -0.15484120654E+04  0.15484120654E+04  0.25500000000E-02 0.  1.
    5000001    1    1    2    0    0  0.55198560692E+02 -0.31529873437E+02 -0.82535242095E+03  0.83137033432E+03  0.77000000000E+02 0.  0.
   -5000001    1    1    2    0    0 -0.55198560692E+02  0.31529873437E+02 -0.71658912130E+03  0.72351225476E+03  0.77000000000E+02 0.  0.
<mgrwt>
<rscale>  0 0.20019027E+03</rscale>
<asrwt>0</asrwt>
<pdfrwt beam="1">  1        2 0.22120149E+00 0.20019027E+03</pdfrwt>
<pdfrwt beam="2">  1       -2 0.92436148E-03 0.20019027E+03</pdfrwt>
<totfact> 0.34574122E+04</totfact>
</mgrwt>
</event>
<event>
 4    1  0.6853809E-004  0.7392239E+03  0.7818608E-02  0.9652410E-01
          2   -1    0    0  501    0  0.00000000000E+00  0.00000000000E+00  0.32748273162E+03  0.32748273163E+03  0.25500000000E-02 0.  1.
         -2   -1    0    0    0  501 -0.00000000000E+00 -0.00000000000E+00 -0.41716091062E+03  0.41716091063E+03  0.25500000000E-02 0. -1.
    5000001    1    1    2    0    0 -0.23823813603E+03  0.23275749981E+03  0.96727860933E+02  0.35527277162E+03  0.77000000000E+02 0.  0.
   -5000001    1    1    2    0    0  0.23823813603E+03 -0.23275749981E+03 -0.18640603994E+03  0.38937087064E+03  0.77000000000E+02 0.  0.
<mgrwt>
<rscale>  0 0.73922390E+03</rscale>
<asrwt>0</asrwt>
<pdfrwt beam="1">  1        2 0.46783247E-01 0.73922390E+03</pdfrwt>
<pdfrwt beam="2">  1       -2 0.59594416E-01 0.73922390E+03</pdfrwt>
<totfact> 0.28654960E+02</totfact>
</mgrwt>
</event>
<event>
 4    1  0.6853809E-004  0.1625761E+03  0.7818608E-02  0.1185819E+00
          2   -1    0    0  501    0  0.00000000000E+00  0.00000000000E+00  0.21765109888E+03  0.21765109889E+03  0.25500000000E-02 0.  1.
         -2   -1    0    0    0  501 -0.00000000000E+00 -0.00000000000E+00 -0.30359361995E+02  0.30359362103E+02  0.25500000000E-02 0. -1.
    5000001    1    1    2    0    0 -0.96462047499E+01 -0.24191651221E+02  0.94684174962E+02  0.12478933545E+03  0.77000000000E+02 0.  0.
   -5000001    1    1    2    0    0  0.96462047499E+01  0.24191651221E+02  0.92607561922E+02  0.12322112554E+03  0.77000000000E+02 0.  0.
<mgrwt>
<rscale>  0 0.16257612E+03</rscale>
<asrwt>0</asrwt>
<pdfrwt beam="1">  1        2 0.31093015E-01 0.16257612E+03</pdfrwt>
<pdfrwt beam="2">  1       -2 0.43370516E-02 0.16257612E+03</pdfrwt>
<totfact> 0.38473491E+04</totfact>
</mgrwt>
</event>
<event>
 4    1  0.6853809E-004  0.4888975E+03  0.7818608E-02  0.1016718E+00
         -2   -1    0    0    0  501 -0.00000000000E+00  0.00000000000E+00  0.38704329327E+02  0.38704329411E+02  0.25500000000E-02 0. -1.
          2   -1    0    0  501    0  0.00000000000E+00 -0.00000000000E+00 -0.15438891689E+04  0.15438891689E+04  0.25500000000E-02 0.  1.
    5000001    1    1    2    0    0  0.24671462149E+02  0.20343141379E+03 -0.40046311561E+03  0.45639098164E+03  0.77000000000E+02 0.  0.
   -5000001    1    1    2    0    0 -0.24671462149E+02 -0.20343141379E+03 -0.11047217239E+04  0.11262025167E+04  0.77000000000E+02 0.  0.
<mgrwt>
<rscale>  0 0.48889751E+03</rscale>
<asrwt>0</asrwt>
<pdfrwt beam="1">  1        2 0.22055556E+00 0.48889751E+03</pdfrwt>
<pdfrwt beam="2">  1       -2 0.55291909E-02 0.48889751E+03</pdfrwt>
<totfact> 0.24811881E+03</totfact>
</mgrwt>
</event>
<event>
 4    1  0.6853809E-004  0.1644774E+03  0.7818608E-02  0.1183733E+00
          2   -1    0    0  501    0  0.00000000000E+00  0.00000000000E+00  0.62704027963E+03  0.62704027964E+03  0.25500000000E-02 0.  1.
         -2   -1    0    0    0  501 -0.00000000000E+00 -0.00000000000E+00 -0.10785911014E+02  0.10785911315E+02  0.25500000000E-02 0. -1.
    5000001    1    1    2    0    0 -0.28597246272E+02  0.20536474432E+01  0.29459294006E+03  0.30583659084E+03  0.77000000000E+02 0.  0.
   -5000001    1    1    2    0    0  0.28597246272E+02 -0.20536474432E+01  0.32166142856E+03  0.33198960012E+03  0.77000000000E+02 0.  0.
<mgrwt>
<rscale>  0 0.16447736E+03</rscale>
<asrwt>0</asrwt>
<pdfrwt beam="1">  1        2 0.89577179E-01 0.16447736E+03</pdfrwt>
<pdfrwt beam="2">  1       -2 0.15408445E-02 0.16447736E+03</pdfrwt>
<totfact> 0.56147372E+04</totfact>
</mgrwt>
</event>
<event>
 4    1  0.6853809E-004  0.2465576E+03  0.7818608E-02  0.1115500E+00
          2   -1    0    0  501    0  0.00000000000E+00  0.00000000000E+00  0.54236032913E+03  0.54236032913E+03  0.25500000000E-02 0.  1.
         -2   -1    0    0    0  501 -0.00000000000E+00 -0.00000000000E+00 -0.28021344013E+02  0.28021344129E+02  0.25500000000E-02 0. -1.
    5000001    1    1    2    0    0 -0.16081404036E+02  0.91136402418E+02  0.31855957552E+03  0.34054905455E+03  0.77000000000E+02 0.  0.
   -5000001    1    1    2    0    0  0.16081404036E+02 -0.91136402418E+02  0.19577940960E+03  0.22983261871E+03  0.77000000000E+02 0.  0.
<mgrwt>
<rscale>  0 0.24655762E+03</rscale>
<asrwt>0</asrwt>
<pdfrwt beam="1">  1        2 0.77480050E-01 0.24655762E+03</pdfrwt>
<pdfrwt beam="2">  1       -2 0.40030490E-02 0.24655762E+03</pdfrwt>
<totfact> 0.16727482E+04</totfact>
</mgrwt>
</event>
<event>
 4    1  0.6853809E-004  0.2215236E+03  0.7818608E-02  0.1132752E+00
          2   -1    0    0  501    0  0.00000000000E+00  0.00000000000E+00  0.47121418275E+03  0.47121418275E+03  0.25500000000E-02 0.  1.
         -2   -1    0    0    0  501 -0.00000000000E+00 -0.00000000000E+00 -0.26035248806E+02  0.26035248931E+02  0.25500000000E-02 0. -1.
    5000001    1    1    2    0    0 -0.49033055318E+02  0.45552945239E+02  0.31939389484E+03  0.33529206879E+03  0.77000000000E+02 0.  0.
   -5000001    1    1    2    0    0  0.49033055318E+02 -0.45552945239E+02  0.12578503910E+03  0.16195736290E+03  0.77000000000E+02 0.  0.
<mgrwt>
<rscale>  0 0.22152362E+03</rscale>
<asrwt>0</asrwt>
<pdfrwt beam="1">  1        2 0.67316309E-01 0.22152362E+03</pdfrwt>
<pdfrwt beam="2">  1       -2 0.37193214E-02 0.22152362E+03</pdfrwt>
<totfact> 0.21668929E+04</totfact>
</mgrwt>
</event>
<event>
 4    1  0.6853809E-004  0.1898575E+03  0.7818608E-02  0.1158590E+00
          2   -1    0    0  501    0  0.00000000000E+00  0.00000000000E+00  0.12348587173E+04  0.12348587173E+04  0.25500000000E-02 0.  1.
         -2   -1    0    0    0  501 -0.00000000000E+00 -0.00000000000E+00 -0.72975713889E+01  0.72975718344E+01  0.25500000000E-02 0. -1.
    5000001    1    1    2    0    0  0.28026276049E+02 -0.44249394140E+02  0.73424010232E+03  0.74012229320E+03  0.77000000000E+02 0.  0.
   -5000001    1    1    2    0    0 -0.28026276049E+02  0.44249394140E+02  0.49332104360E+03  0.50203399595E+03  0.77000000000E+02 0.  0.
<mgrwt>
<rscale>  0 0.18985752E+03</rscale>
<asrwt>0</asrwt>
<pdfrwt beam="1">  1        2 0.17640847E+00 0.18985752E+03</pdfrwt>
<pdfrwt beam="2">  1       -2 0.10425098E-02 0.18985752E+03</pdfrwt>
<totfact> 0.41870406E+04</totfact>
</mgrwt>
</event>
<event>
 4    1  0.6853809E-004  0.2408181E+03  0.7818608E-02  0.1119249E+00
         -2   -1    0    0    0  501 -0.00000000000E+00  0.00000000000E+00  0.98928487785E+02  0.98928487818E+02  0.25500000000E-02 0. -1.
          2   -1    0    0  501    0  0.00000000000E+00 -0.00000000000E+00 -0.14655378379E+03  0.14655378382E+03  0.25500000000E-02 0.  1.
    5000001    1    1    2    0    0 -0.80046656952E+02  0.46484057294E+02 -0.22738994259E+02  0.12253283940E+03  0.77000000000E+02 0.  0.
   -5000001    1    1    2    0    0  0.80046656952E+02 -0.46484057294E+02 -0.24886301751E+02  0.12294943223E+03  0.77000000000E+02 0.  0.
<mgrwt>
<rscale>  0 0.24081814E+03</rscale>
<asrwt>0</asrwt>
<pdfrwt beam="1">  1        2 0.20936255E-01 0.24081814E+03</pdfrwt>
<pdfrwt beam="2">  1       -2 0.14132641E-01 0.24081814E+03</pdfrwt>
<totfact> 0.97720956E+03</totfact>
</mgrwt>
</event>
<event>
 4    1  0.6853809E-004  0.2413388E+03  0.7818608E-02  0.1118904E+00
         -2   -1    0    0    0  501 -0.00000000000E+00  0.00000000000E+00  0.25310257895E+03  0.25310257897E+03  0.25500000000E-02 0. -1.
          2   -1    0    0  501    0  0.00000000000E+00 -0.00000000000E+00 -0.57530427771E+02  0.57530427828E+02  0.25500000000E-02 0.  1.
    5000001    1    1    2    0    0 -0.58250723119E+02 -0.69296625148E+02  0.12469068998E+03  0.17225544162E+03  0.77000000000E+02 0.  0.
   -5000001    1    1    2    0    0  0.58250723119E+02  0.69296625148E+02  0.70881461204E+02  0.13837756517E+03  0.77000000000E+02 0.  0.
<mgrwt>
<rscale>  0 0.24133876E+03</rscale>
<asrwt>0</asrwt>
<pdfrwt beam="1">  1        2 0.82186326E-02 0.24133876E+03</pdfrwt>
<pdfrwt beam="2">  1       -2 0.36157511E-01 0.24133876E+03</pdfrwt>
<totfact> 0.58513866E+03</totfact>
</mgrwt>
</event>
<event>
 4    1  0.6853809E-004  0.3957179E+03  0.7818608E-02  0.1045273E+00
          2   -1    0    0  501    0  0.00000000000E+00  0.00000000000E+00  0.24967021751E+03  0.24967021753E+03  0.25500000000E-02 0.  1.
         -2   -1    0    0    0  501 -0.00000000000E+00 -0.00000000000E+00 -0.15679948119E+03  0.15679948121E+03  0.25500000000E-02 0. -1.
    5000001    1    1    2    0    0  0.80033249386E+02 -0.13397503489E+03 -0.50274401006E+02  0.18113847293E+03  0.77000000000E+02 0.  0.
   -5000001    1    1    2    0    0 -0.80033249386E+02  0.13397503489E+03  0.14314513733E+03  0.22533122580E+03  0.77000000000E+02 0.  0.
<mgrwt>
<rscale>  0 0.39571788E+03</rscale>
<asrwt>0</asrwt>
<pdfrwt beam="1">  1        2 0.35667174E-01 0.39571788E+03</pdfrwt>
<pdfrwt beam="2">  1       -2 0.22399926E-01 0.39571788E+03</pdfrwt>
<totfact> 0.25181905E+03</totfact>
</mgrwt>
</event>
<event>
 4    1  0.6853809E-004  0.3579101E+03  0.7818608E-02  0.1059414E+00
         -2   -1    0    0    0  501 -0.00000000000E+00  0.00000000000E+00  0.49881009110E+02  0.49881009175E+02  0.25500000000E-02 0. -1.
          2   -1    0    0  501    0  0.00000000000E+00 -0.00000000000E+00 -0.64202608343E+03  0.64202608343E+03  0.25500000000E-02 0.  1.
    5000001    1    1    2    0    0  0.10355232250E+03 -0.52531457506E+02 -0.51318647566E+03  0.53176310169E+03  0.77000000000E+02 0.  0.
   -5000001    1    1    2    0    0 -0.10355232250E+03  0.52531457506E+02 -0.78958598660E+02  0.16014399092E+03  0.77000000000E+02 0.  0.
<mgrwt>
<rscale>  0 0.35791009E+03</rscale>
<asrwt>0</asrwt>
<pdfrwt beam="1">  1        2 0.91718007E-01 0.35791009E+03</pdfrwt>
<pdfrwt beam="2">  1       -2 0.71258588E-02 0.35791009E+03</pdfrwt>
<totfact> 0.57924986E+03</totfact>
</mgrwt>
</event>
<event>
 4    1  0.6853809E-004  0.2772703E+03  0.7818608E-02  0.1097189E+00
         -2   -1    0    0    0  501 -0.00000000000E+00  0.00000000000E+00  0.18494676933E+02  0.18494677108E+02  0.25500000000E-02 0. -1.
          2   -1    0    0  501    0  0.00000000000E+00 -0.00000000000E+00 -0.10392022565E+04  0.10392022565E+04  0.25500000000E-02 0.  1.
    5000001    1    1    2    0    0 -0.48879647978E+02  0.75727182346E+02 -0.23615079895E+03  0.26423479327E+03  0.77000000000E+02 0.  0.
   -5000001    1    1    2    0    0  0.48879647978E+02 -0.75727182346E+02 -0.78455678058E+03  0.79346214030E+03  0.77000000000E+02 0.  0.
<mgrwt>
<rscale>  0 0.27727034E+03</rscale>
<asrwt>0</asrwt>
<pdfrwt beam="1">  1        2 0.14845743E+00 0.27727034E+03</pdfrwt>
<pdfrwt beam="2">  1       -2 0.26420974E-02 0.27727034E+03</pdfrwt>
<totfact> 0.14101361E+04</totfact>
</mgrwt>
</event>
<event>
 4    1  0.6853809E-004  0.3700964E+03  0.7818608E-02  0.1054656E+00
          2   -1    0    0  501    0  0.00000000000E+00  0.00000000000E+00  0.57681338566E+03  0.57681338567E+03  0.25500000000E-02 0.  1.
         -2   -1    0    0    0  501 -0.00000000000E+00 -0.00000000000E+00 -0.59365529379E+02  0.59365529434E+02  0.25500000000E-02 0. -1.
    5000001    1    1    2    0    0  0.19559793108E+02 -0.97332553736E+02  0.49225909819E+03  0.50803959616E+03  0.77000000000E+02 0.  0.
   -5000001    1    1    2    0    0 -0.19559793108E+02  0.97332553736E+02  0.25188758096E+02  0.12813931894E+03  0.77000000000E+02 0.  0.
<mgrwt>
<rscale>  0 0.37009638E+03</rscale>
<asrwt>0</asrwt>
<pdfrwt beam="1">  1        2 0.82401908E-01 0.37009638E+03</pdfrwt>
<pdfrwt beam="2">  1       -2 0.84807903E-02 0.37009638E+03</pdfrwt>
<totfact> 0.49925745E+03</totfact>
</mgrwt>
</event>
<event>
 4    1  0.6853809E-004  0.5254615E+03  0.7818608E-02  0.1007339E+00
          2   -1    0    0  501    0  0.00000000000E+00  0.00000000000E+00  0.26629058102E+03  0.26629058103E+03  0.25500000000E-02 0.  1.
         -2   -1    0    0    0  501 -0.00000000000E+00 -0.00000000000E+00 -0.25921855089E+03  0.25921855090E+03  0.25500000000E-02 0. -1.
    5000001    1    1    2    0    0  0.10307405649E+03 -0.21323226462E+03  0.87246634566E+02  0.26388110019E+03  0.77000000000E+02 0.  0.
   -5000001    1    1    2    0    0 -0.10307405649E+03  0.21323226462E+03 -0.80174604435E+02  0.26162803174E+03  0.77000000000E+02 0.  0.
<mgrwt>
<rscale>  0 0.52546154E+03</rscale>
<asrwt>0</asrwt>
<pdfrwt beam="1">  1        2 0.38041512E-01 0.52546154E+03</pdfrwt>
<pdfrwt beam="2">  1       -2 0.37031222E-01 0.52546154E+03</pdfrwt>
<totfact> 0.93846807E+02</totfact>
</mgrwt>
</event>
<event>
 4    1  0.6853809E-004  0.2865639E+03  0.7818608E-02  0.1092157E+00
         -2   -1    0    0    0  501 -0.00000000000E+00  0.00000000000E+00  0.36616440411E+02  0.36616440500E+02  0.25500000000E-02 0. -1.
          2   -1    0    0  501    0  0.00000000000E+00 -0.00000000000E+00 -0.56066930988E+03  0.56066930989E+03  0.25500000000E-02 0.  1.
    5000001    1    1    2    0    0 -0.11147095909E+03  0.17062533440E+02 -0.17156172144E+03  0.21926999118E+03  0.77000000000E+02 0.  0.
   -5000001    1    1    2    0    0  0.11147095909E+03 -0.17062533440E+02 -0.35249114803E+03  0.37801575921E+03  0.77000000000E+02 0.  0.
<mgrwt>
<rscale>  0 0.28656388E+03</rscale>
<asrwt>0</asrwt>
<pdfrwt beam="1">  1        2 0.80095610E-01 0.28656388E+03</pdfrwt>
<pdfrwt beam="2">  1       -2 0.52309204E-02 0.28656388E+03</pdfrwt>
<totfact> 0.10828126E+04</totfact>
</mgrwt>
</event>
<event>
 4    1  0.6853809E-004  0.1713937E+03  0.7818608E-02  0.1176402E+00
          2   -1    0    0  501    0  0.00000000000E+00  0.00000000000E+00  0.14291382527E+04  0.14291382527E+04  0.25500000000E-02 0.  1.
         -2   -1    0    0    0  501 -0.00000000000E+00 -0.00000000000E+00 -0.51387279471E+01  0.51387285798E+01  0.25500000000E-02 0. -1.
    5000001    1    1    2    0    0 -0.29055633570E+02 -0.23873117706E+02  0.71947311293E+03  0.72455829014E+03  0.77000000000E+02 0.  0.
   -5000001    1    1    2    0    0  0.29055633570E+02  0.23873117706E+02  0.70452641185E+03  0.70971869116E+03  0.77000000000E+02 0.  0.
<mgrwt>
<rscale>  0 0.17139374E+03</rscale>
<asrwt>0</asrwt>
<pdfrwt beam="1">  1        2 0.20416243E+00 0.17139374E+03</pdfrwt>
<pdfrwt beam="2">  1       -2 0.73410469E-03 0.17139374E+03</pdfrwt>
<totfact> 0.54591724E+04</totfact>
</mgrwt>
</event>
<event>
 4    1  0.6853809E-004  0.2118670E+03  0.7818608E-02  0.1140096E+00
          2   -1    0    0  501    0  0.00000000000E+00  0.00000000000E+00  0.88740405911E+02  0.88740405948E+02  0.25500000000E-02 0. -1.
         -2   -1    0    0    0  501 -0.00000000000E+00 -0.00000000000E+00 -0.12645769568E+03  0.12645769570E+03  0.25500000000E-02 0.  1.
    5000001    1    1    2    0    0 -0.12328425646E+02 -0.69435188497E+02 -0.69816809167E+00  0.10441610469E+03  0.77000000000E+02 0.  0.
   -5000001    1    1    2    0    0  0.12328425646E+02  0.69435188497E+02 -0.37019121674E+02  0.11078199696E+03  0.77000000000E+02 0.  0.
<mgrwt>
<rscale>  0 0.21186701E+03</rscale>
<asrwt>0</asrwt>
<pdfrwt beam="1">  1        2 0.12677201E-01 0.21186701E+03</pdfrwt>
<pdfrwt beam="2">  1       -2 0.18065385E-01 0.21186701E+03</pdfrwt>
<totfact> 0.11606777E+04</totfact>
</mgrwt>
</event>
<event>
 4    1  0.6853809E-004  0.4941583E+03  0.7818608E-02  0.1015315E+00
         -2   -1    0    0    0  501 -0.00000000000E+00  0.00000000000E+00  0.34022797502E+02  0.34022797597E+02  0.25500000000E-02 0. -1.
          2   -1    0    0  501    0  0.00000000000E+00 -0.00000000000E+00 -0.17943295714E+04  0.17943295714E+04  0.25500000000E-02 0.  1.
    5000001    1    1    2    0    0  0.95848291160E+02  0.18391461879E+03 -0.12872742445E+04  0.13061452685E+04  0.77000000000E+02 0.  0.
   -5000001    1    1    2    0    0 -0.95848291160E+02 -0.18391461879E+03 -0.47303252941E+03  0.52220710049E+03  0.77000000000E+02 0.  0.
<mgrwt>
<rscale>  0 0.49415832E+03</rscale>
<asrwt>0</asrwt>
<pdfrwt beam="1">  1        2 0.25633274E+00 0.49415832E+03</pdfrwt>
<pdfrwt beam="2">  1       -2 0.48604008E-02 0.49415832E+03</pdfrwt>
<totfact> 0.22609332E+03</totfact>
</mgrwt>
</event>
<event>
 4    1  0.6853809E-004  0.2099156E+03  0.7818608E-02  0.1141633E+00
         -2   -1    0    0    0  501 -0.00000000000E+00  0.00000000000E+00  0.14103954427E+02  0.14103954657E+02  0.25500000000E-02 0. -1.
          2   -1    0    0  501    0  0.00000000000E+00 -0.00000000000E+00 -0.78106709050E+03  0.78106709050E+03  0.25500000000E-02 0.  1.
    5000001    1    1    2    0    0 -0.43417056778E+02  0.56586088423E+02 -0.38472944023E+03  0.39878912774E+03  0.77000000000E+02 0.  0.
   -5000001    1    1    2    0    0  0.43417056778E+02 -0.56586088423E+02 -0.38223369584E+03  0.39638191742E+03  0.77000000000E+02 0.  0.
<mgrwt>
<rscale>  0 0.20991555E+03</rscale>
<asrwt>0</asrwt>
<pdfrwt beam="1">  1        2 0.11158099E+00 0.20991555E+03</pdfrwt>
<pdfrwt beam="2">  1       -2 0.20148511E-02 0.20991555E+03</pdfrwt>
<totfact> 0.29974344E+04</totfact>
</mgrwt>
</event>
<event>
 4    1  0.6853809E-004  0.2575519E+03  0.7818608E-02  0.1108623E+00
          2   -1    0    0  501    0  0.00000000000E+00  0.00000000000E+00  0.94004288920E+03  0.94004288920E+03  0.25500000000E-02 0.  1.
         -2   -1    0    0    0  501 -0.00000000000E+00 -0.00000000000E+00 -0.17640941571E+02  0.17640941755E+02  0.25500000000E-02 0. -1.
    5000001    1    1    2    0    0 -0.44390589315E+02 -0.90403722419E+02  0.54524729958E+03  0.55979190343E+03  0.77000000000E+02 0.  0.
   -5000001    1    1    2    0    0  0.44390589315E+02  0.90403722419E+02  0.37715464804E+03  0.39789192752E+03  0.77000000000E+02 0.  0.
<mgrwt>
<rscale>  0 0.25755187E+03</rscale>
<asrwt>0</asrwt>
<pdfrwt beam="1">  1        2 0.13429187E+00 0.25755187E+03</pdfrwt>
<pdfrwt beam="2">  1       -2 0.25201339E-02 0.25755187E+03</pdfrwt>
<totfact> 0.17264140E+04</totfact>
</mgrwt>
</event>
<event>
 4    1  0.6853809E-004  0.2099713E+03  0.7818608E-02  0.1141589E+00
         -2   -1    0    0    0  501 -0.00000000000E+00  0.00000000000E+00  0.21061339169E+02  0.21061339323E+02  0.25500000000E-02 0. -1.
          2   -1    0    0  501    0  0.00000000000E+00 -0.00000000000E+00 -0.52332780986E+03  0.52332780987E+03  0.25500000000E-02 0.  1.
    5000001    1    1    2    0    0  0.36478682056E+02 -0.61059489702E+02 -0.23600897085E+03  0.25824056585E+03  0.77000000000E+02 0.  0.
   -5000001    1    1    2    0    0 -0.36478682056E+02  0.61059489702E+02 -0.26625749984E+03  0.28614858334E+03  0.77000000000E+02 0.  0.
<mgrwt>
<rscale>  0 0.20997128E+03</rscale>
<asrwt>0</asrwt>
<pdfrwt beam="1">  1        2 0.74761107E-01 0.20997128E+03</pdfrwt>
<pdfrwt beam="2">  1       -2 0.30087631E-02 0.20997128E+03</pdfrwt>
<totfact> 0.26371471E+04</totfact>
</mgrwt>
</event>
<event>
 4    1  0.6853809E-004  0.1927134E+03  0.7818608E-02  0.1156037E+00
         -2   -1    0    0    0  501 -0.00000000000E+00  0.00000000000E+00  0.15349978543E+03  0.15349978545E+03  0.25500000000E-02 0. -1.
          2   -1    0    0  501    0  0.00000000000E+00 -0.00000000000E+00 -0.60486135857E+02  0.60486135911E+02  0.25500000000E-02 0.  1.
    5000001    1    1    2    0    0  0.49085107186E+02  0.28402528182E+02  0.33389356157E+02  0.10129116674E+03  0.77000000000E+02 0.  0.
   -5000001    1    1    2    0    0 -0.49085107186E+02 -0.28402528182E+02  0.59624293419E+02  0.11269475463E+03  0.77000000000E+02 0.  0.
<mgrwt>
<rscale>  0 0.19271335E+03</rscale>
<asrwt>0</asrwt>
<pdfrwt beam="1">  1        2 0.86408766E-02 0.19271335E+03</pdfrwt>
<pdfrwt beam="2">  1       -2 0.21928541E-01 0.19271335E+03</pdfrwt>
<totfact> 0.13284393E+04</totfact>
</mgrwt>
</event>
<event>
 4    1  0.6853809E-004  0.2772443E+03  0.7818608E-02  0.1097204E+00
         -2   -1    0    0    0  501 -0.00000000000E+00  0.00000000000E+00  0.56348963809E+02  0.56348963867E+02  0.25500000000E-02 0. -1.
          2   -1    0    0  501    0  0.00000000000E+00 -0.00000000000E+00 -0.34101968925E+03  0.34101968926E+03  0.25500000000E-02 0.  1.
    5000001    1    1    2    0    0  0.35277414706E+02 -0.44874796869E+02  0.11992884860E+01  0.95857611462E+02  0.77000000000E+02 0.  0.
   -5000001    1    1    2    0    0 -0.35277414706E+02  0.44874796869E+02 -0.28587001392E+03  0.30151104166E+03  0.77000000000E+02 0.  0.
<mgrwt>
<rscale>  0 0.27724434E+03</rscale>
<asrwt>0</asrwt>
<pdfrwt beam="1">  1        2 0.48717097E-01 0.27724434E+03</pdfrwt>
<pdfrwt beam="2">  1       -2 0.80498521E-02 0.27724434E+03</pdfrwt>
<totfact> 0.95808518E+03</totfact>
</mgrwt>
</event>
<event>
 4    1  0.6853809E-004  0.7380499E+03  0.7818608E-02  0.9654287E-01
         -2   -1    0    0    0  501 -0.00000000000E+00  0.00000000000E+00  0.56266971857E+02  0.56266971914E+02  0.25500000000E-02 0. -1.
          2   -1    0    0  501    0  0.00000000000E+00 -0.00000000000E+00 -0.24202368332E+04  0.24202368332E+04  0.25500000000E-02 0.  1.
    5000001    1    1    2    0    0 -0.19291751206E+03 -0.14052927107E+03 -0.20903493623E+04  0.21053396636E+04  0.77000000000E+02 0.  0.
   -5000001    1    1    2    0    0  0.19291751206E+03  0.14052927107E+03 -0.27362049908E+03  0.37116414160E+03  0.77000000000E+02 0.  0.
<mgrwt>
<rscale>  0 0.73804986E+03</rscale>
<asrwt>0</asrwt>
<pdfrwt beam="1">  1        2 0.34574805E+00 0.73804986E+03</pdfrwt>
<pdfrwt beam="2">  1       -2 0.80381404E-02 0.73804986E+03</pdfrwt>
<totfact> 0.48901823E+02</totfact>
</mgrwt>
</event>
<event>
 4    1  0.6853809E-004  0.5430897E+03  0.7818608E-02  0.1003106E+00
          2   -1    0    0  501    0  0.00000000000E+00  0.00000000000E+00  0.13846456954E+04  0.13846456954E+04  0.25500000000E-02 0.  1.
         -2   -1    0    0    0  501 -0.00000000000E+00 -0.00000000000E+00 -0.53253050531E+02  0.53253050592E+02  0.25500000000E-02 0. -1.
    5000001    1    1    2    0    0  0.14504255495E+02 -0.20901000008E+03  0.25627998182E+03  0.33985876867E+03  0.77000000000E+02 0.  0.
   -5000001    1    1    2    0    0 -0.14504255495E+02  0.20901000008E+03  0.10751126631E+04  0.10980399774E+04  0.77000000000E+02 0.  0.
<mgrwt>
<rscale>  0 0.54308971E+03</rscale>
<asrwt>0</asrwt>
<pdfrwt beam="1">  1        2 0.19780648E+00 0.54308971E+03</pdfrwt>
<pdfrwt beam="2">  1       -2 0.76075804E-02 0.54308971E+03</pdfrwt>
<totfact> 0.18195148E+03</totfact>
</mgrwt>
</event>
<event>
 4    1  0.6853809E-004  0.2175817E+03  0.7818608E-02  0.1135699E+00
         -2   -1    0    0    0  501 -0.00000000000E+00  0.00000000000E+00  0.94794383022E+02  0.94794383056E+02  0.25500000000E-02 0. -1.
          2   -1    0    0  501    0  0.00000000000E+00 -0.00000000000E+00 -0.12485387293E+03  0.12485387296E+03  0.25500000000E-02 0.  1.
    5000001    1    1    2    0    0 -0.56065281357E+02  0.44020207120E+02  0.13972052264E+02  0.10585514939E+03  0.77000000000E+02 0.  0.
   -5000001    1    1    2    0    0  0.56065281357E+02 -0.44020207120E+02 -0.44031542176E+02  0.11379310662E+03  0.77000000000E+02 0.  0.
<mgrwt>
<rscale>  0 0.21758167E+03</rscale>
<asrwt>0</asrwt>
<pdfrwt beam="1">  1        2 0.17836267E-01 0.21758167E+03</pdfrwt>
<pdfrwt beam="2">  1       -2 0.13542055E-01 0.21758167E+03</pdfrwt>
<totfact> 0.12515957E+04</totfact>
</mgrwt>
</event>
<event>
 4    1  0.6853809E-004  0.2306709E+03  0.7818608E-02  0.1126168E+00
          2   -1    0    0  501    0  0.00000000000E+00  0.00000000000E+00  0.23486159912E+04  0.23486159912E+04  0.25500000000E-02 0.  1.
         -2   -1    0    0    0  501 -0.00000000000E+00 -0.00000000000E+00 -0.56638748937E+01  0.56638754678E+01  0.25500000000E-02 0. -1.
    5000001    1    1    2    0    0  0.42899255825E+01 -0.83722317639E+02  0.98178352470E+03  0.98836011621E+03  0.77000000000E+02 0.  0.
   -5000001    1    1    2    0    0 -0.42899255825E+01  0.83722317639E+02  0.13611685916E+04  0.13659197504E+04  0.77000000000E+02 0.  0.
<mgrwt>
<rscale>  0 0.23067092E+03</rscale>
<asrwt>0</asrwt>
<pdfrwt beam="1">  1        2 0.33551603E+00 0.23067092E+03</pdfrwt>
<pdfrwt beam="2">  1       -2 0.80912634E-03 0.23067092E+03</pdfrwt>
<totfact> 0.17201720E+04</totfact>
</mgrwt>
</event>
<event>
 4    1  0.6853809E-004  0.2461679E+03  0.7818608E-02  0.1115751E+00
          2   -1    0    0  501    0  0.00000000000E+00  0.00000000000E+00  0.50896238521E+03  0.50896238522E+03  0.25500000000E-02 0.  1.
         -2   -1    0    0    0  501 -0.00000000000E+00 -0.00000000000E+00 -0.29765773032E+02  0.29765773141E+02  0.25500000000E-02 0. -1.
    5000001    1    1    2    0    0  0.85170384141E+02 -0.25976794648E+02  0.16093942333E+03  0.19939730735E+03  0.77000000000E+02 0.  0.
   -5000001    1    1    2    0    0 -0.85170384141E+02  0.25976794648E+02  0.31825718885E+03  0.33933085101E+03  0.77000000000E+02 0.  0.
<mgrwt>
<rscale>  0 0.24616790E+03</rscale>
<asrwt>0</asrwt>
<pdfrwt beam="1">  1        2 0.72708905E-01 0.24616790E+03</pdfrwt>
<pdfrwt beam="2">  1       -2 0.42522537E-02 0.24616790E+03</pdfrwt>
<totfact> 0.16392406E+04</totfact>
</mgrwt>
</event>
<event>
 4    1  0.6853809E-004  0.4317234E+03  0.7818608E-02  0.1033317E+00
          2   -1    0    0  501    0  0.00000000000E+00  0.00000000000E+00  0.46376409852E+03  0.46376409852E+03  0.25500000000E-02 0.  1.
         -2   -1    0    0    0  501 -0.00000000000E+00 -0.00000000000E+00 -0.10047408143E+03  0.10047408146E+03  0.25500000000E-02 0. -1.
    5000001    1    1    2    0    0  0.20161296706E+03  0.41573417038E+01  0.17970657264E+03  0.28087100994E+03  0.77000000000E+02 0.  0.
   -5000001    1    1    2    0    0 -0.20161296706E+03 -0.41573417038E+01  0.18358344445E+03  0.28336717004E+03  0.77000000000E+02 0.  0.
<mgrwt>
<rscale>  0 0.43172339E+03</rscale>
<asrwt>0</asrwt>
<pdfrwt beam="1">  1        2 0.66252017E-01 0.43172339E+03</pdfrwt>
<pdfrwt beam="2">  1       -2 0.14353440E-01 0.43172339E+03</pdfrwt>
<totfact> 0.27311029E+03</totfact>
</mgrwt>
</event>
<event>
 4    1  0.6853809E-004  0.1785641E+03  0.7818608E-02  0.1169200E+00
          2   -1    0    0  501    0  0.00000000000E+00  0.00000000000E+00  0.19246206101E+04  0.19246206101E+04  0.25500000000E-02 0.  1.
         -2   -1    0    0    0  501 -0.00000000000E+00 -0.00000000000E+00 -0.41417437931E+01  0.41417445781E+01  0.25500000000E-02 0. -1.
    5000001    1    1    2    0    0 -0.30391079148E+02  0.20496796053E+02  0.12457243948E+04  0.12486400619E+04  0.77000000000E+02 0.  0.
   -5000001    1    1    2    0    0  0.30391079148E+02 -0.20496796053E+02  0.67475447149E+03  0.68012229278E+03  0.77000000000E+02 0.  0.
<mgrwt>
<rscale>  0 0.17856412E+03</rscale>
<asrwt>0</asrwt>
<pdfrwt beam="1">  1        2 0.27494505E+00 0.17856412E+03</pdfrwt>
<pdfrwt beam="2">  1       -2 0.59167936E-03 0.17856412E+03</pdfrwt>
<totfact> 0.42728039E+04</totfact>
</mgrwt>
</event>
<event>
 4    1  0.6853809E-004  0.2055854E+03  0.7818608E-02  0.1145110E+00
          2   -1    0    0  501    0  0.00000000000E+00  0.00000000000E+00  0.22055479426E+03  0.22055479428E+03  0.25500000000E-02 0.  1.
         -2   -1    0    0    0  501 -0.00000000000E+00 -0.00000000000E+00 -0.47907994668E+02  0.47907994736E+02  0.25500000000E-02 0. -1.
    5000001    1    1    2    0    0 -0.44198525981E+02  0.51008442398E+02  0.74500842230E+02  0.12662837908E+03  0.77000000000E+02 0.  0.
   -5000001    1    1    2    0    0  0.44198525981E+02 -0.51008442398E+02  0.98145957365E+02  0.14183440994E+03  0.77000000000E+02 0.  0.
<mgrwt>
<rscale>  0 0.20558539E+03</rscale>
<asrwt>0</asrwt>
<pdfrwt beam="1">  1        2 0.31507827E-01 0.20558539E+03</pdfrwt>
<pdfrwt beam="2">  1       -2 0.68439993E-02 0.20558539E+03</pdfrwt>
<totfact> 0.19379262E+04</totfact>
</mgrwt>
</event>
<event>
 4    1  0.6853809E-004  0.5506592E+03  0.7818608E-02  0.1001341E+00
          2   -1    0    0  501    0  0.00000000000E+00  0.00000000000E+00  0.13307319355E+04  0.13307319355E+04  0.25500000000E-02 0.  1.
         -2   -1    0    0    0  501 -0.00000000000E+00 -0.00000000000E+00 -0.56965940062E+02  0.56965940119E+02  0.25500000000E-02 0. -1.
    5000001    1    1    2    0    0  0.16613198502E+03 -0.19225915030E+03  0.82058838648E+03  0.86247186467E+03  0.77000000000E+02 0.  0.
   -5000001    1    1    2    0    0 -0.16613198502E+03  0.19225915030E+03  0.45317760896E+03  0.52522601095E+03  0.77000000000E+02 0.  0.
<mgrwt>
<rscale>  0 0.55065923E+03</rscale>
<asrwt>0</asrwt>
<pdfrwt beam="1">  1        2 0.19010457E+00 0.55065923E+03</pdfrwt>
<pdfrwt beam="2">  1       -2 0.81379909E-02 0.55065923E+03</pdfrwt>
<totfact> 0.17465289E+03</totfact>
</mgrwt>
</event>
<event>
 4    1  0.6853809E-004  0.2202121E+03  0.7818608E-02  0.1133725E+00
         -2   -1    0    0    0  501 -0.00000000000E+00  0.00000000000E+00  0.13545222653E+02  0.13545222893E+02  0.25500000000E-02 0. -1.
          2   -1    0    0  501    0  0.00000000000E+00 -0.00000000000E+00 -0.89502725893E+03  0.89502725893E+03  0.25500000000E-02 0.  1.
    5000001    1    1    2    0    0  0.57930411331E+02  0.42529266081E+02 -0.57313491052E+03  0.58273261165E+03  0.77000000000E+02 0.  0.
   -5000001    1    1    2    0    0 -0.57930411331E+02 -0.42529266081E+02 -0.30834712576E+03  0.32583987017E+03  0.77000000000E+02 0.  0.
<mgrwt>
<rscale>  0 0.22021211E+03</rscale>
<asrwt>0</asrwt>
<pdfrwt beam="1">  1        2 0.12786100E+00 0.22021211E+03</pdfrwt>
<pdfrwt beam="2">  1       -2 0.19350324E-02 0.22021211E+03</pdfrwt>
<totfact> 0.26910351E+04</totfact>
</mgrwt>
</event>
<event>
 4    1  0.6853809E-004  0.3471558E+03  0.7818608E-02  0.1063788E+00
         -2   -1    0    0    0  501 -0.00000000000E+00  0.00000000000E+00  0.18388452099E+03  0.18388452101E+03  0.25500000000E-02 0. -1.
          2   -1    0    0  501    0  0.00000000000E+00 -0.00000000000E+00 -0.16384898000E+03  0.16384898002E+03  0.25500000000E-02 0.  1.
    5000001    1    1    2    0    0 -0.11002863585E+03 -0.27762544873E+02  0.11660551572E+03  0.18000807177E+03  0.77000000000E+02 0.  0.
   -5000001    1    1    2    0    0  0.11002863585E+03  0.27762544873E+02 -0.96569974729E+02  0.16772542927E+03  0.77000000000E+02 0.  0.
<mgrwt>
<rscale>  0 0.34715582E+03</rscale>
<asrwt>0</asrwt>
<pdfrwt beam="1">  1        2 0.23406997E-01 0.34715582E+03</pdfrwt>
<pdfrwt beam="2">  1       -2 0.26269217E-01 0.34715582E+03</pdfrwt>
<totfact> 0.30283490E+03</totfact>
</mgrwt>
</event>
<event>
 4    1  0.6853809E-004  0.1682685E+03  0.7818608E-02  0.1179666E+00
         -2   -1    0    0    0  501 -0.00000000000E+00  0.00000000000E+00  0.70953922037E+01  0.70953926620E+01  0.25500000000E-02 0. -1.
          2   -1    0    0  501    0  0.00000000000E+00 -0.00000000000E+00 -0.99762965922E+03  0.99762965922E+03  0.25500000000E-02 0.  1.
    5000001    1    1    2    0    0 -0.14601166503E+01  0.32088671248E+02 -0.43047209889E+03  0.43848265950E+03  0.77000000000E+02 0.  0.
   -5000001    1    1    2    0    0  0.14601166503E+01 -0.32088671248E+02 -0.56006216813E+03  0.56624239238E+03  0.77000000000E+02 0.  0.
<mgrwt>
<rscale>  0 0.16826852E+03</rscale>
<asrwt>0</asrwt>
<pdfrwt beam="1">  1        2 0.14251843E+00 0.16826852E+03</pdfrwt>
<pdfrwt beam="2">  1       -2 0.10136281E-02 0.16826852E+03</pdfrwt>
<totfact> 0.58376569E+04</totfact>
</mgrwt>
</event>
<event>
 4    1  0.6853809E-004  0.2440962E+03  0.7818608E-02  0.1117094E+00
          2   -1    0    0  501    0  0.00000000000E+00  0.00000000000E+00  0.36197157864E+04  0.36197157864E+04  0.25500000000E-02 0.  1.
         -2   -1    0    0    0  501 -0.00000000000E+00 -0.00000000000E+00 -0.41151666172E+01  0.41151674072E+01  0.25500000000E-02 0. -1.
    5000001    1    1    2    0    0 -0.16484067711E+02  0.70408692165E+02  0.27154221143E+04  0.27174759185E+04  0.77000000000E+02 0.  0.
   -5000001    1    1    2    0    0  0.16484067711E+02 -0.70408692165E+02  0.90017850546E+03  0.90635503535E+03  0.77000000000E+02 0.  0.
<mgrwt>
<rscale>  0 0.24409617E+03</rscale>
<asrwt>0</asrwt>
<pdfrwt beam="1">  1        2 0.51710585E+00 0.24409617E+03</pdfrwt>
<pdfrwt beam="2">  1       -2 0.58787691E-03 0.24409617E+03</pdfrwt>
<totfact> 0.57578203E+03</totfact>
</mgrwt>
</event>
<event>
 4    1  0.6853809E-004  0.5105940E+03  0.7818608E-02  0.1011050E+00
         -2   -1    0    0    0  501 -0.00000000000E+00  0.00000000000E+00  0.48196884317E+02  0.48196884384E+02  0.25500000000E-02 0. -1.
          2   -1    0    0  501    0  0.00000000000E+00 -0.00000000000E+00 -0.13522981128E+04  0.13522981128E+04  0.25500000000E-02 0.  1.
    5000001    1    1    2    0    0  0.13736705671E+02  0.22875545403E+03 -0.42703794503E+03  0.49072208156E+03  0.77000000000E+02 0.  0.
   -5000001    1    1    2    0    0 -0.13736705671E+02 -0.22875545403E+03 -0.87706328348E+03  0.90977291566E+03  0.77000000000E+02 0.  0.
<mgrwt>
<rscale>  0 0.51059399E+03</rscale>
<asrwt>0</asrwt>
<pdfrwt beam="1">  1        2 0.19318542E+00 0.51059399E+03</pdfrwt>
<pdfrwt beam="2">  1       -2 0.68852700E-02 0.51059399E+03</pdfrwt>
<totfact> 0.22175062E+03</totfact>
</mgrwt>
</event>
<event>
 4    1  0.6853809E-004  0.2192346E+03  0.7818608E-02  0.1134455E+00
         -2   -1    0    0    0  501 -0.00000000000E+00  0.00000000000E+00  0.83217319538E+02  0.83217319577E+02  0.25500000000E-02 0. -1.
          2   -1    0    0  501    0  0.00000000000E+00 -0.00000000000E+00 -0.14439250093E+03  0.14439250095E+03  0.25500000000E-02 0.  1.
    5000001    1    1    2    0    0 -0.66836984332E+02 -0.37090689618E+02 -0.46806655945E+02  0.11816414334E+03  0.77000000000E+02 0.  0.
   -5000001    1    1    2    0    0  0.66836984332E+02  0.37090689618E+02 -0.14368525444E+02  0.10944567718E+03  0.77000000000E+02 0.  0.
<mgrwt>
<rscale>  0 0.21923464E+03</rscale>
<asrwt>0</asrwt>
<pdfrwt beam="1">  1        2 0.20627500E-01 0.21923464E+03</pdfrwt>
<pdfrwt beam="2">  1       -2 0.11888189E-01 0.21923464E+03</pdfrwt>
<totfact> 0.13086290E+04</totfact>
</mgrwt>
</event>
<event>
 4    1  0.6853809E-004  0.1818020E+03  0.7818608E-02  0.1166070E+00
         -2   -1    0    0    0  501 -0.00000000000E+00  0.00000000000E+00  0.34297778468E+03  0.34297778469E+03  0.25500000000E-02 0. -1.
          2   -1    0    0  501    0  0.00000000000E+00 -0.00000000000E+00 -0.24091913973E+02  0.24091914108E+02  0.25500000000E-02 0.  1.
    5000001    1    1    2    0    0 -0.27903692734E+02  0.93207281589E+01  0.82070412312E+02  0.11631871998E+03  0.77000000000E+02 0.  0.
   -5000001    1    1    2    0    0  0.27903692734E+02 -0.93207281589E+01  0.23681545840E+03  0.25075097882E+03  0.77000000000E+02 0.  0.
<mgrwt>
<rscale>  0 0.18180199E+03</rscale>
<asrwt>0</asrwt>
<pdfrwt beam="1">  1        2 0.34417022E-02 0.18180199E+03</pdfrwt>
<pdfrwt beam="2">  1       -2 0.48996824E-01 0.18180199E+03</pdfrwt>
<totfact> 0.10003878E+04</totfact>
</mgrwt>
</event>
<event>
 4    1  0.6853809E-004  0.2051413E+03  0.7818608E-02  0.1145472E+00
          2   -1    0    0  501    0  0.00000000000E+00  0.00000000000E+00  0.38556526179E+03  0.38556526180E+03  0.25500000000E-02 0.  1.
         -2   -1    0    0    0  501 -0.00000000000E+00 -0.00000000000E+00 -0.27286541518E+02  0.27286541637E+02  0.25500000000E-02 0. -1.
    5000001    1    1    2    0    0  0.53403397915E+02 -0.40415537226E+02  0.19989900669E+03  0.22444142094E+03  0.77000000000E+02 0.  0.
   -5000001    1    1    2    0    0 -0.53403397915E+02  0.40415537226E+02  0.15837971358E+03  0.18841038250E+03  0.77000000000E+02 0.  0.
<mgrwt>
<rscale>  0 0.20514134E+03</rscale>
<asrwt>0</asrwt>
<pdfrwt beam="1">  1        2 0.55080754E-01 0.20514134E+03</pdfrwt>
<pdfrwt beam="2">  1       -2 0.38980772E-02 0.20514134E+03</pdfrwt>
<totfact> 0.24954989E+04</totfact>
</mgrwt>
</event>
<event>
 4    1  0.6853809E-004  0.2550336E+03  0.7818608E-02  0.1110164E+00
          2   -1    0    0  501    0  0.00000000000E+00  0.00000000000E+00  0.77367575444E+03  0.77367575444E+03  0.25500000000E-02 0.  1.
         -2   -1    0    0    0  501 -0.00000000000E+00 -0.00000000000E+00 -0.21017243320E+02  0.21017243475E+02  0.25500000000E-02 0. -1.
    5000001    1    1    2    0    0 -0.42822982484E+02  0.85179139639E+02  0.26650344352E+03  0.29332981278E+03  0.77000000000E+02 0.  0.
   -5000001    1    1    2    0    0  0.42822982484E+02 -0.85179139639E+02  0.48615506760E+03  0.50136318514E+03  0.77000000000E+02 0.  0.
<mgrwt>
<rscale>  0 0.25503358E+03</rscale>
<asrwt>0</asrwt>
<pdfrwt beam="1">  1        2 0.11052514E+00 0.25503358E+03</pdfrwt>
<pdfrwt beam="2">  1       -2 0.30024625E-02 0.25503358E+03</pdfrwt>
<totfact> 0.17036259E+04</totfact>
</mgrwt>
</event>
<event>
 4    1  0.6853809E-004  0.2068182E+03  0.7818608E-02  0.1144111E+00
          2   -1    0    0  501    0  0.00000000000E+00  0.00000000000E+00  0.40010677309E+03  0.40010677310E+03  0.25500000000E-02 0.  1.
         -2   -1    0    0    0  501 -0.00000000000E+00 -0.00000000000E+00 -0.26726462178E+02  0.26726462300E+02  0.25500000000E-02 0. -1.
    5000001    1    1    2    0    0 -0.52170230097E+02 -0.44851306430E+02  0.19819317867E+03  0.22347910119E+03  0.77000000000E+02 0.  0.
   -5000001    1    1    2    0    0  0.52170230097E+02  0.44851306430E+02  0.17518713225E+03  0.20335413421E+03  0.77000000000E+02 0.  0.
<mgrwt>
<rscale>  0 0.20681817E+03</rscale>
<asrwt>0</asrwt>
<pdfrwt beam="1">  1        2 0.57158104E-01 0.20681817E+03</pdfrwt>
<pdfrwt beam="2">  1       -2 0.38180664E-02 0.20681817E+03</pdfrwt>
<totfact> 0.24751310E+04</totfact>
</mgrwt>
</event>
<event>
 4    1  0.6853809E-004  0.3121968E+03  0.7818608E-02  0.1079298E+00
         -2   -1    0    0    0  501 -0.00000000000E+00  0.00000000000E+00  0.69701721038E+02  0.69701721085E+02  0.25500000000E-02 0. -1.
          2   -1    0    0  501    0  0.00000000000E+00 -0.00000000000E+00 -0.34958549581E+03  0.34958549582E+03  0.25500000000E-02 0.  1.
    5000001    1    1    2    0    0 -0.68885444091E+01  0.13534551497E+03 -0.15132595130E+03  0.21724273061E+03  0.77000000000E+02 0.  0.
   -5000001    1    1    2    0    0  0.68885444091E+01 -0.13534551497E+03 -0.12855782347E+03  0.20204448629E+03  0.77000000000E+02 0.  0.
<mgrwt>
<rscale>  0 0.31219680E+03</rscale>
<asrwt>0</asrwt>
<pdfrwt beam="1">  1        2 0.49940784E-01 0.31219680E+03</pdfrwt>
<pdfrwt beam="2">  1       -2 0.99573889E-02 0.31219680E+03</pdfrwt>
<totfact> 0.66977037E+03</totfact>
</mgrwt>
</event>
<event>
 4    1  0.6853809E-004  0.4432484E+03  0.7818608E-02  0.1029755E+00
          2   -1    0    0  501    0  0.00000000000E+00  0.00000000000E+00  0.81073390163E+02  0.81073390203E+02  0.25500000000E-02 0.  1.
         -2   -1    0    0    0  501 -0.00000000000E+00 -0.00000000000E+00 -0.60583719888E+03  0.60583719888E+03  0.25500000000E-02 0. -1.
    5000001    1    1    2    0    0 -0.93824311943E+02 -0.14905260281E+03 -0.43333356018E+03  0.47405342979E+03  0.77000000000E+02 0.  0.
   -5000001    1    1    2    0    0  0.93824311943E+02  0.14905260281E+03 -0.91430248532E+02  0.21285715929E+03  0.77000000000E+02 0.  0.
<mgrwt>
<rscale>  0 0.44324835E+03</rscale>
<asrwt>0</asrwt>
<pdfrwt beam="1">  1        2 0.11581913E-01 0.44324835E+03</pdfrwt>
<pdfrwt beam="2">  1       -2 0.86548169E-01 0.44324835E+03</pdfrwt>
<totfact> 0.64217518E+02</totfact>
</mgrwt>
</event>
<event>
 4    1  0.6853809E-004  0.3224949E+03  0.7818608E-02  0.1074507E+00
         -2   -1    0    0    0  501 -0.00000000000E+00  0.00000000000E+00  0.40752854551E+03  0.40752854552E+03  0.25500000000E-02 0. -1.
          2   -1    0    0  501    0  0.00000000000E+00 -0.00000000000E+00 -0.63801014440E+02  0.63801014491E+02  0.25500000000E-02 0.  1.
    5000001    1    1    2    0    0 -0.66908489822E+02 -0.11923853120E+03  0.22610059297E+03  0.27521818885E+03  0.77000000000E+02 0.  0.
   -5000001    1    1    2    0    0  0.66908489822E+02  0.11923853120E+03  0.11762693810E+03  0.19611137116E+03  0.77000000000E+02 0.  0.
<mgrwt>
<rscale>  0 0.32249487E+03</rscale>
<asrwt>0</asrwt>
<pdfrwt beam="1">  1        2 0.91144307E-02 0.32249487E+03</pdfrwt>
<pdfrwt beam="2">  1       -2 0.58218363E-01 0.32249487E+03</pdfrwt>
<totfact> 0.20346903E+03</totfact>
</mgrwt>
</event>
<event>
 4    1  0.6853809E-004  0.2331359E+03  0.7818608E-02  0.1124452E+00
          2   -1    0    0  501    0  0.00000000000E+00  0.00000000000E+00  0.15134316988E+04  0.15134316988E+04  0.25500000000E-02 0.  1.
         -2   -1    0    0    0  501 -0.00000000000E+00 -0.00000000000E+00 -0.89783316396E+01  0.89783320018E+01  0.25500000000E-02 0. -1.
    5000001    1    1    2    0    0 -0.26289601235E+02 -0.76794581371E+02  0.96588710430E+03  0.97234533429E+03  0.77000000000E+02 0.  0.
   -5000001    1    1    2    0    0  0.26289601235E+02  0.76794581371E+02  0.53856626289E+03  0.55006469654E+03  0.77000000000E+02 0.  0.
<mgrwt>
<rscale>  0 0.23313594E+03</rscale>
<asrwt>0</asrwt>
<pdfrwt beam="1">  1        2 0.21620460E+00 0.23313594E+03</pdfrwt>
<pdfrwt beam="2">  1       -2 0.12826184E-02 0.23313594E+03</pdfrwt>
<totfact> 0.22592342E+04</totfact>
</mgrwt>
</event>
<event>
 4    1  0.6853809E-004  0.2191125E+03  0.7818608E-02  0.1134546E+00
         -2   -1    0    0    0  501 -0.00000000000E+00  0.00000000000E+00  0.11612561791E+02  0.11612562071E+02  0.25500000000E-02 0. -1.
          2   -1    0    0  501    0  0.00000000000E+00 -0.00000000000E+00 -0.10335856149E+04  0.10335856149E+04  0.25500000000E-02 0.  1.
    5000001    1    1    2    0    0  0.57263431082E+02 -0.47526944851E+02 -0.40058415187E+03  0.41464994122E+03  0.77000000000E+02 0.  0.
   -5000001    1    1    2    0    0 -0.57263431082E+02  0.47526944851E+02 -0.62138890121E+03  0.63054823572E+03  0.77000000000E+02 0.  0.
<mgrwt>
<rscale>  0 0.21911255E+03</rscale>
<asrwt>0</asrwt>
<pdfrwt beam="1">  1        2 0.14765503E+00 0.21911255E+03</pdfrwt>
<pdfrwt beam="2">  1       -2 0.16589381E-02 0.21911255E+03</pdfrwt>
<totfact> 0.27834513E+04</totfact>
</mgrwt>
</event>
<event>
 4    1  0.6853809E-004  0.2055514E+03  0.7818608E-02  0.1145138E+00
         -2   -1    0    0    0  501 -0.00000000000E+00  0.00000000000E+00  0.58055126061E+02  0.58055126117E+02  0.25500000000E-02 0. -1.
          2   -1    0    0  501    0  0.00000000000E+00 -0.00000000000E+00 -0.18194503470E+03  0.18194503472E+03  0.25500000000E-02 0.  1.
    5000001    1    1    2    0    0 -0.31119025201E+02  0.72714846342E+01 -0.13212271491E+03  0.15622637426E+03  0.77000000000E+02 0.  0.
   -5000001    1    1    2    0    0  0.31119025201E+02 -0.72714846342E+01  0.82328062733E+01  0.83773786577E+02  0.77000000000E+02 0.  0.
<mgrwt>
<rscale>  0 0.20555137E+03</rscale>
<asrwt>0</asrwt>
<pdfrwt beam="1">  1        2 0.25992147E-01 0.20555137E+03</pdfrwt>
<pdfrwt beam="2">  1       -2 0.82935896E-02 0.20555137E+03</pdfrwt>
<totfact> 0.17773254E+04</totfact>
</mgrwt>
</event>
<event>
 4    1  0.6853809E-004  0.1734953E+03  0.7818608E-02  0.1174251E+00
         -2   -1    0    0    0  501 -0.00000000000E+00  0.00000000000E+00  0.96461691517E+03  0.96461691517E+03  0.25500000000E-02 0. -1.
          2   -1    0    0  501    0  0.00000000000E+00 -0.00000000000E+00 -0.78011825888E+01  0.78011830055E+01  0.25500000000E-02 0.  1.
    5000001    1    1    2    0    0 -0.22278143048E+02  0.28388465784E+02  0.57450025425E+03  0.58075964287E+03  0.77000000000E+02 0.  0.
   -5000001    1    1    2    0    0  0.22278143048E+02 -0.28388465784E+02  0.38231547833E+03  0.39165845531E+03  0.77000000000E+02 0.  0.
<mgrwt>
<rscale>  0 0.17349528E+03</rscale>
<asrwt>0</asrwt>
<pdfrwt beam="1">  1        2 0.11144540E-02 0.17349528E+03</pdfrwt>
<pdfrwt beam="2">  1       -2 0.13780251E+00 0.17349528E+03</pdfrwt>
<totfact> 0.47189697E+03</totfact>
</mgrwt>
</event>
<event>
 4    1  0.6853809E-004  0.3467842E+03  0.7818608E-02  0.1063943E+00
          2   -1    0    0  501    0  0.00000000000E+00  0.00000000000E+00  0.58346066145E+03  0.58346066145E+03  0.25500000000E-02 0.  1.
         -2   -1    0    0    0  501 -0.00000000000E+00 -0.00000000000E+00 -0.51528430043E+02  0.51528430106E+02  0.25500000000E-02 0. -1.
    5000001    1    1    2    0    0 -0.13987463507E+03  0.11160540323E+02  0.38806407131E+03  0.41977636265E+03  0.77000000000E+02 0.  0.
   -5000001    1    1    2    0    0  0.13987463507E+03 -0.11160540323E+02  0.14386816009E+03  0.21521272891E+03  0.77000000000E+02 0.  0.
<mgrwt>
<rscale>  0 0.34678415E+03</rscale>
<asrwt>0</asrwt>
<pdfrwt beam="1">  1        2 0.83351521E-01 0.34678415E+03</pdfrwt>
<pdfrwt beam="2">  1       -2 0.73612044E-02 0.34678415E+03</pdfrwt>
<totfact> 0.61462624E+03</totfact>
</mgrwt>
</event>
<event>
 4    1  0.6853809E-004  0.2229050E+03  0.7818608E-02  0.1131736E+00
          2   -1    0    0  501    0  0.00000000000E+00  0.00000000000E+00  0.86563166845E+02  0.86563166883E+02  0.25500000000E-02 0.  1.
         -2   -1    0    0    0  501 -0.00000000000E+00 -0.00000000000E+00 -0.14349826030E+03  0.14349826032E+03  0.25500000000E-02 0. -1.
    5000001    1    1    2    0    0 -0.41992376129E+02 -0.54430213042E+01 -0.99222682126E+02  0.13254103811E+03  0.77000000000E+02 0.  0.
   -5000001    1    1    2    0    0  0.41992376129E+02  0.54430213042E+01  0.42287588673E+02  0.97520389097E+02  0.77000000000E+02 0.  0.
<mgrwt>
<rscale>  0 0.22290504E+03</rscale>
<asrwt>0</asrwt>
<pdfrwt beam="1">  1        2 0.12366167E-01 0.22290504E+03</pdfrwt>
<pdfrwt beam="2">  1       -2 0.20499751E-01 0.22290504E+03</pdfrwt>
<totfact> 0.96827731E+03</totfact>
</mgrwt>
</event>
<event>
 4    1  0.6853809E-004  0.2246139E+03  0.7818608E-02  0.1130489E+00
          2   -1    0    0  501    0  0.00000000000E+00  0.00000000000E+00  0.10898840775E+04  0.10898840775E+04  0.25500000000E-02 0.  1.
         -2   -1    0    0    0  501 -0.00000000000E+00 -0.00000000000E+00 -0.11572649433E+02  0.11572649714E+02  0.25500000000E-02 0. -1.
    5000001    1    1    2    0    0  0.80114545665E+02  0.15970061938E+02  0.55501790666E+03  0.56625723838E+03  0.77000000000E+02 0.  0.
   -5000001    1    1    2    0    0 -0.80114545665E+02 -0.15970061938E+02  0.52329352145E+03  0.53519948888E+03  0.77000000000E+02 0.  0.
<mgrwt>
<rscale>  0 0.22461386E+03</rscale>
<asrwt>0</asrwt>
<pdfrwt beam="1">  1        2 0.15569760E+00 0.22461386E+03</pdfrwt>
<pdfrwt beam="2">  1       -2 0.16532369E-02 0.22461386E+03</pdfrwt>
<totfact> 0.26024881E+04</totfact>
</mgrwt>
</event>
<event>
 4    1  0.6853809E-004  0.3123323E+03  0.7818608E-02  0.1079233E+00
         -2   -1    0    0    0  501 -0.00000000000E+00  0.00000000000E+00  0.45342947843E+02  0.45342947915E+02  0.25500000000E-02 0. -1.
          2   -1    0    0  501    0  0.00000000000E+00 -0.00000000000E+00 -0.53785345125E+03  0.53785345126E+03  0.25500000000E-02 0.  1.
    5000001    1    1    2    0    0 -0.52394034207E+02 -0.12500394094E+03 -0.26374562668E+03  0.30636885557E+03  0.77000000000E+02 0.  0.
   -5000001    1    1    2    0    0  0.52394034207E+02  0.12500394094E+03 -0.22876487673E+03  0.27682754360E+03  0.77000000000E+02 0.  0.
<mgrwt>
<rscale>  0 0.31233227E+03</rscale>
<asrwt>0</asrwt>
<pdfrwt beam="1">  1        2 0.76836203E-01 0.31233227E+03</pdfrwt>
<pdfrwt beam="2">  1       -2 0.64775643E-02 0.31233227E+03</pdfrwt>
<totfact> 0.81979550E+03</totfact>
</mgrwt>
</event>
<event>
 4    1  0.6853809E-004  0.2799161E+03  0.7818608E-02  0.1095735E+00
         -2   -1    0    0    0  501 -0.00000000000E+00  0.00000000000E+00  0.23836343090E+02  0.23836343226E+02  0.25500000000E-02 0. -1.
          2   -1    0    0  501    0  0.00000000000E+00 -0.00000000000E+00 -0.82178121587E+03  0.82178121588E+03  0.25500000000E-02 0.  1.
    5000001    1    1    2    0    0  0.20052977175E+02 -0.11046390502E+03 -0.49708939513E+03  0.51539427913E+03  0.77000000000E+02 0.  0.
   -5000001    1    1    2    0    0 -0.20052977175E+02  0.11046390502E+03 -0.30085547765E+03  0.33022327997E+03  0.77000000000E+02 0.  0.
<mgrwt>
<rscale>  0 0.27991612E+03</rscale>
<asrwt>0</asrwt>
<pdfrwt beam="1">  1        2 0.11739730E+00 0.27991612E+03</pdfrwt>
<pdfrwt beam="2">  1       -2 0.34051924E-02 0.27991612E+03</pdfrwt>
<totfact> 0.13160989E+04</totfact>
</mgrwt>
</event>
<event>
 4    1  0.6853809E-004  0.2190693E+03  0.7818608E-02  0.1134579E+00
         -2   -1    0    0    0  501 -0.00000000000E+00  0.00000000000E+00  0.34865456729E+02  0.34865456822E+02  0.25500000000E-02 0. -1.
          2   -1    0    0  501    0  0.00000000000E+00 -0.00000000000E+00 -0.34411824056E+03  0.34411824056E+03  0.25500000000E-02 0.  1.
    5000001    1    1    2    0    0  0.63056623174E+02 -0.28563125445E+02 -0.21644353213E+03  0.23993497549E+03  0.77000000000E+02 0.  0.
   -5000001    1    1    2    0    0 -0.63056623174E+02  0.28563125445E+02 -0.92809251692E+02  0.13904872190E+03  0.77000000000E+02 0.  0.
<mgrwt>
<rscale>  0 0.21906930E+03</rscale>
<asrwt>0</asrwt>
<pdfrwt beam="1">  1        2 0.49159747E-01 0.21906930E+03</pdfrwt>
<pdfrwt beam="2">  1       -2 0.49807797E-02 0.21906930E+03</pdfrwt>
<totfact> 0.19590714E+04</totfact>
</mgrwt>
</event>
<event>
 4    1  0.6853809E-004  0.3500661E+03  0.7818608E-02  0.1062588E+00
          2   -1    0    0  501    0  0.00000000000E+00  0.00000000000E+00  0.35617420598E+03  0.35617420599E+03  0.25500000000E-02 0.  1.
         -2   -1    0    0    0  501 -0.00000000000E+00 -0.00000000000E+00 -0.86015666025E+02  0.86015666063E+02  0.25500000000E-02 0. -1.
    5000001    1    1    2    0    0  0.41077601889E+02 -0.13210393284E+03  0.40817112245E+02  0.16350490849E+03  0.77000000000E+02 0.  0.
   -5000001    1    1    2    0    0 -0.41077601889E+02  0.13210393284E+03  0.22934142771E+03  0.27868496355E+03  0.77000000000E+02 0.  0.
<mgrwt>
<rscale>  0 0.35006606E+03</rscale>
<asrwt>0</asrwt>
<pdfrwt beam="1">  1        2 0.50882030E-01 0.35006606E+03</pdfrwt>
<pdfrwt beam="2">  1       -2 0.12287952E-01 0.35006606E+03</pdfrwt>
<totfact> 0.46934935E+03</totfact>
</mgrwt>
</event>
<event>
 4    1  0.6853809E-004  0.6161329E+03  0.7818608E-02  0.9872489E-01
         -2   -1    0    0    0  501 -0.00000000000E+00  0.00000000000E+00  0.40155296080E+02  0.40155296161E+02  0.25500000000E-02 0. -1.
          2   -1    0    0  501    0  0.00000000000E+00 -0.00000000000E+00 -0.23634475464E+04  0.23634475464E+04  0.25500000000E-02 0.  1.
    5000001    1    1    2    0    0 -0.22835243816E+03  0.18321082688E+03 -0.93873959653E+03  0.98634277673E+03  0.77000000000E+02 0.  0.
   -5000001    1    1    2    0    0  0.22835243816E+03 -0.18321082688E+03 -0.13845526538E+04  0.14172600658E+04  0.77000000000E+02 0.  0.
<mgrwt>
<rscale>  0 0.61613290E+03</rscale>
<asrwt>0</asrwt>
<pdfrwt beam="1">  1        2 0.33763527E+00 0.61613290E+03</pdfrwt>
<pdfrwt beam="2">  1       -2 0.57364724E-02 0.61613290E+03</pdfrwt>
<totfact> 0.89931176E+02</totfact>
</mgrwt>
</event>
<event>
 4    1  0.6853809E-004  0.2728444E+03  0.7818608E-02  0.1099663E+00
         -2   -1    0    0    0  501 -0.00000000000E+00  0.00000000000E+00  0.29044146750E+02  0.29044146862E+02  0.25500000000E-02 0. -1.
          2   -1    0    0  501    0  0.00000000000E+00 -0.00000000000E+00 -0.64078388167E+03  0.64078388167E+03  0.25500000000E-02 0.  1.
    5000001    1    1    2    0    0 -0.85822652807E+02 -0.61167006056E+02 -0.40330173177E+03  0.42389646993E+03  0.77000000000E+02 0.  0.
   -5000001    1    1    2    0    0  0.85822652807E+02  0.61167006056E+02 -0.20843800314E+03  0.24593155861E+03  0.77000000000E+02 0.  0.
<mgrwt>
<rscale>  0 0.27284443E+03</rscale>
<asrwt>0</asrwt>
<pdfrwt beam="1">  1        2 0.91540546E-01 0.27284443E+03</pdfrwt>
<pdfrwt beam="2">  1       -2 0.41491642E-02 0.27284443E+03</pdfrwt>
<totfact> 0.13177838E+04</totfact>
</mgrwt>
</event>
<event>
 4    1  0.6853809E-004  0.2103530E+03  0.7818608E-02  0.1141287E+00
         -2   -1    0    0    0  501 -0.00000000000E+00  0.00000000000E+00  0.13764982032E+04  0.13764982032E+04  0.25500000000E-02 0. -1.
          2   -1    0    0  501    0  0.00000000000E+00 -0.00000000000E+00 -0.80364079558E+01  0.80364083603E+01  0.25500000000E-02 0.  1.
    5000001    1    1    2    0    0 -0.70322395653E+02 -0.47341719313E+01  0.76889278935E+03  0.77594637265E+03  0.77000000000E+02 0.  0.
   -5000001    1    1    2    0    0  0.70322395653E+02  0.47341719313E+01  0.59956900592E+03  0.60858823894E+03  0.77000000000E+02 0.  0.
<mgrwt>
<rscale>  0 0.21035305E+03</rscale>
<asrwt>0</asrwt>
<pdfrwt beam="1">  1        2 0.11480595E-02 0.21035305E+03</pdfrwt>
<pdfrwt beam="2">  1       -2 0.19664240E+00 0.21035305E+03</pdfrwt>
<totfact> 0.17780889E+03</totfact>
</mgrwt>
</event>
<event>
 4    1  0.6853809E-004  0.2861223E+03  0.7818608E-02  0.1092391E+00
         -2   -1    0    0    0  501 -0.00000000000E+00  0.00000000000E+00  0.42738585811E+02  0.42738585887E+02  0.25500000000E-02 0. -1.
          2   -1    0    0  501    0  0.00000000000E+00 -0.00000000000E+00 -0.47887610092E+03  0.47887610093E+03  0.25500000000E-02 0.  1.
    5000001    1    1    2    0    0 -0.12021577188E+03 -0.92532411754E+01 -0.21773721876E+03  0.26053013399E+03  0.77000000000E+02 0.  0.
   -5000001    1    1    2    0    0  0.12021577188E+03  0.92532411754E+01 -0.21840029635E+03  0.26108455283E+03  0.77000000000E+02 0.  0.
<mgrwt>
<rscale>  0 0.28612226E+03</rscale>
<asrwt>0</asrwt>
<pdfrwt beam="1">  1        2 0.68410868E-01 0.28612226E+03</pdfrwt>
<pdfrwt beam="2">  1       -2 0.61055126E-02 0.28612226E+03</pdfrwt>
<totfact> 0.10186842E+04</totfact>
</mgrwt>
</event>
<event>
 4    1  0.6853809E-004  0.1977926E+03  0.7818608E-02  0.1151615E+00
         -2   -1    0    0    0  501 -0.00000000000E+00  0.00000000000E+00  0.72629250832E+01  0.72629255308E+01  0.25500000000E-02 0. -1.
          2   -1    0    0  501    0  0.00000000000E+00 -0.00000000000E+00 -0.13466311977E+04  0.13466311977E+04  0.25500000000E-02 0.  1.
    5000001    1    1    2    0    0  0.49742123052E+02 -0.29427848082E+02 -0.82444887798E+03  0.83005134145E+03  0.77000000000E+02 0.  0.
   -5000001    1    1    2    0    0 -0.49742123052E+02  0.29427848082E+02 -0.51491939466E+03  0.52384278180E+03  0.77000000000E+02 0.  0.
<mgrwt>
<rscale>  0 0.19779264E+03</rscale>
<asrwt>0</asrwt>
<pdfrwt beam="1">  1        2 0.19237573E+00 0.19779264E+03</pdfrwt>
<pdfrwt beam="2">  1       -2 0.10375616E-02 0.19779264E+03</pdfrwt>
<totfact> 0.36967904E+04</totfact>
</mgrwt>
</event>
<event>
 4    1  0.6853809E-004  0.3263015E+03  0.7818608E-02  0.1072785E+00
          2   -1    0    0  501    0  0.00000000000E+00  0.00000000000E+00  0.94467899636E+03  0.94467899636E+03  0.25500000000E-02 0.  1.
         -2   -1    0    0    0  501 -0.00000000000E+00 -0.00000000000E+00 -0.28176945637E+02  0.28176945752E+02  0.25500000000E-02 0. -1.
    5000001    1    1    2    0    0 -0.13431612228E+03  0.48408249706E+02  0.40618291062E+03  0.43737596668E+03  0.77000000000E+02 0.  0.
   -5000001    1    1    2    0    0  0.13431612228E+03 -0.48408249706E+02  0.51031914010E+03  0.53547997544E+03  0.77000000000E+02 0.  0.
<mgrwt>
<rscale>  0 0.32630151E+03</rscale>
<asrwt>0</asrwt>
<pdfrwt beam="1">  1        2 0.13495412E+00 0.32630151E+03</pdfrwt>
<pdfrwt beam="2">  1       -2 0.40252787E-02 0.32630151E+03</pdfrwt>
<totfact> 0.85918575E+03</totfact>
</mgrwt>
</event>
<event>
 4    1  0.6853809E-004  0.3350418E+03  0.7818608E-02  0.1068928E+00
          2   -1    0    0  501    0  0.00000000000E+00  0.00000000000E+00  0.70358866529E+03  0.70358866530E+03  0.25500000000E-02 0.  1.
         -2   -1    0    0    0  501 -0.00000000000E+00 -0.00000000000E+00 -0.39885871742E+02  0.39885871823E+02  0.25500000000E-02 0. -1.
    5000001    1    1    2    0    0  0.80017590280E+02 -0.12155693252E+03  0.26326354661E+03  0.31050861111E+03  0.77000000000E+02 0.  0.
   -5000001    1    1    2    0    0 -0.80017590280E+02  0.12155693252E+03  0.40043924695E+03  0.43296592602E+03  0.77000000000E+02 0.  0.
<mgrwt>
<rscale>  0 0.33504177E+03</rscale>
<asrwt>0</asrwt>
<pdfrwt beam="1">  1        2 0.10051266E+00 0.33504177E+03</pdfrwt>
<pdfrwt beam="2">  1       -2 0.56979823E-02 0.33504177E+03</pdfrwt>
<totfact> 0.73367232E+03</totfact>
</mgrwt>
</event>
<event>
 4    1  0.6853809E-004  0.3216988E+03  0.7818608E-02  0.1074870E+00
         -2   -1    0    0    0  501 -0.00000000000E+00  0.00000000000E+00  0.24246462318E+02  0.24246462452E+02  0.25500000000E-02 0. -1.
          2   -1    0    0  501    0  0.00000000000E+00 -0.00000000000E+00 -0.10670640189E+04  0.10670640189E+04  0.25500000000E-02 0.  1.
    5000001    1    1    2    0    0  0.92067136003E+02  0.10557767448E+03 -0.46067508872E+03  0.48762028285E+03  0.77000000000E+02 0.  0.
   -5000001    1    1    2    0    0 -0.92067136003E+02 -0.10557767448E+03 -0.58214246789E+03  0.60369019853E+03  0.77000000000E+02 0.  0.
<mgrwt>
<rscale>  0 0.32169879E+03</rscale>
<asrwt>0</asrwt>
<pdfrwt beam="1">  1        2 0.15243769E+00 0.32169879E+03</pdfrwt>
<pdfrwt beam="2">  1       -2 0.34637810E-02 0.32169879E+03</pdfrwt>
<totfact> 0.91131837E+03</totfact>
</mgrwt>
</event>
<event>
 4    1  0.6853809E-004  0.1673504E+03  0.7818608E-02  0.1180639E+00
         -2   -1    0    0    0  501 -0.00000000000E+00  0.00000000000E+00  0.76148892983E+01  0.76148897253E+01  0.25500000000E-02 0. -1.
          2   -1    0    0  501    0  0.00000000000E+00 -0.00000000000E+00 -0.91945397632E+03  0.91945397633E+03  0.25500000000E-02 0.  1.
    5000001    1    1    2    0    0 -0.29514200469E+02 -0.53562215823E+01 -0.38310620370E+03  0.39191726225E+03  0.77000000000E+02 0.  0.
   -5000001    1    1    2    0    0  0.29514200469E+02  0.53562215823E+01 -0.52873288332E+03  0.53515160380E+03  0.77000000000E+02 0.  0.
<mgrwt>
<rscale>  0 0.16735042E+03</rscale>
<asrwt>0</asrwt>
<pdfrwt beam="1">  1        2 0.13135050E+00 0.16735042E+03</pdfrwt>
<pdfrwt beam="2">  1       -2 0.10878419E-02 0.16735042E+03</pdfrwt>
<totfact> 0.58658368E+04</totfact>
</mgrwt>
</event>
<event>
 4    1  0.6853809E-004  0.2996568E+03  0.7818608E-02  0.1085412E+00
         -2   -1    0    0    0  501 -0.00000000000E+00  0.00000000000E+00  0.12123134997E+03  0.12123135000E+03  0.25500000000E-02 0. -1.
          2   -1    0    0  501    0  0.00000000000E+00 -0.00000000000E+00 -0.18517117262E+03  0.18517117264E+03  0.25500000000E-02 0.  1.
    5000001    1    1    2    0    0 -0.98309521709E+02 -0.71851173153E+02  0.10092462904E+02  0.14442372018E+03  0.77000000000E+02 0.  0.
   -5000001    1    1    2    0    0  0.98309521709E+02  0.71851173153E+02 -0.74032285553E+02  0.16197880246E+03  0.77000000000E+02 0.  0.
<mgrwt>
<rscale>  0 0.29965681E+03</rscale>
<asrwt>0</asrwt>
<pdfrwt beam="1">  1        2 0.26453025E-01 0.29965681E+03</pdfrwt>
<pdfrwt beam="2">  1       -2 0.17318764E-01 0.29965681E+03</pdfrwt>
<totfact> 0.54102875E+03</totfact>
</mgrwt>
</event>
<event>
 4    1  0.6853809E-004  0.1994294E+03  0.7818608E-02  0.1150221E+00
         -2   -1    0    0    0  501 -0.00000000000E+00  0.00000000000E+00  0.18102823620E+02  0.18102823799E+02  0.25500000000E-02 0. -1.
          2   -1    0    0  501    0  0.00000000000E+00 -0.00000000000E+00 -0.54925257584E+03  0.54925257584E+03  0.25500000000E-02 0.  1.
    5000001    1    1    2    0    0  0.24776611536E+01 -0.29267149057E+02 -0.10587224124E+03  0.13416644992E+03  0.77000000000E+02 0.  0.
   -5000001    1    1    2    0    0 -0.24776611536E+01  0.29267149057E+02 -0.42527751098E+03  0.43318894972E+03  0.77000000000E+02 0.  0.
<mgrwt>
<rscale>  0 0.19942941E+03</rscale>
<asrwt>0</asrwt>
<pdfrwt beam="1">  1        2 0.78464644E-01 0.19942941E+03</pdfrwt>
<pdfrwt beam="2">  1       -2 0.25861180E-02 0.19942941E+03</pdfrwt>
<totfact> 0.31133956E+04</totfact>
</mgrwt>
</event>
<event>
 4    1  0.6853809E-004  0.2001197E+03  0.7818608E-02  0.1149638E+00
          2   -1    0    0  501    0  0.00000000000E+00  0.00000000000E+00  0.88073808174E+03  0.88073808174E+03  0.25500000000E-02 0.  1.
         -2   -1    0    0    0  501 -0.00000000000E+00 -0.00000000000E+00 -0.11367703570E+02  0.11367703856E+02  0.25500000000E-02 0. -1.
    5000001    1    1    2    0    0 -0.36393228441E+02  0.52010629884E+02  0.40211018397E+03  0.41430806503E+03  0.77000000000E+02 0.  0.
   -5000001    1    1    2    0    0  0.36393228441E+02 -0.52010629884E+02  0.46726019421E+03  0.47779772057E+03  0.77000000000E+02 0.  0.
<mgrwt>
<rscale>  0 0.20011966E+03</rscale>
<asrwt>0</asrwt>
<pdfrwt beam="1">  1        2 0.12581971E+00 0.20011966E+03</pdfrwt>
<pdfrwt beam="2">  1       -2 0.16239579E-02 0.20011966E+03</pdfrwt>
<totfact> 0.35241716E+04</totfact>
</mgrwt>
</event>
<event>
 4    1  0.6853809E-004  0.1948154E+03  0.7818608E-02  0.1154189E+00
          2   -1    0    0  501    0  0.00000000000E+00  0.00000000000E+00  0.22603803329E+04  0.22603803329E+04  0.25500000000E-02 0.  1.
         -2   -1    0    0    0  501 -0.00000000000E+00 -0.00000000000E+00 -0.41976363004E+01  0.41976370750E+01  0.25500000000E-02 0. -1.
    5000001    1    1    2    0    0 -0.15948955511E+02  0.26438485345E+02  0.53469842064E+03  0.54109589143E+03  0.77000000000E+02 0.  0.
   -5000001    1    1    2    0    0  0.15948955511E+02 -0.26438485345E+02  0.17214842759E+04  0.17234820785E+04  0.77000000000E+02 0.  0.
<mgrwt>
<rscale>  0 0.19481535E+03</rscale>
<asrwt>0</asrwt>
<pdfrwt beam="1">  1        2 0.32291079E+00 0.19481535E+03</pdfrwt>
<pdfrwt beam="2">  1       -2 0.59966365E-03 0.19481535E+03</pdfrwt>
<totfact> 0.29029184E+04</totfact>
</mgrwt>
</event>
<event>
 4    1  0.6853809E-004  0.1881494E+03  0.7818608E-02  0.1160141E+00
          2   -1    0    0  501    0  0.00000000000E+00  0.00000000000E+00  0.77027658836E+03  0.77027658836E+03  0.25500000000E-02 0.  1.
         -2   -1    0    0    0  501 -0.00000000000E+00 -0.00000000000E+00 -0.11489447636E+02  0.11489447919E+02  0.25500000000E-02 0. -1.
    5000001    1    1    2    0    0 -0.47430142428E+02 -0.20634167301E+02  0.31426885392E+03  0.32767254968E+03  0.77000000000E+02 0.  0.
   -5000001    1    1    2    0    0  0.47430142428E+02  0.20634167301E+02  0.44451828680E+03  0.45409348660E+03  0.77000000000E+02 0.  0.
<mgrwt>
<rscale>  0 0.18814944E+03</rscale>
<asrwt>0</asrwt>
<pdfrwt beam="1">  1        2 0.11003947E+00 0.18814944E+03</pdfrwt>
<pdfrwt beam="2">  1       -2 0.16413503E-02 0.18814944E+03</pdfrwt>
<totfact> 0.40767772E+04</totfact>
</mgrwt>
</event>
<event>
 4    1  0.6853809E-004  0.2129570E+03  0.7818608E-02  0.1139246E+00
         -2   -1    0    0    0  501 -0.00000000000E+00  0.00000000000E+00  0.23028538688E+02  0.23028538829E+02  0.25500000000E-02 0. -1.
          2   -1    0    0  501    0  0.00000000000E+00 -0.00000000000E+00 -0.49233135154E+03  0.49233135155E+03  0.25500000000E-02 0.  1.
    5000001    1    1    2    0    0 -0.71867278703E+02 -0.13464207720E+02 -0.21552239232E+03  0.24026046747E+03  0.77000000000E+02 0.  0.
   -5000001    1    1    2    0    0  0.71867278703E+02  0.13464207720E+02 -0.25378042054E+03  0.27509942291E+03  0.77000000000E+02 0.  0.
<mgrwt>
<rscale>  0 0.21295701E+03</rscale>
<asrwt>0</asrwt>
<pdfrwt beam="1">  1        2 0.70333044E-01 0.21295701E+03</pdfrwt>
<pdfrwt beam="2">  1       -2 0.32897916E-02 0.21295701E+03</pdfrwt>
<totfact> 0.24730758E+04</totfact>
</mgrwt>
</event>
<event>
 4    1  0.6853809E-004  0.1752923E+03  0.7818608E-02  0.1172439E+00
         -2   -1    0    0    0  501 -0.00000000000E+00  0.00000000000E+00  0.89170745274E+01  0.89170748920E+01  0.25500000000E-02 0. -1.
          2   -1    0    0  501    0  0.00000000000E+00 -0.00000000000E+00 -0.86147575173E+03  0.86147575173E+03  0.25500000000E-02 0.  1.
    5000001    1    1    2    0    0 -0.33980764432E+02 -0.77832357888E+01 -0.54140472753E+03  0.54796290943E+03  0.77000000000E+02 0.  0.
   -5000001    1    1    2    0    0  0.33980764432E+02  0.77832357888E+01 -0.31115394966E+03  0.32242991720E+03  0.77000000000E+02 0.  0.
<mgrwt>
<rscale>  0 0.17529225E+03</rscale>
<asrwt>0</asrwt>
<pdfrwt beam="1">  1        2 0.12306791E+00 0.17529225E+03</pdfrwt>
<pdfrwt beam="2">  1       -2 0.12738684E-02 0.17529225E+03</pdfrwt>
<totfact> 0.50968920E+04</totfact>
</mgrwt>
</event>
<event>
 4    1  0.6853809E-004  0.5371358E+03  0.7818608E-02  0.1004516E+00
          2   -1    0    0  501    0  0.00000000000E+00  0.00000000000E+00  0.92396421019E+03  0.92396421019E+03  0.25500000000E-02 0.  1.
         -2   -1    0    0    0  501 -0.00000000000E+00 -0.00000000000E+00 -0.78064398095E+02  0.78064398137E+02  0.25500000000E-02 0. -1.
    5000001    1    1    2    0    0  0.20580161473E+03  0.15362426512E+03  0.45214908630E+03  0.52566388091E+03  0.77000000000E+02 0.  0.
   -5000001    1    1    2    0    0 -0.20580161473E+03 -0.15362426512E+03  0.39375072579E+03  0.47636472741E+03  0.77000000000E+02 0.  0.
<mgrwt>
<rscale>  0 0.53713577E+03</rscale>
<asrwt>0</asrwt>
<pdfrwt beam="1">  1        2 0.13199489E+00 0.53713577E+03</pdfrwt>
<pdfrwt beam="2">  1       -2 0.11152057E-01 0.53713577E+03</pdfrwt>
<totfact> 0.18055399E+03</totfact>
</mgrwt>
</event>
<event>
 4    1  0.6853809E-004  0.2931042E+03  0.7818608E-02  0.1088739E+00
          2   -1    0    0  501    0  0.00000000000E+00  0.00000000000E+00  0.95227763849E+03  0.95227763849E+03  0.25500000000E-02 0.  1.
         -2   -1    0    0    0  501 -0.00000000000E+00 -0.00000000000E+00 -0.22553843305E+02  0.22553843450E+02  0.25500000000E-02 0. -1.
    5000001    1    1    2    0    0 -0.21882718752E+01  0.10667895183E+03  0.25026271009E+03  0.28274654968E+03  0.77000000000E+02 0.  0.
   -5000001    1    1    2    0    0  0.21882718752E+01 -0.10667895183E+03  0.67946108510E+03  0.69208493226E+03  0.77000000000E+02 0.  0.
<mgrwt>
<rscale>  0 0.29310422E+03</rscale>
<asrwt>0</asrwt>
<pdfrwt beam="1">  1        2 0.13603965E+00 0.29310422E+03</pdfrwt>
<pdfrwt beam="2">  1       -2 0.32219778E-02 0.29310422E+03</pdfrwt>
<totfact> 0.11840080E+04</totfact>
</mgrwt>
</event>
<event>
 4    1  0.6853809E-004  0.3213100E+03  0.7818608E-02  0.1075048E+00
          2   -1    0    0  501    0  0.00000000000E+00  0.00000000000E+00  0.45972031299E+03  0.45972031300E+03  0.25500000000E-02 0.  1.
         -2   -1    0    0    0  501 -0.00000000000E+00 -0.00000000000E+00 -0.56142910320E+02  0.56142910378E+02  0.25500000000E-02 0. -1.
    5000001    1    1    2    0    0  0.56631051855E+02  0.62235830145E+02  0.38343496727E+03  0.40003968392E+03  0.77000000000E+02 0.  0.
   -5000001    1    1    2    0    0 -0.56631051855E+02 -0.62235830145E+02  0.20142435405E+02  0.11582353946E+03  0.77000000000E+02 0.  0.
<mgrwt>
<rscale>  0 0.32131005E+03</rscale>
<asrwt>0</asrwt>
<pdfrwt beam="1">  1        2 0.65674328E-01 0.32131005E+03</pdfrwt>
<pdfrwt beam="2">  1       -2 0.80204160E-02 0.32131005E+03</pdfrwt>
<totfact> 0.70044625E+03</totfact>
</mgrwt>
</event>
<event>
 4    1  0.6853809E-004  0.2148066E+03  0.7818608E-02  0.1137815E+00
         -2   -1    0    0    0  501 -0.00000000000E+00  0.00000000000E+00  0.50729864022E+03  0.50729864022E+03  0.25500000000E-02 0. -1.
          2   -1    0    0  501    0  0.00000000000E+00 -0.00000000000E+00 -0.22739019074E+02  0.22739019217E+02  0.25500000000E-02 0.  1.
    5000001    1    1    2    0    0  0.69961813419E+02 -0.25399794132E+02  0.26242724459E+03  0.28343758322E+03  0.77000000000E+02 0.  0.
   -5000001    1    1    2    0    0 -0.69961813419E+02  0.25399794132E+02  0.22213237655E+03  0.24660007622E+03  0.77000000000E+02 0.  0.
<mgrwt>
<rscale>  0 0.21480664E+03</rscale>
<asrwt>0</asrwt>
<pdfrwt beam="1">  1        2 0.32484311E-02 0.21480664E+03</pdfrwt>
<pdfrwt beam="2">  1       -2 0.72471239E-01 0.21480664E+03</pdfrwt>
<totfact> 0.48817986E+03</totfact>
</mgrwt>
</event>
<event>
 4    1  0.6853809E-004  0.3958253E+03  0.7818608E-02  0.1045235E+00
          2   -1    0    0  501    0  0.00000000000E+00  0.00000000000E+00  0.57637416773E+03  0.57637416774E+03  0.25500000000E-02 0.  1.
         -2   -1    0    0    0  501 -0.00000000000E+00 -0.00000000000E+00 -0.67958299310E+02  0.67958299357E+02  0.25500000000E-02 0. -1.
    5000001    1    1    2    0    0 -0.16441920516E+03  0.36219871882E+02  0.36809552067E+03  0.41203017666E+03  0.77000000000E+02 0.  0.
   -5000001    1    1    2    0    0  0.16441920516E+03 -0.36219871882E+02  0.14032034775E+03  0.23230229043E+03  0.77000000000E+02 0.  0.
<mgrwt>
<rscale>  0 0.39582526E+03</rscale>
<asrwt>0</asrwt>
<pdfrwt beam="1">  1        2 0.82339168E-01 0.39582526E+03</pdfrwt>
<pdfrwt beam="2">  1       -2 0.97083283E-02 0.39582526E+03</pdfrwt>
<totfact> 0.40355356E+03</totfact>
</mgrwt>
</event>
<event>
 4    1  0.6853809E-004  0.4751189E+03  0.7818608E-02  0.1020485E+00
          2   -1    0    0  501    0  0.00000000000E+00  0.00000000000E+00  0.14058087713E+04  0.14058087713E+04  0.25500000000E-02 0.  1.
         -2   -1    0    0    0  501 -0.00000000000E+00 -0.00000000000E+00 -0.40143787287E+02  0.40143787368E+02  0.25500000000E-02 0. -1.
    5000001    1    1    2    0    0  0.12501761210E+03 -0.13120741039E+03  0.27839098977E+03  0.34099168768E+03  0.77000000000E+02 0.  0.
   -5000001    1    1    2    0    0 -0.12501761210E+03  0.13120741039E+03  0.10872739942E+04  0.11049608710E+04  0.77000000000E+02 0.  0.
<mgrwt>
<rscale>  0 0.47511888E+03</rscale>
<asrwt>0</asrwt>
<pdfrwt beam="1">  1        2 0.20082985E+00 0.47511888E+03</pdfrwt>
<pdfrwt beam="2">  1       -2 0.57348261E-02 0.47511888E+03</pdfrwt>
<totfact> 0.27659418E+03</totfact>
</mgrwt>
</event>
<event>
 4    1  0.6853809E-004  0.1648521E+03  0.7818608E-02  0.1183325E+00
          2   -1    0    0  501    0  0.00000000000E+00  0.00000000000E+00  0.98931360058E+02  0.98931360091E+02  0.25500000000E-02 0.  1.
         -2   -1    0    0    0  501 -0.00000000000E+00 -0.00000000000E+00 -0.68674412733E+02  0.68674412781E+02  0.25500000000E-02 0. -1.
    5000001    1    1    2    0    0  0.27870778198E+02  0.65009076960E+01  0.82320289557E+01  0.82557909245E+02  0.77000000000E+02 0.  0.
   -5000001    1    1    2    0    0 -0.27870778198E+02 -0.65009076960E+01  0.22024918370E+02  0.85047863627E+02  0.77000000000E+02 0.  0.
<mgrwt>
<rscale>  0 0.16485209E+03</rscale>
<asrwt>0</asrwt>
<pdfrwt beam="1">  1        2 0.14133051E-01 0.16485209E+03</pdfrwt>
<pdfrwt beam="2">  1       -2 0.98106304E-02 0.16485209E+03</pdfrwt>
<totfact> 0.26923350E+04</totfact>
</mgrwt>
</event>
<event>
 4    1  0.6853809E-004  0.1850022E+03  0.7818608E-02  0.1163048E+00
         -2   -1    0    0    0  501 -0.00000000000E+00  0.00000000000E+00  0.91382284971E+01  0.91382288529E+01  0.25500000000E-02 0. -1.
          2   -1    0    0  501    0  0.00000000000E+00 -0.00000000000E+00 -0.93633632929E+03  0.93633632930E+03  0.25500000000E-02 0.  1.
    5000001    1    1    2    0    0 -0.51243067268E+02  0.52645850438E+00 -0.46948490346E+03  0.47850935590E+03  0.77000000000E+02 0.  0.
   -5000001    1    1    2    0    0  0.51243067268E+02 -0.52645850438E+00 -0.45771319733E+03  0.46696520225E+03  0.77000000000E+02 0.  0.
<mgrwt>
<rscale>  0 0.18500222E+03</rscale>
<asrwt>0</asrwt>
<pdfrwt beam="1">  1        2 0.13376227E+00 0.18500222E+03</pdfrwt>
<pdfrwt beam="2">  1       -2 0.13054618E-02 0.18500222E+03</pdfrwt>
<totfact> 0.44434118E+04</totfact>
</mgrwt>
</event>
<event>
 4    1  0.6853809E-004  0.2631430E+03  0.7818608E-02  0.1105269E+00
         -2   -1    0    0    0  501 -0.00000000000E+00  0.00000000000E+00  0.38158237502E+02  0.38158237587E+02  0.25500000000E-02 0. -1.
          2   -1    0    0  501    0  0.00000000000E+00 -0.00000000000E+00 -0.45366523296E+03  0.45366523297E+03  0.25500000000E-02 0.  1.
    5000001    1    1    2    0    0 -0.21755111716E+02  0.97918120066E+02 -0.13982694131E+03  0.18852537399E+03  0.77000000000E+02 0.  0.
   -5000001    1    1    2    0    0  0.21755111716E+02 -0.97918120066E+02 -0.27568005416E+03  0.30329809657E+03  0.77000000000E+02 0.  0.
<mgrwt>
<rscale>  0 0.26314305E+03</rscale>
<asrwt>0</asrwt>
<pdfrwt beam="1">  1        2 0.64809316E-01 0.26314305E+03</pdfrwt>
<pdfrwt beam="2">  1       -2 0.54511771E-02 0.26314305E+03</pdfrwt>
<totfact> 0.12810246E+04</totfact>
</mgrwt>
</event>
<event>
 4    1  0.6853809E-004  0.3205879E+03  0.7818608E-02  0.1075379E+00
         -2   -1    0    0    0  501 -0.00000000000E+00  0.00000000000E+00  0.32414807237E+03  0.32414807238E+03  0.25500000000E-02 0. -1.
          2   -1    0    0  501    0  0.00000000000E+00 -0.00000000000E+00 -0.79266711654E+02  0.79266711695E+02  0.25500000000E-02 0.  1.
    5000001    1    1    2    0    0  0.11849046350E+02 -0.13996938820E+03  0.11517674582E+03  0.19729802916E+03  0.77000000000E+02 0.  0.
   -5000001    1    1    2    0    0 -0.11849046350E+02  0.13996938820E+03  0.12970461490E+03  0.20611675492E+03  0.77000000000E+02 0.  0.
<mgrwt>
<rscale>  0 0.32058791E+03</rscale>
<asrwt>0</asrwt>
<pdfrwt beam="1">  1        2 0.11323816E-01 0.32058791E+03</pdfrwt>
<pdfrwt beam="2">  1       -2 0.46306867E-01 0.32058791E+03</pdfrwt>
<totfact> 0.24633973E+03</totfact>
</mgrwt>
</event>
<event>
 4    1  0.6853809E-004  0.2848854E+03  0.7818608E-02  0.1093050E+00
          2   -1    0    0  501    0  0.00000000000E+00  0.00000000000E+00  0.15481316449E+04  0.15481316449E+04  0.25500000000E-02 0.  1.
         -2   -1    0    0    0  501 -0.00000000000E+00 -0.00000000000E+00 -0.13106072844E+02  0.13106073092E+02  0.25500000000E-02 0. -1.
    5000001    1    1    2    0    0 -0.62051910229E+02  0.53434912705E+02  0.12469999503E+04  0.12520557518E+04  0.77000000000E+02 0.  0.
   -5000001    1    1    2    0    0  0.62051910229E+02 -0.53434912705E+02  0.28802562175E+03  0.30918196624E+03  0.77000000000E+02 0.  0.
<mgrwt>
<rscale>  0 0.28488542E+03</rscale>
<asrwt>0</asrwt>
<pdfrwt beam="1">  1        2 0.22116169E+00 0.28488542E+03</pdfrwt>
<pdfrwt beam="2">  1       -2 0.18722959E-02 0.28488542E+03</pdfrwt>
<totfact> 0.12576909E+04</totfact>
</mgrwt>
</event>
<event>
 4    1  0.6853809E-004  0.3388906E+03  0.7818608E-02  0.1067269E+00
         -2   -1    0    0    0  501 -0.00000000000E+00  0.00000000000E+00  0.44999776908E+02  0.44999776980E+02  0.25500000000E-02 0. -1.
          2   -1    0    0  501    0  0.00000000000E+00 -0.00000000000E+00 -0.63804109234E+03  0.63804109235E+03  0.25500000000E-02 0.  1.
    5000001    1    1    2    0    0 -0.10078796443E+03  0.11183340802E+03 -0.27464674383E+03  0.32252869457E+03  0.77000000000E+02 0.  0.
   -5000001    1    1    2    0    0  0.10078796443E+03 -0.11183340802E+03 -0.31839457160E+03  0.36051217476E+03  0.77000000000E+02 0.  0.
<mgrwt>
<rscale>  0 0.33889058E+03</rscale>
<asrwt>0</asrwt>
<pdfrwt beam="1">  1        2 0.91148722E-01 0.33889058E+03</pdfrwt>
<pdfrwt beam="2">  1       -2 0.64285400E-02 0.33889058E+03</pdfrwt>
<totfact> 0.68391189E+03</totfact>
</mgrwt>
</event>
<event>
 4    1  0.6853809E-004  0.3132769E+03  0.7818608E-02  0.1078786E+00
          2   -1    0    0  501    0  0.00000000000E+00  0.00000000000E+00  0.23706845289E+04  0.23706845289E+04  0.25500000000E-02 0.  1.
         -2   -1    0    0    0  501 -0.00000000000E+00 -0.00000000000E+00 -0.10349587672E+02  0.10349587986E+02  0.25500000000E-02 0. -1.
    5000001    1    1    2    0    0  0.89917257636E+01 -0.69234845051E+02  0.28951404864E+03  0.30760640316E+03  0.77000000000E+02 0.  0.
   -5000001    1    1    2    0    0 -0.89917257636E+01  0.69234845051E+02  0.20708208926E+04  0.20734277137E+04  0.77000000000E+02 0.  0.
<mgrwt>
<rscale>  0 0.31327692E+03</rscale>
<asrwt>0</asrwt>
<pdfrwt beam="1">  1        2 0.33866959E+00 0.31327692E+03</pdfrwt>
<pdfrwt beam="2">  1       -2 0.14785109E-02 0.31327692E+03</pdfrwt>
<totfact> 0.70090969E+03</totfact>
</mgrwt>
</event>
<event>
 4    1  0.6853809E-004  0.2099021E+03  0.7818608E-02  0.1141643E+00
          2   -1    0    0  501    0  0.00000000000E+00  0.00000000000E+00  0.39318077524E+03  0.39318077525E+03  0.25500000000E-02 0.  1.
         -2   -1    0    0    0  501 -0.00000000000E+00 -0.00000000000E+00 -0.28014411444E+02  0.28014411560E+02  0.25500000000E-02 0. -1.
    5000001    1    1    2    0    0 -0.72929874643E-01 -0.55512527250E+02  0.27241377400E+03  0.28847861319E+03  0.77000000000E+02 0.  0.
   -5000001    1    1    2    0    0  0.72929874643E-01  0.55512527250E+02  0.92752589795E+02  0.13271657362E+03  0.77000000000E+02 0.  0.
<mgrwt>
<rscale>  0 0.20990215E+03</rscale>
<asrwt>0</asrwt>
<pdfrwt beam="1">  1        2 0.56168676E-01 0.20990215E+03</pdfrwt>
<pdfrwt beam="2">  1       -2 0.40020592E-02 0.20990215E+03</pdfrwt>
<totfact> 0.23531989E+04</totfact>
</mgrwt>
</event>
<event>
 4    1  0.6853809E-004  0.2393726E+03  0.7818608E-02  0.1120211E+00
          2   -1    0    0  501    0  0.00000000000E+00  0.00000000000E+00  0.11867867337E+04  0.11867867337E+04  0.25500000000E-02 0.  1.
         -2   -1    0    0    0  501 -0.00000000000E+00 -0.00000000000E+00 -0.12070248553E+02  0.12070248822E+02  0.25500000000E-02 0. -1.
    5000001    1    1    2    0    0  0.73788444590E+02  0.24891086455E+02  0.82918903443E+03  0.83638971512E+03  0.77000000000E+02 0.  0.
   -5000001    1    1    2    0    0 -0.73788444590E+02 -0.24891086455E+02  0.34552745071E+03  0.36246726739E+03  0.77000000000E+02 0.  0.
<mgrwt>
<rscale>  0 0.23937261E+03</rscale>
<asrwt>0</asrwt>
<pdfrwt beam="1">  1        2 0.16954093E+00 0.23937261E+03</pdfrwt>
<pdfrwt beam="2">  1       -2 0.17243215E-02 0.23937261E+03</pdfrwt>
<totfact> 0.21711876E+04</totfact>
</mgrwt>
</event>
<event>
 4    1  0.6853809E-004  0.7323601E+03  0.7818608E-02  0.9663438E-01
          2   -1    0    0  501    0  0.00000000000E+00  0.00000000000E+00  0.40337003671E+03  0.40337003672E+03  0.25500000000E-02 0.  1.
         -2   -1    0    0    0  501 -0.00000000000E+00 -0.00000000000E+00 -0.33241891247E+03  0.33241891248E+03  0.25500000000E-02 0. -1.
    5000001    1    1    2    0    0  0.35456147968E+03 -0.26708357619E+02 -0.63323621616E+01  0.36386299351E+03  0.77000000000E+02 0.  0.
   -5000001    1    1    2    0    0 -0.35456147968E+03  0.26708357619E+02  0.77283486405E+02  0.37192595568E+03  0.77000000000E+02 0.  0.
<mgrwt>
<rscale>  0 0.73236010E+03</rscale>
<asrwt>0</asrwt>
<pdfrwt beam="1">  1        2 0.57624291E-01 0.73236010E+03</pdfrwt>
<pdfrwt beam="2">  1       -2 0.47488416E-01 0.73236010E+03</pdfrwt>
<totfact> 0.36268550E+02</totfact>
</mgrwt>
</event>
<event>
 4    1  0.6853809E-004  0.2463576E+03  0.7818608E-02  0.1115629E+00
          2   -1    0    0  501    0  0.00000000000E+00  0.00000000000E+00  0.14867352302E+04  0.14867352302E+04  0.25500000000E-02 0.  1.
         -2   -1    0    0    0  501 -0.00000000000E+00 -0.00000000000E+00 -0.10205596868E+02  0.10205597186E+02  0.25500000000E-02 0. -1.
    5000001    1    1    2    0    0  0.95844111346E+02 -0.64747465663E+01  0.71395613689E+03  0.72449318935E+03  0.77000000000E+02 0.  0.
   -5000001    1    1    2    0    0 -0.95844111346E+02  0.64747465663E+01  0.76257349646E+03  0.77244763805E+03  0.77000000000E+02 0.  0.
<mgrwt>
<rscale>  0 0.24635763E+03</rscale>
<asrwt>0</asrwt>
<pdfrwt beam="1">  1        2 0.21239071E+00 0.24635763E+03</pdfrwt>
<pdfrwt beam="2">  1       -2 0.14579427E-02 0.24635763E+03</pdfrwt>
<totfact> 0.19383561E+04</totfact>
</mgrwt>
</event>
<event>
 4    1  0.6853809E-004  0.2417278E+03  0.7818608E-02  0.1118647E+00
         -2   -1    0    0    0  501 -0.00000000000E+00  0.00000000000E+00  0.16213784089E+02  0.16213784290E+02  0.25500000000E-02 0. -1.
          2   -1    0    0  501    0  0.00000000000E+00 -0.00000000000E+00 -0.90096706174E+03  0.90096706174E+03  0.25500000000E-02 0.  1.
    5000001    1    1    2    0    0 -0.38295051450E+02  0.70165055358E+02 -0.62392524533E+03  0.63372025194E+03  0.77000000000E+02 0.  0.
   -5000001    1    1    2    0    0  0.38295051450E+02 -0.70165055358E+02 -0.26082803232E+03  0.28346059409E+03  0.77000000000E+02 0.  0.
<mgrwt>
<rscale>  0 0.24172783E+03</rscale>
<asrwt>0</asrwt>
<pdfrwt beam="1">  1        2 0.12870955E+00 0.24172783E+03</pdfrwt>
<pdfrwt beam="2">  1       -2 0.23162555E-02 0.24172783E+03</pdfrwt>
<totfact> 0.20602072E+04</totfact>
</mgrwt>
</event>
<event>
 4    1  0.6853809E-004  0.6167590E+03  0.7818608E-02  0.9871234E-01
          2   -1    0    0  501    0  0.00000000000E+00  0.00000000000E+00  0.10570620720E+03  0.10570620723E+03  0.25500000000E-02 0.  1.
         -2   -1    0    0    0  501 -0.00000000000E+00 -0.00000000000E+00 -0.89964360822E+03  0.89964360823E+03  0.25500000000E-02 0. -1.
    5000001    1    1    2    0    0  0.84331366474E+02 -0.21917285767E+03 -0.69762573803E+03  0.74010755385E+03  0.77000000000E+02 0.  0.
   -5000001    1    1    2    0    0 -0.84331366474E+02  0.21917285767E+03 -0.96311662999E+02  0.26524226160E+03  0.77000000000E+02 0.  0.
<mgrwt>
<rscale>  0 0.61675899E+03</rscale>
<asrwt>0</asrwt>
<pdfrwt beam="1">  1        2 0.15100887E-01 0.61675899E+03</pdfrwt>
<pdfrwt beam="2">  1       -2 0.12852051E+00 0.61675899E+03</pdfrwt>
<totfact> 0.18024254E+02</totfact>
</mgrwt>
</event>
<event>
 4    1  0.6853809E-004  0.4050728E+03  0.7818608E-02  0.1042037E+00
         -2   -1    0    0    0  501 -0.00000000000E+00  0.00000000000E+00  0.18302020270E+03  0.18302020272E+03  0.25500000000E-02 0. -1.
          2   -1    0    0  501    0  0.00000000000E+00 -0.00000000000E+00 -0.22413363884E+03  0.22413363886E+03  0.25500000000E-02 0.  1.
    5000001    1    1    2    0    0 -0.58779263121E+02  0.14523194491E+03  0.82658060620E+02  0.19315453549E+03  0.77000000000E+02 0.  0.
   -5000001    1    1    2    0    0  0.58779263121E+02 -0.14523194491E+03 -0.12377149676E+03  0.21399930609E+03  0.77000000000E+02 0.  0.
<mgrwt>
<rscale>  0 0.40507275E+03</rscale>
<asrwt>0</asrwt>
<pdfrwt beam="1">  1        2 0.32019091E-01 0.40507275E+03</pdfrwt>
<pdfrwt beam="2">  1       -2 0.26145743E-01 0.40507275E+03</pdfrwt>
<totfact> 0.21573030E+03</totfact>
</mgrwt>
</event>
<event>
 4    1  0.6853809E-004  0.2469927E+03  0.7818608E-02  0.1115220E+00
         -2   -1    0    0    0  501 -0.00000000000E+00  0.00000000000E+00  0.27387027937E+02  0.27387028056E+02  0.25500000000E-02 0. -1.
          2   -1    0    0  501    0  0.00000000000E+00 -0.00000000000E+00 -0.55688218933E+03  0.55688218933E+03  0.25500000000E-02 0.  1.
    5000001    1    1    2    0    0 -0.64676281833E+02  0.51523597251E+02 -0.38266042607E+03  0.39899336359E+03  0.77000000000E+02 0.  0.
   -5000001    1    1    2    0    0  0.64676281833E+02 -0.51523597251E+02 -0.14683473532E+03  0.18527585380E+03  0.77000000000E+02 0.  0.
<mgrwt>
<rscale>  0 0.24699270E+03</rscale>
<asrwt>0</asrwt>
<pdfrwt beam="1">  1        2 0.79554592E-01 0.24699270E+03</pdfrwt>
<pdfrwt beam="2">  1       -2 0.39124329E-02 0.24699270E+03</pdfrwt>
<totfact> 0.16809074E+04</totfact>
</mgrwt>
</event>
<event>
 4    1  0.6853809E-004  0.2157536E+03  0.7818608E-02  0.1137089E+00
         -2   -1    0    0    0  501 -0.00000000000E+00  0.00000000000E+00  0.14238014572E+02  0.14238014801E+02  0.25500000000E-02 0. -1.
          2   -1    0    0  501    0  0.00000000000E+00 -0.00000000000E+00 -0.81734700474E+03  0.81734700474E+03  0.25500000000E-02 0.  1.
    5000001    1    1    2    0    0  0.46175152777E+02  0.24825761877E+01 -0.17125746735E+03  0.19338156076E+03  0.77000000000E+02 0.  0.
   -5000001    1    1    2    0    0 -0.46175152777E+02 -0.24825761877E+01 -0.63185152282E+03  0.63820345879E+03  0.77000000000E+02 0.  0.
<mgrwt>
<rscale>  0 0.21575355E+03</rscale>
<asrwt>0</asrwt>
<pdfrwt beam="1">  1        2 0.11676383E+00 0.21575355E+03</pdfrwt>
<pdfrwt beam="2">  1       -2 0.20340026E-02 0.21575355E+03</pdfrwt>
<totfact> 0.28011247E+04</totfact>
</mgrwt>
</event>
<event>
 4    1  0.6853809E-004  0.2123645E+03  0.7818608E-02  0.1139707E+00
          2   -1    0    0  501    0  0.00000000000E+00  0.00000000000E+00  0.29158529503E+03  0.29158529504E+03  0.25500000000E-02 0.  1.
         -2   -1    0    0    0  501 -0.00000000000E+00 -0.00000000000E+00 -0.38666799577E+02  0.38666799661E+02  0.25500000000E-02 0. -1.
    5000001    1    1    2    0    0  0.48523801212E+01  0.56238199597E+02  0.54194056879E+02  0.10978286063E+03  0.77000000000E+02 0.  0.
   -5000001    1    1    2    0    0 -0.48523801212E+01 -0.56238199597E+02  0.19872443858E+03  0.22046923408E+03  0.77000000000E+02 0.  0.
<mgrwt>
<rscale>  0 0.21236450E+03</rscale>
<asrwt>0</asrwt>
<pdfrwt beam="1">  1        2 0.41655042E-01 0.21236450E+03</pdfrwt>
<pdfrwt beam="2">  1       -2 0.55238285E-02 0.21236450E+03</pdfrwt>
<totfact> 0.19949773E+04</totfact>
</mgrwt>
</event>
<event>
 4    1  0.6853809E-004  0.2120104E+03  0.7818608E-02  0.1139984E+00
         -2   -1    0    0    0  501 -0.00000000000E+00  0.00000000000E+00  0.75404517174E+02  0.75404517217E+02  0.25500000000E-02 0. -1.
          2   -1    0    0  501    0  0.00000000000E+00 -0.00000000000E+00 -0.14902424153E+03  0.14902424155E+03  0.25500000000E-02 0.  1.
    5000001    1    1    2    0    0  0.72003892314E+01  0.72493948983E+02 -0.37804439409E+02  0.11254063214E+03  0.77000000000E+02 0.  0.
   -5000001    1    1    2    0    0 -0.72003892314E+01 -0.72493948983E+02 -0.35815284948E+02  0.11188812663E+03  0.77000000000E+02 0.  0.
<mgrwt>
<rscale>  0 0.21201039E+03</rscale>
<asrwt>0</asrwt>
<pdfrwt beam="1">  1        2 0.21289177E-01 0.21201039E+03</pdfrwt>
<pdfrwt beam="2">  1       -2 0.10772074E-01 0.21201039E+03</pdfrwt>
<totfact> 0.14750967E+04</totfact>
</mgrwt>
</event>
<event>
 4    1  0.6853809E-004  0.2393017E+03  0.7818608E-02  0.1120259E+00
         -2   -1    0    0    0  501 -0.00000000000E+00  0.00000000000E+00  0.83745983032E+01  0.83745986914E+01  0.25500000000E-02 0. -1.
          2   -1    0    0  501    0  0.00000000000E+00 -0.00000000000E+00 -0.17094935419E+04  0.17094935419E+04  0.25500000000E-02 0.  1.
    5000001    1    1    2    0    0 -0.39007502135E+02  0.76053729924E+02 -0.61447315739E+03  0.62514959507E+03  0.77000000000E+02 0.  0.
   -5000001    1    1    2    0    0  0.39007502135E+02 -0.76053729924E+02 -0.10866457862E+04  0.10927185455E+04  0.77000000000E+02 0.  0.
<mgrwt>
<rscale>  0 0.23930167E+03</rscale>
<asrwt>0</asrwt>
<pdfrwt beam="1">  1        2 0.24421314E+00 0.23930167E+03</pdfrwt>
<pdfrwt beam="2">  1       -2 0.11963723E-02 0.23930167E+03</pdfrwt>
<totfact> 0.20011878E+04</totfact>
</mgrwt>
</event>
<event>
 4    1  0.6853809E-004  0.2307959E+03  0.7818608E-02  0.1126081E+00
          2   -1    0    0  501    0  0.00000000000E+00  0.00000000000E+00  0.59692216455E+02  0.59692216509E+02  0.25500000000E-02 0.  1.
         -2   -1    0    0    0  501 -0.00000000000E+00 -0.00000000000E+00 -0.22308912379E+03  0.22308912381E+03  0.25500000000E-02 0. -1.
    5000001    1    1    2    0    0 -0.70245775834E+02  0.44689992773E+02 -0.55533826486E+02  0.12627220740E+03  0.77000000000E+02 0.  0.
   -5000001    1    1    2    0    0  0.70245775834E+02 -0.44689992773E+02 -0.10786308085E+03  0.15650913292E+03  0.77000000000E+02 0.  0.
<mgrwt>
<rscale>  0 0.23079588E+03</rscale>
<asrwt>0</asrwt>
<pdfrwt beam="1">  1        2 0.85274597E-02 0.23079588E+03</pdfrwt>
<pdfrwt beam="2">  1       -2 0.31869874E-01 0.23079588E+03</pdfrwt>
<totfact> 0.70390013E+03</totfact>
</mgrwt>
</event>
<event>
 4    1  0.6853809E-004  0.4582672E+03  0.7818608E-02  0.1025285E+00
          2   -1    0    0  501    0  0.00000000000E+00  0.00000000000E+00  0.21701941221E+03  0.21701941222E+03  0.25500000000E-02 0.  1.
         -2   -1    0    0    0  501 -0.00000000000E+00 -0.00000000000E+00 -0.24192402096E+03  0.24192402097E+03  0.25500000000E-02 0. -1.
    5000001    1    1    2    0    0  0.16698292473E+03  0.90156846228E+02  0.90469255681E+02  0.22388666842E+03  0.77000000000E+02 0.  0.
   -5000001    1    1    2    0    0 -0.16698292473E+03 -0.90156846228E+02 -0.11537386443E+03  0.23505676477E+03  0.77000000000E+02 0.  0.
<mgrwt>
<rscale>  0 0.45826721E+03</rscale>
<asrwt>0</asrwt>
<pdfrwt beam="1">  1        2 0.31002773E-01 0.45826721E+03</pdfrwt>
<pdfrwt beam="2">  1       -2 0.34560574E-01 0.45826721E+03</pdfrwt>
<totfact> 0.13413323E+03</totfact>
</mgrwt>
</event>
<event>
 4    1  0.6853809E-004  0.1872489E+03  0.7818608E-02  0.1160966E+00
          2   -1    0    0  501    0  0.00000000000E+00  0.00000000000E+00  0.48162509440E+03  0.48162509440E+03  0.25500000000E-02 0.  1.
         -2   -1    0    0    0  501 -0.00000000000E+00 -0.00000000000E+00 -0.18199925722E+02  0.18199925900E+02  0.25500000000E-02 0. -1.
    5000001    1    1    2    0    0  0.36363916711E+02  0.23409202621E+02  0.31468537518E+03  0.32684279181E+03  0.77000000000E+02 0.  0.
   -5000001    1    1    2    0    0 -0.36363916711E+02 -0.23409202621E+02  0.14873979350E+03  0.17298222850E+03  0.77000000000E+02 0.  0.
<mgrwt>
<rscale>  0 0.18724894E+03</rscale>
<asrwt>0</asrwt>
<pdfrwt beam="1">  1        2 0.68803588E-01 0.18724894E+03</pdfrwt>
<pdfrwt beam="2">  1       -2 0.25999893E-02 0.18724894E+03</pdfrwt>
<totfact> 0.35514187E+04</totfact>
</mgrwt>
</event>
<event>
 4    1  0.6853809E-004  0.2237135E+03  0.7818608E-02  0.1131144E+00
          2   -1    0    0  501    0  0.00000000000E+00  0.00000000000E+00  0.90491972441E+02  0.90491972477E+02  0.25500000000E-02 0.  1.
         -2   -1    0    0    0  501 -0.00000000000E+00 -0.00000000000E+00 -0.13826566456E+03  0.13826566458E+03  0.25500000000E-02 0. -1.
    5000001    1    1    2    0    0 -0.78957468486E+01 -0.77121267163E+02  0.58816151017E+00  0.10926746360E+03  0.77000000000E+02 0.  0.
   -5000001    1    1    2    0    0  0.78957468486E+01  0.77121267163E+02 -0.48361853627E+02  0.11949017346E+03  0.77000000000E+02 0.  0.
<mgrwt>
<rscale>  0 0.22371350E+03</rscale>
<asrwt>0</asrwt>
<pdfrwt beam="1">  1        2 0.12927425E-01 0.22371350E+03</pdfrwt>
<pdfrwt beam="2">  1       -2 0.19752238E-01 0.22371350E+03</pdfrwt>
<totfact> 0.97809483E+03</totfact>
</mgrwt>
</event>
<event>
 4    1  0.6853809E-004  0.2184602E+03  0.7818608E-02  0.1135036E+00
          2   -1    0    0  501    0  0.00000000000E+00  0.00000000000E+00  0.74830087099E+01  0.74830091444E+01  0.25500000000E-02 0.  1.
         -2   -1    0    0    0  501 -0.00000000000E+00 -0.00000000000E+00 -0.15944401325E+04  0.15944401325E+04  0.25500000000E-02 0. -1.
    5000001    1    1    2    0    0  0.30805483105E+02  0.67558425048E+02 -0.63131086538E+03  0.64030893116E+03  0.77000000000E+02 0.  0.
   -5000001    1    1    2    0    0 -0.30805483105E+02 -0.67558425048E+02 -0.95564625840E+03  0.96161421047E+03  0.77000000000E+02 0.  0.
<mgrwt>
<rscale>  0 0.21846015E+03</rscale>
<asrwt>0</asrwt>
<pdfrwt beam="1">  1        2 0.10690023E-02 0.21846015E+03</pdfrwt>
<pdfrwt beam="2">  1       -2 0.22777694E+00 0.21846015E+03</pdfrwt>
<totfact> 0.12668634E+03</totfact>
</mgrwt>
</event>
<event>
 4    1  0.6853809E-004  0.1752298E+03  0.7818608E-02  0.1172501E+00
          2   -1    0    0  501    0  0.00000000000E+00  0.00000000000E+00  0.25615608748E+03  0.25615608749E+03  0.25500000000E-02 0.  1.
         -2   -1    0    0    0  501 -0.00000000000E+00 -0.00000000000E+00 -0.29967539979E+02  0.29967540087E+02  0.25500000000E-02 0. -1.
    5000001    1    1    2    0    0 -0.79456419019E+01  0.33017566920E+02  0.15289274828E+03  0.17452359561E+03  0.77000000000E+02 0.  0.
   -5000001    1    1    2    0    0  0.79456419019E+01 -0.33017566920E+02  0.73295799223E+02  0.11160003196E+03  0.77000000000E+02 0.  0.
<mgrwt>
<rscale>  0 0.17522977E+03</rscale>
<asrwt>0</asrwt>
<pdfrwt beam="1">  1        2 0.36593724E-01 0.17522977E+03</pdfrwt>
<pdfrwt beam="2">  1       -2 0.42810775E-02 0.17522977E+03</pdfrwt>
<totfact> 0.33146748E+04</totfact>
</mgrwt>
</event>
<event>
 4    1  0.6853809E-004  0.4740845E+03  0.7818608E-02  0.1020774E+00
          2   -1    0    0  501    0  0.00000000000E+00  0.00000000000E+00  0.89771259806E+02  0.89771259842E+02  0.25500000000E-02 0.  1.
         -2   -1    0    0    0  501 -0.00000000000E+00 -0.00000000000E+00 -0.62591325948E+03  0.62591325948E+03  0.25500000000E-02 0. -1.
    5000001    1    1    2    0    0  0.10658234353E+02 -0.12290724295E+03 -0.55065618358E+03  0.56953579417E+03  0.77000000000E+02 0.  0.
   -5000001    1    1    2    0    0 -0.10658234353E+02  0.12290724295E+03  0.14514183907E+02  0.14614872515E+03  0.77000000000E+02 0.  0.
<mgrwt>
<rscale>  0 0.47408447E+03</rscale>
<asrwt>0</asrwt>
<pdfrwt beam="1">  1        2 0.12824466E-01 0.47408447E+03</pdfrwt>
<pdfrwt beam="2">  1       -2 0.89416177E-01 0.47408447E+03</pdfrwt>
<totfact> 0.52585852E+02</totfact>
</mgrwt>
</event>
<event>
 4    1  0.6853809E-004  0.1635144E+03  0.7818608E-02  0.1184785E+00
         -2   -1    0    0    0  501 -0.00000000000E+00  0.00000000000E+00  0.36672064751E+03  0.36672064751E+03  0.25500000000E-02 0. -1.
          2   -1    0    0  501    0  0.00000000000E+00 -0.00000000000E+00 -0.18227065747E+02  0.18227065925E+02  0.25500000000E-02 0.  1.
    5000001    1    1    2    0    0 -0.13633688888E+02  0.23219312614E+02  0.18719013071E+03  0.20419147628E+03  0.77000000000E+02 0.  0.
   -5000001    1    1    2    0    0  0.13633688888E+02 -0.23219312614E+02  0.16130345105E+03  0.18075623716E+03  0.77000000000E+02 0.  0.
<mgrwt>
<rscale>  0 0.16351442E+03</rscale>
<asrwt>0</asrwt>
<pdfrwt beam="1">  1        2 0.26038666E-02 0.16351442E+03</pdfrwt>
<pdfrwt beam="2">  1       -2 0.52388663E-01 0.16351442E+03</pdfrwt>
<totfact> 0.12645337E+04</totfact>
</mgrwt>
</event>
<event>
 4    1  0.6853809E-004  0.3246390E+03  0.7818608E-02  0.1073534E+00
          2   -1    0    0  501    0  0.00000000000E+00  0.00000000000E+00  0.53673572280E+03  0.53673572280E+03  0.25500000000E-02 0.  1.
         -2   -1    0    0    0  501 -0.00000000000E+00 -0.00000000000E+00 -0.49088614476E+02  0.49088614543E+02  0.25500000000E-02 0. -1.
    5000001    1    1    2    0    0  0.12955486583E+03  0.32572113824E+02  0.33536212967E+03  0.36910996177E+03  0.77000000000E+02 0.  0.
   -5000001    1    1    2    0    0 -0.12955486583E+03 -0.32572113824E+02  0.15228497865E+03  0.21671437558E+03  0.77000000000E+02 0.  0.
<mgrwt>
<rscale>  0 0.32463896E+03</rscale>
<asrwt>0</asrwt>
<pdfrwt beam="1">  1        2 0.76676533E-01 0.32463896E+03</pdfrwt>
<pdfrwt beam="2">  1       -2 0.70126591E-02 0.32463896E+03</pdfrwt>
<totfact> 0.72744689E+03</totfact>
</mgrwt>
</event>
<event>
 4    1  0.6853809E-004  0.2042675E+03  0.7818608E-02  0.1146188E+00
          2   -1    0    0  501    0  0.00000000000E+00  0.00000000000E+00  0.35112141136E+03  0.35112141137E+03  0.25500000000E-02 0.  1.
         -2   -1    0    0    0  501 -0.00000000000E+00 -0.00000000000E+00 -0.29708542692E+02  0.29708542801E+02  0.25500000000E-02 0. -1.
    5000001    1    1    2    0    0  0.66341728739E+02 -0.67874996092E+01  0.14687860745E+03  0.17874456761E+03  0.77000000000E+02 0.  0.
   -5000001    1    1    2    0    0 -0.66341728739E+02  0.67874996092E+01  0.17453426122E+03  0.20208538657E+03  0.77000000000E+02 0.  0.
<mgrwt>
<rscale>  0 0.20426753E+03</rscale>
<asrwt>0</asrwt>
<pdfrwt beam="1">  1        2 0.50160204E-01 0.20426753E+03</pdfrwt>
<pdfrwt beam="2">  1       -2 0.42440773E-02 0.20426753E+03</pdfrwt>
<totfact> 0.24280725E+04</totfact>
</mgrwt>
</event>
<event>
 4    1  0.6853809E-004  0.4188645E+03  0.7818608E-02  0.1037436E+00
         -2   -1    0    0    0  501 -0.00000000000E+00  0.00000000000E+00  0.75111493466E+03  0.75111493466E+03  0.25500000000E-02 0. -1.
          2   -1    0    0  501    0  0.00000000000E+00 -0.00000000000E+00 -0.58395686356E+02  0.58395686412E+02  0.25500000000E-02 0.  1.
    5000001    1    1    2    0    0  0.30373325592E+02 -0.14848984525E+03  0.10996874099E+03  0.20246949658E+03  0.77000000000E+02 0.  0.
   -5000001    1    1    2    0    0 -0.30373325592E+02  0.14848984525E+03  0.58275050731E+03  0.60704112449E+03  0.77000000000E+02 0.  0.
<mgrwt>
<rscale>  0 0.41886452E+03</rscale>
<asrwt>0</asrwt>
<pdfrwt beam="1">  1        2 0.83422419E-02 0.41886452E+03</pdfrwt>
<pdfrwt beam="2">  1       -2 0.10730212E+00 0.41886452E+03</pdfrwt>
<totfact> 0.58944203E+02</totfact>
</mgrwt>
</event>
<event>
 4    1  0.6853809E-004  0.2105762E+03  0.7818608E-02  0.1141110E+00
          2   -1    0    0  501    0  0.00000000000E+00  0.00000000000E+00  0.16770708247E+04  0.16770708247E+04  0.25500000000E-02 0.  1.
         -2   -1    0    0    0  501 -0.00000000000E+00 -0.00000000000E+00 -0.66100885161E+01  0.66100890080E+01  0.25500000000E-02 0. -1.
    5000001    1    1    2    0    0  0.34073010040E+02  0.47988063257E+02  0.50626627480E+03  0.51545937302E+03  0.77000000000E+02 0.  0.
   -5000001    1    1    2    0    0 -0.34073010040E+02 -0.47988063257E+02  0.11641944613E+04  0.11682215406E+04  0.77000000000E+02 0.  0.
<mgrwt>
<rscale>  0 0.21057623E+03</rscale>
<asrwt>0</asrwt>
<pdfrwt beam="1">  1        2 0.23958138E+00 0.21057623E+03</pdfrwt>
<pdfrwt beam="2">  1       -2 0.94429904E-03 0.21057623E+03</pdfrwt>
<totfact> 0.29061745E+04</totfact>
</mgrwt>
</event>
<event>
 4    1  0.6853809E-004  0.1848905E+03  0.7818608E-02  0.1163152E+00
          2   -1    0    0  501    0  0.00000000000E+00  0.00000000000E+00  0.59191595715E+03  0.59191595715E+03  0.25500000000E-02 0.  1.
         -2   -1    0    0    0  501 -0.00000000000E+00 -0.00000000000E+00 -0.14438070571E+02  0.14438070796E+02  0.25500000000E-02 0. -1.
    5000001    1    1    2    0    0 -0.31719927785E+02 -0.26038990566E+02  0.18856866260E+03  0.20777710019E+03  0.77000000000E+02 0.  0.
   -5000001    1    1    2    0    0  0.31719927785E+02  0.26038990566E+02  0.38890922397E+03  0.39857692775E+03  0.77000000000E+02 0.  0.
<mgrwt>
<rscale>  0 0.18489050E+03</rscale>
<asrwt>0</asrwt>
<pdfrwt beam="1">  1        2 0.84559407E-01 0.18489050E+03</pdfrwt>
<pdfrwt beam="2">  1       -2 0.20625819E-02 0.18489050E+03</pdfrwt>
<totfact> 0.39647756E+04</totfact>
</mgrwt>
</event>
<event>
 4    1  0.6853809E-004  0.3675807E+03  0.7818608E-02  0.1055622E+00
          2   -1    0    0  501    0  0.00000000000E+00  0.00000000000E+00  0.23097768403E+04  0.23097768403E+04  0.25500000000E-02 0.  1.
         -2   -1    0    0    0  501 -0.00000000000E+00 -0.00000000000E+00 -0.14624311752E+02  0.14624311975E+02  0.25500000000E-02 0. -1.
    5000001    1    1    2    0    0  0.15970999343E+03  0.21706872226E+02  0.14211313215E+04  0.14323134096E+04  0.77000000000E+02 0.  0.
   -5000001    1    1    2    0    0 -0.15970999343E+03 -0.21706872226E+02  0.87402120702E+03  0.89208774267E+03  0.77000000000E+02 0.  0.
<mgrwt>
<rscale>  0 0.36758072E+03</rscale>
<asrwt>0</asrwt>
<pdfrwt beam="1">  1        2 0.32996803E+00 0.36758072E+03</pdfrwt>
<pdfrwt beam="2">  1       -2 0.20891880E-02 0.36758072E+03</pdfrwt>
<totfact> 0.45074359E+03</totfact>
</mgrwt>
</event>
<event>
 4    1  0.6853809E-004  0.2509093E+03  0.7818608E-02  0.1112732E+00
          2   -1    0    0  501    0  0.00000000000E+00  0.00000000000E+00  0.71253471383E+02  0.71253471429E+02  0.25500000000E-02 0.  1.
         -2   -1    0    0    0  501 -0.00000000000E+00 -0.00000000000E+00 -0.22088563727E+03  0.22088563728E+03  0.25500000000E-02 0. -1.
    5000001    1    1    2    0    0  0.39787961939E+02 -0.77255152767E+02 -0.13014804452E+03  0.17441030370E+03  0.77000000000E+02 0.  0.
   -5000001    1    1    2    0    0 -0.39787961939E+02  0.77255152767E+02 -0.19484121366E+02  0.11772880501E+03  0.77000000000E+02 0.  0.
<mgrwt>
<rscale>  0 0.25090929E+03</rscale>
<asrwt>0</asrwt>
<pdfrwt beam="1">  1        2 0.10179067E-01 0.25090929E+03</pdfrwt>
<pdfrwt beam="2">  1       -2 0.31555091E-01 0.25090929E+03</pdfrwt>
<totfact> 0.57692165E+03</totfact>
</mgrwt>
</event>
<event>
 4    1  0.6853809E-004  0.2771565E+03  0.7818608E-02  0.1097252E+00
         -2   -1    0    0    0  501 -0.00000000000E+00  0.00000000000E+00  0.34262096319E+02  0.34262096414E+02  0.25500000000E-02 0. -1.
          2   -1    0    0  501    0  0.00000000000E+00 -0.00000000000E+00 -0.56050072865E+03  0.56050072866E+03  0.25500000000E-02 0.  1.
    5000001    1    1    2    0    0 -0.48720516419E+02 -0.83044520680E+02 -0.12731554575E+03  0.17722395246E+03  0.77000000000E+02 0.  0.
   -5000001    1    1    2    0    0  0.48720516419E+02  0.83044520680E+02 -0.39892308658E+03  0.41753887261E+03  0.77000000000E+02 0.  0.
<mgrwt>
<rscale>  0 0.27715649E+03</rscale>
<asrwt>0</asrwt>
<pdfrwt beam="1">  1        2 0.80071527E-01 0.27715649E+03</pdfrwt>
<pdfrwt beam="2">  1       -2 0.48945856E-02 0.27715649E+03</pdfrwt>
<totfact> 0.11968078E+04</totfact>
</mgrwt>
</event>
<event>
 4    1  0.6853809E-004  0.2394487E+03  0.7818608E-02  0.1120161E+00
          2   -1    0    0  501    0  0.00000000000E+00  0.00000000000E+00  0.14361703688E+03  0.14361703690E+03  0.25500000000E-02 0.  1.
         -2   -1    0    0    0  501 -0.00000000000E+00 -0.00000000000E+00 -0.99806519424E+02  0.99806519456E+02  0.25500000000E-02 0. -1.
    5000001    1    1    2    0    0  0.12784993021E+02  0.89958276188E+02  0.94973597724E+01  0.11947864807E+03  0.77000000000E+02 0.  0.
   -5000001    1    1    2    0    0 -0.12784993021E+02 -0.89958276188E+02  0.34313157685E+02  0.12394490829E+03  0.77000000000E+02 0.  0.
<mgrwt>
<rscale>  0 0.23944867E+03</rscale>
<asrwt>0</asrwt>
<pdfrwt beam="1">  1        2 0.20516719E-01 0.23944867E+03</pdfrwt>
<pdfrwt beam="2">  1       -2 0.14258074E-01 0.23944867E+03</pdfrwt>
<totfact> 0.98530365E+03</totfact>
</mgrwt>
</event>
<event>
 4    1  0.6853809E-004  0.2266337E+03  0.7818608E-02  0.1129032E+00
         -2   -1    0    0    0  501 -0.00000000000E+00  0.00000000000E+00  0.14432003722E+03  0.14432003724E+03  0.25500000000E-02 0. -1.
          2   -1    0    0  501    0  0.00000000000E+00 -0.00000000000E+00 -0.88973842189E+02  0.88973842226E+02  0.25500000000E-02 0.  1.
    5000001    1    1    2    0    0  0.30970938027E+02 -0.67468862384E+02  0.66195600606E+02  0.12578594490E+03  0.77000000000E+02 0.  0.
   -5000001    1    1    2    0    0 -0.30970938027E+02  0.67468862384E+02 -0.10849405580E+02  0.10750793457E+03  0.77000000000E+02 0.  0.
<mgrwt>
<rscale>  0 0.22663370E+03</rscale>
<asrwt>0</asrwt>
<pdfrwt beam="1">  1        2 0.12710549E-01 0.22663370E+03</pdfrwt>
<pdfrwt beam="2">  1       -2 0.20617148E-01 0.22663370E+03</pdfrwt>
<totfact> 0.92849915E+03</totfact>
</mgrwt>
</event>
<event>
 4    1  0.6853809E-004  0.2533318E+03  0.7818608E-02  0.1111217E+00
         -2   -1    0    0    0  501 -0.00000000000E+00  0.00000000000E+00  0.14477711737E+02  0.14477711961E+02  0.25500000000E-02 0. -1.
          2   -1    0    0  501    0  0.00000000000E+00 -0.00000000000E+00 -0.11082030833E+04  0.11082030833E+04  0.25500000000E-02 0.  1.
    5000001    1    1    2    0    0 -0.81277845489E+02  0.57987915939E+02 -0.60051295951E+03  0.61360695979E+03  0.77000000000E+02 0.  0.
   -5000001    1    1    2    0    0  0.81277845489E+02 -0.57987915939E+02 -0.49321241206E+03  0.50907383548E+03  0.77000000000E+02 0.  0.
<mgrwt>
<rscale>  0 0.25333176E+03</rscale>
<asrwt>0</asrwt>
<pdfrwt beam="1">  1        2 0.15831467E+00 0.25333176E+03</pdfrwt>
<pdfrwt beam="2">  1       -2 0.20682453E-02 0.25333176E+03</pdfrwt>
<totfact> 0.18423240E+04</totfact>
</mgrwt>
</event>
<event>
 4    1  0.6853809E-004  0.3814520E+03  0.7818608E-02  0.1050398E+00
          2   -1    0    0  501    0  0.00000000000E+00  0.00000000000E+00  0.62707633530E+03  0.62707633531E+03  0.25500000000E-02 0.  1.
         -2   -1    0    0    0  501 -0.00000000000E+00 -0.00000000000E+00 -0.58009550362E+02  0.58009550418E+02  0.25500000000E-02 0. -1.
    5000001    1    1    2    0    0  0.69684876935E+02 -0.15347897483E+03  0.36556517555E+03  0.40985201642E+03  0.77000000000E+02 0.  0.
   -5000001    1    1    2    0    0 -0.69684876935E+02  0.15347897483E+03  0.20350160939E+03  0.27523386931E+03  0.77000000000E+02 0.  0.
<mgrwt>
<rscale>  0 0.38145205E+03</rscale>
<asrwt>0</asrwt>
<pdfrwt beam="1">  1        2 0.89582330E-01 0.38145205E+03</pdfrwt>
<pdfrwt beam="2">  1       -2 0.82870790E-02 0.38145205E+03</pdfrwt>
<totfact> 0.47041332E+03</totfact>
</mgrwt>
</event>
<event>
 4    1  0.6853809E-004  0.2335439E+03  0.7818608E-02  0.1124170E+00
         -2   -1    0    0    0  501 -0.00000000000E+00  0.00000000000E+00  0.72702735368E+01  0.72702739840E+01  0.25500000000E-02 0. -1.
          2   -1    0    0  501    0  0.00000000000E+00 -0.00000000000E+00 -0.18755399965E+04  0.18755399965E+04  0.25500000000E-02 0.  1.
    5000001    1    1    2    0    0 -0.57507526306E+02  0.65212174227E+02 -0.10318623789E+04  0.10383779236E+04  0.77000000000E+02 0.  0.
   -5000001    1    1    2    0    0  0.57507526306E+02 -0.65212174227E+02 -0.83640734409E+03  0.84443234690E+03  0.77000000000E+02 0.  0.
<mgrwt>
<rscale>  0 0.23354391E+03</rscale>
<asrwt>0</asrwt>
<pdfrwt beam="1">  1        2 0.26793398E+00 0.23354391E+03</pdfrwt>
<pdfrwt beam="2">  1       -2 0.10386117E-02 0.23354391E+03</pdfrwt>
<totfact> 0.20368897E+04</totfact>
</mgrwt>
</event>
<event>
 4    1  0.6853809E-004  0.2657588E+03  0.7818608E-02  0.1103732E+00
          2   -1    0    0  501    0  0.00000000000E+00  0.00000000000E+00  0.23965464878E+04  0.23965464878E+04  0.25500000000E-02 0.  1.
         -2   -1    0    0    0  501 -0.00000000000E+00 -0.00000000000E+00 -0.73676563215E+01  0.73676567628E+01  0.25500000000E-02 0. -1.
    5000001    1    1    2    0    0 -0.50818867314E+02 -0.87764404799E+02  0.85100622477E+03  0.86047994899E+03  0.77000000000E+02 0.  0.
   -5000001    1    1    2    0    0  0.50818867314E+02  0.87764404799E+02  0.15381726068E+04  0.15434341956E+04  0.77000000000E+02 0.  0.
<mgrwt>
<rscale>  0 0.26575877E+03</rscale>
<asrwt>0</asrwt>
<pdfrwt beam="1">  1        2 0.34236388E+00 0.26575877E+03</pdfrwt>
<pdfrwt beam="2">  1       -2 0.10525221E-02 0.26575877E+03</pdfrwt>
<totfact> 0.11165642E+04</totfact>
</mgrwt>
</event>
<event>
 4    1  0.6853809E-004  0.1977490E+03  0.7818608E-02  0.1151652E+00
         -2   -1    0    0    0  501 -0.00000000000E+00  0.00000000000E+00  0.28781309976E+02  0.28781310089E+02  0.25500000000E-02 0. -1.
          2   -1    0    0  501    0  0.00000000000E+00 -0.00000000000E+00 -0.33967068210E+03  0.33967068211E+03  0.25500000000E-02 0.  1.
    5000001    1    1    2    0    0  0.95216934410E+01  0.61277735545E+02 -0.15312970600E+03  0.18227268139E+03  0.77000000000E+02 0.  0.
   -5000001    1    1    2    0    0 -0.95216934410E+01 -0.61277735545E+02 -0.15775966612E+03  0.18617931081E+03  0.77000000000E+02 0.  0.
<mgrwt>
<rscale>  0 0.19774900E+03</rscale>
<asrwt>0</asrwt>
<pdfrwt beam="1">  1        2 0.48524381E-01 0.19774900E+03</pdfrwt>
<pdfrwt beam="2">  1       -2 0.41116159E-02 0.19774900E+03</pdfrwt>
<totfact> 0.26316010E+04</totfact>
</mgrwt>
</event>
<event>
 4    1  0.6853809E-004  0.2704305E+03  0.7818608E-02  0.1101033E+00
          2   -1    0    0  501    0  0.00000000000E+00  0.00000000000E+00  0.30212828237E+04  0.30212828237E+04  0.25500000000E-02 0.  1.
         -2   -1    0    0    0  501 -0.00000000000E+00 -0.00000000000E+00 -0.60514565406E+01  0.60514570779E+01  0.25500000000E-02 0. -1.
    5000001    1    1    2    0    0  0.23623175722E+02 -0.98719103034E+02  0.10006831618E+04  0.10087612730E+04  0.77000000000E+02 0.  0.
   -5000001    1    1    2    0    0 -0.23623175722E+02  0.98719103034E+02  0.20145482054E+04  0.20185730077E+04  0.77000000000E+02 0.  0.
<mgrwt>
<rscale>  0 0.27043049E+03</rscale>
<asrwt>0</asrwt>
<pdfrwt beam="1">  1        2 0.43161159E+00 0.27043049E+03</pdfrwt>
<pdfrwt beam="2">  1       -2 0.86449432E-03 0.27043049E+03</pdfrwt>
<totfact> 0.71263617E+03</totfact>
</mgrwt>
</event>
<event>
 4    1  0.6853809E-004  0.6985663E+03  0.7818608E-02  0.9719687E-01
         -2   -1    0    0    0  501 -0.00000000000E+00  0.00000000000E+00  0.17309971723E+03  0.17309971725E+03  0.25500000000E-02 0. -1.
          2   -1    0    0  501    0  0.00000000000E+00 -0.00000000000E+00 -0.70478873910E+03  0.70478873911E+03  0.25500000000E-02 0.  1.
    5000001    1    1    2    0    0 -0.29462843439E+03 -0.32374631797E+02 -0.54749921395E+02  0.31109578111E+03  0.77000000000E+02 0.  0.
   -5000001    1    1    2    0    0  0.29462843439E+03  0.32374631797E+02 -0.47693910048E+03  0.56679267524E+03  0.77000000000E+02 0.  0.
<mgrwt>
<rscale>  0 0.69856634E+03</rscale>
<asrwt>0</asrwt>
<pdfrwt beam="1">  1        2 0.10068410E+00 0.69856634E+03</pdfrwt>
<pdfrwt beam="2">  1       -2 0.24728531E-01 0.69856634E+03</pdfrwt>
<totfact> 0.65476815E+02</totfact>
</mgrwt>
</event>
<event>
 4    1  0.6853809E-004  0.4527527E+03  0.7818608E-02  0.1026904E+00
         -2   -1    0    0    0  501 -0.00000000000E+00  0.00000000000E+00  0.29494696405E+03  0.29494696406E+03  0.25500000000E-02 0. -1.
          2   -1    0    0  501    0  0.00000000000E+00 -0.00000000000E+00 -0.17374735833E+03  0.17374735835E+03  0.25500000000E-02 0.  1.
    5000001    1    1    2    0    0  0.18644937880E+02  0.19636398505E+03  0.14348653081E+03  0.25578082973E+03  0.77000000000E+02 0.  0.
   -5000001    1    1    2    0    0 -0.18644937880E+02 -0.19636398505E+03 -0.22286925096E+02  0.21291349268E+03  0.77000000000E+02 0.  0.
<mgrwt>
<rscale>  0 0.45275272E+03</rscale>
<asrwt>0</asrwt>
<pdfrwt beam="1">  1        2 0.24821051E-01 0.45275272E+03</pdfrwt>
<pdfrwt beam="2">  1       -2 0.42135280E-01 0.45275272E+03</pdfrwt>
<totfact> 0.11782643E+03</totfact>
</mgrwt>
</event>
<event>
 4    1  0.6853809E-004  0.2497721E+03  0.7818608E-02  0.1113449E+00
         -2   -1    0    0    0  501 -0.00000000000E+00  0.00000000000E+00  0.32924121524E+03  0.32924121525E+03  0.25500000000E-02 0. -1.
          2   -1    0    0  501    0  0.00000000000E+00 -0.00000000000E+00 -0.47371126255E+02  0.47371126324E+02  0.25500000000E-02 0.  1.
    5000001    1    1    2    0    0 -0.34875947506E+02 -0.87539124528E+02  0.18326428517E+03  0.21998688201E+03  0.77000000000E+02 0.  0.
   -5000001    1    1    2    0    0  0.34875947506E+02  0.87539124528E+02  0.98605803814E+02  0.15662545956E+03  0.77000000000E+02 0.  0.
<mgrwt>
<rscale>  0 0.24977211E+03</rscale>
<asrwt>0</asrwt>
<pdfrwt beam="1">  1        2 0.67673036E-02 0.24977211E+03</pdfrwt>
<pdfrwt beam="2">  1       -2 0.47034460E-01 0.24977211E+03</pdfrwt>
<totfact> 0.45347575E+03</totfact>
</mgrwt>
</event>
<event>
 4    1  0.6853809E-004  0.2534728E+03  0.7818608E-02  0.1111130E+00
         -2   -1    0    0    0  501 -0.00000000000E+00  0.00000000000E+00  0.16940223740E+02  0.16940223932E+02  0.25500000000E-02 0. -1.
          2   -1    0    0  501    0  0.00000000000E+00 -0.00000000000E+00 -0.94816410006E+03  0.94816410006E+03  0.25500000000E-02 0.  1.
    5000001    1    1    2    0    0  0.50587527296E+02 -0.82922339093E+02 -0.56619839096E+03  0.57960747939E+03  0.77000000000E+02 0.  0.
   -5000001    1    1    2    0    0 -0.50587527296E+02  0.82922339093E+02 -0.36502548536E+03  0.38549684460E+03  0.77000000000E+02 0.  0.
<mgrwt>
<rscale>  0 0.25347278E+03</rscale>
<asrwt>0</asrwt>
<pdfrwt beam="1">  1        2 0.13545198E+00 0.25347278E+03</pdfrwt>
<pdfrwt beam="2">  1       -2 0.24200326E-02 0.25347278E+03</pdfrwt>
<totfact> 0.18109024E+04</totfact>
</mgrwt>
</event>
<event>
 4    1  0.6853809E-004  0.3684611E+03  0.7818608E-02  0.1055283E+00
         -2   -1    0    0    0  501 -0.00000000000E+00  0.00000000000E+00  0.11450760058E+03  0.11450760061E+03  0.25500000000E-02 0. -1.
          2   -1    0    0  501    0  0.00000000000E+00 -0.00000000000E+00 -0.29640742165E+03  0.29640742166E+03  0.25500000000E-02 0.  1.
    5000001    1    1    2    0    0 -0.16021015841E+03  0.23995256662E+00 -0.36950365752E+02  0.18155352369E+03  0.77000000000E+02 0.  0.
   -5000001    1    1    2    0    0  0.16021015841E+03 -0.23995256662E+00 -0.14494945532E+03  0.22936149858E+03  0.77000000000E+02 0.  0.
<mgrwt>
<rscale>  0 0.36846114E+03</rscale>
<asrwt>0</asrwt>
<pdfrwt beam="1">  1        2 0.42343917E-01 0.36846114E+03</pdfrwt>
<pdfrwt beam="2">  1       -2 0.16358229E-01 0.36846114E+03</pdfrwt>
<totfact> 0.35741683E+03</totfact>
</mgrwt>
</event>
<event>
 4    1  0.6853809E-004  0.2871325E+03  0.7818608E-02  0.1091856E+00
          2   -1    0    0  501    0  0.00000000000E+00  0.00000000000E+00  0.52839997395E+03  0.52839997396E+03  0.25500000000E-02 0.  1.
         -2   -1    0    0    0  501 -0.00000000000E+00 -0.00000000000E+00 -0.39006932590E+02  0.39006932673E+02  0.25500000000E-02 0. -1.
    5000001    1    1    2    0    0  0.55023609908E+02 -0.10590504978E+03  0.20330244382E+03  0.24800072757E+03  0.77000000000E+02 0.  0.
   -5000001    1    1    2    0    0 -0.55023609908E+02  0.10590504978E+03  0.28609059754E+03  0.31940617906E+03  0.77000000000E+02 0.  0.
<mgrwt>
<rscale>  0 0.28713246E+03</rscale>
<asrwt>0</asrwt>
<pdfrwt beam="1">  1        2 0.75485711E-01 0.28713246E+03</pdfrwt>
<pdfrwt beam="2">  1       -2 0.55724189E-02 0.28713246E+03</pdfrwt>
<totfact> 0.10508711E+04</totfact>
</mgrwt>
</event>
<event>
 4    1  0.6853809E-004  0.2286218E+03  0.7818608E-02  0.1127614E+00
         -2   -1    0    0    0  501 -0.00000000000E+00  0.00000000000E+00  0.59803933651E+02  0.59803933705E+02  0.25500000000E-02 0. -1.
          2   -1    0    0  501    0  0.00000000000E+00 -0.00000000000E+00 -0.21849699192E+03  0.21849699193E+03  0.25500000000E-02 0.  1.
    5000001    1    1    2    0    0  0.20738713433E+02 -0.68770386588E+02 -0.13349263089E+03  0.17002571219E+03  0.77000000000E+02 0.  0.
   -5000001    1    1    2    0    0 -0.20738713433E+02  0.68770386588E+02 -0.25200427382E+02  0.10827521344E+03  0.77000000000E+02 0.  0.
<mgrwt>
<rscale>  0 0.22862178E+03</rscale>
<asrwt>0</asrwt>
<pdfrwt beam="1">  1        2 0.31213856E-01 0.22862178E+03</pdfrwt>
<pdfrwt beam="2">  1       -2 0.85434192E-02 0.22862178E+03</pdfrwt>
<totfact> 0.13977004E+04</totfact>
</mgrwt>
</event>
<event>
 4    1  0.6853809E-004  0.5764813E+03  0.7818608E-02  0.9955438E-01
         -2   -1    0    0    0  501 -0.00000000000E+00  0.00000000000E+00  0.11207720221E+03  0.11207720224E+03  0.25500000000E-02 0. -1.
          2   -1    0    0  501    0  0.00000000000E+00 -0.00000000000E+00 -0.74129858334E+03  0.74129858334E+03  0.25500000000E-02 0.  1.
    5000001    1    1    2    0    0  0.19963071029E+03  0.18569949000E+03 -0.23604287548E+03  0.36875731876E+03  0.77000000000E+02 0.  0.
   -5000001    1    1    2    0    0 -0.19963071029E+03 -0.18569949000E+03 -0.39317850565E+03  0.48461846682E+03  0.77000000000E+02 0.  0.
<mgrwt>
<rscale>  0 0.57648130E+03</rscale>
<asrwt>0</asrwt>
<pdfrwt beam="1">  1        2 0.10589979E+00 0.57648130E+03</pdfrwt>
<pdfrwt beam="2">  1       -2 0.16011029E-01 0.57648130E+03</pdfrwt>
<totfact> 0.13155160E+03</totfact>
</mgrwt>
</event>
<event>
 4    1  0.6853809E-004  0.2020036E+03  0.7818608E-02  0.1148060E+00
         -2   -1    0    0    0  501 -0.00000000000E+00  0.00000000000E+00  0.65373758473E+01  0.65373763446E+01  0.25500000000E-02 0. -1.
          2   -1    0    0  501    0  0.00000000000E+00 -0.00000000000E+00 -0.15604675842E+04  0.15604675842E+04  0.25500000000E-02 0.  1.
    5000001    1    1    2    0    0  0.61266381387E+02  0.10725039007E+02 -0.93284028257E+03  0.93807706972E+03  0.77000000000E+02 0.  0.
   -5000001    1    1    2    0    0 -0.61266381387E+02 -0.10725039007E+02 -0.62108992576E+03  0.62892789081E+03  0.77000000000E+02 0.  0.
<mgrwt>
<rscale>  0 0.20200360E+03</rscale>
<asrwt>0</asrwt>
<pdfrwt beam="1">  1        2 0.22292370E+00 0.20200360E+03</pdfrwt>
<pdfrwt beam="2">  1       -2 0.93391187E-03 0.20200360E+03</pdfrwt>
<totfact> 0.33619159E+04</totfact>
</mgrwt>
</event>
<event>
 4    1  0.6853809E-004  0.1882169E+03  0.7818608E-02  0.1160079E+00
          2   -1    0    0  501    0  0.00000000000E+00  0.00000000000E+00  0.33909072519E+03  0.33909072520E+03  0.25500000000E-02 0.  1.
         -2   -1    0    0    0  501 -0.00000000000E+00 -0.00000000000E+00 -0.26118085935E+02  0.26118086059E+02  0.25500000000E-02 0. -1.
    5000001    1    1    2    0    0 -0.23465557739E+02  0.48612079440E+02  0.14932166635E+03  0.17646451969E+03  0.77000000000E+02 0.  0.
   -5000001    1    1    2    0    0  0.23465557739E+02 -0.48612079440E+02  0.16365097290E+03  0.18874429157E+03  0.77000000000E+02 0.  0.
<mgrwt>
<rscale>  0 0.18821690E+03</rscale>
<asrwt>0</asrwt>
<pdfrwt beam="1">  1        2 0.48441532E-01 0.18821690E+03</pdfrwt>
<pdfrwt beam="2">  1       -2 0.37311551E-02 0.18821690E+03</pdfrwt>
<totfact> 0.30355362E+04</totfact>
</mgrwt>
</event>
<event>
 4    1  0.6853809E-004  0.1996460E+03  0.7818608E-02  0.1150038E+00
         -2   -1    0    0    0  501 -0.00000000000E+00  0.00000000000E+00  0.48151878081E+03  0.48151878082E+03  0.25500000000E-02 0. -1.
          2   -1    0    0  501    0  0.00000000000E+00 -0.00000000000E+00 -0.20694171725E+02  0.20694171882E+02  0.25500000000E-02 0.  1.
    5000001    1    1    2    0    0  0.34469578666E+02  0.47107681732E+02  0.29346838822E+03  0.30896598585E+03  0.77000000000E+02 0.  0.
   -5000001    1    1    2    0    0 -0.34469578666E+02 -0.47107681732E+02  0.16735622087E+03  0.19324696685E+03  0.77000000000E+02 0.  0.
<mgrwt>
<rscale>  0 0.19964601E+03</rscale>
<asrwt>0</asrwt>
<pdfrwt beam="1">  1        2 0.29563102E-02 0.19964601E+03</pdfrwt>
<pdfrwt beam="2">  1       -2 0.68788399E-01 0.19964601E+03</pdfrwt>
<totfact> 0.61708215E+03</totfact>
</mgrwt>
</event>
<event>
 4    1  0.6853809E-004  0.3901070E+03  0.7818608E-02  0.1047260E+00
          2   -1    0    0  501    0  0.00000000000E+00  0.00000000000E+00  0.24203317872E+04  0.24203317872E+04  0.25500000000E-02 0.  1.
         -2   -1    0    0    0  501 -0.00000000000E+00 -0.00000000000E+00 -0.15719276070E+02  0.15719276276E+02  0.25500000000E-02 0. -1.
    5000001    1    1    2    0    0 -0.14627863334E+03 -0.10350256154E+03  0.12184034248E+04  0.12339149583E+04  0.77000000000E+02 0.  0.
   -5000001    1    1    2    0    0  0.14627863334E+03  0.10350256154E+03  0.11862090864E+04  0.12021361052E+04  0.77000000000E+02 0.  0.
<mgrwt>
<rscale>  0 0.39010698E+03</rscale>
<asrwt>0</asrwt>
<pdfrwt beam="1">  1        2 0.34576127E+00 0.39010698E+03</pdfrwt>
<pdfrwt beam="2">  1       -2 0.22456136E-02 0.39010698E+03</pdfrwt>
<totfact> 0.35618200E+03</totfact>
</mgrwt>
</event>
<event>
 4    1  0.6853809E-004  0.2339221E+03  0.7818608E-02  0.1123909E+00
          2   -1    0    0  501    0  0.00000000000E+00  0.00000000000E+00  0.35548426580E+03  0.35548426581E+03  0.25500000000E-02 0.  1.
         -2   -1    0    0    0  501 -0.00000000000E+00 -0.00000000000E+00 -0.38482395445E+02  0.38482395529E+02  0.25500000000E-02 0. -1.
    5000001    1    1    2    0    0  0.61089025486E+02  0.38811082586E+02  0.74078083163E+02  0.12905321217E+03  0.77000000000E+02 0.  0.
   -5000001    1    1    2    0    0 -0.61089025486E+02 -0.38811082586E+02  0.24292378720E+03  0.26491344917E+03  0.77000000000E+02 0.  0.
<mgrwt>
<rscale>  0 0.23392209E+03</rscale>
<asrwt>0</asrwt>
<pdfrwt beam="1">  1        2 0.50783470E-01 0.23392209E+03</pdfrwt>
<pdfrwt beam="2">  1       -2 0.54974847E-02 0.23392209E+03</pdfrwt>
<totfact> 0.16356446E+04</totfact>
</mgrwt>
</event>
<event>
 4    1  0.6853809E-004  0.2523615E+03  0.7818608E-02  0.1111821E+00
         -2   -1    0    0    0  501 -0.00000000000E+00  0.00000000000E+00  0.17593185654E+02  0.17593185839E+02  0.25500000000E-02 0. -1.
          2   -1    0    0  501    0  0.00000000000E+00 -0.00000000000E+00 -0.90498595936E+03  0.90498595936E+03  0.25500000000E-02 0.  1.
    5000001    1    1    2    0    0 -0.87700064193E+02 -0.33181414501E+02 -0.57035114110E+03  0.58311382395E+03  0.77000000000E+02 0.  0.
   -5000001    1    1    2    0    0  0.87700064193E+02  0.33181414501E+02 -0.31704163260E+03  0.33946532125E+03  0.77000000000E+02 0.  0.
<mgrwt>
<rscale>  0 0.25236153E+03</rscale>
<asrwt>0</asrwt>
<pdfrwt beam="1">  1        2 0.12928368E+00 0.25236153E+03</pdfrwt>
<pdfrwt beam="2">  1       -2 0.25133128E-02 0.25236153E+03</pdfrwt>
<totfact> 0.18198507E+04</totfact>
</mgrwt>
</event>
<event>
 4    1  0.6853809E-004  0.2835970E+03  0.7818608E-02  0.1093740E+00
         -2   -1    0    0    0  501 -0.00000000000E+00  0.00000000000E+00  0.52196368280E+01  0.52196374508E+01  0.25500000000E-02 0. -1.
          2   -1    0    0  501    0  0.00000000000E+00 -0.00000000000E+00 -0.38521489244E+04  0.38521489244E+04  0.25500000000E-02 0.  1.
    5000001    1    1    2    0    0 -0.89648843296E+02 -0.58806943155E+02 -0.26279488968E+04  0.26312619740E+04  0.77000000000E+02 0.  0.
   -5000001    1    1    2    0    0  0.89648843296E+02  0.58806943155E+02 -0.12189803908E+04  0.12261065879E+04  0.77000000000E+02 0.  0.
<mgrwt>
<rscale>  0 0.28359704E+03</rscale>
<asrwt>0</asrwt>
<pdfrwt beam="1">  1        2 0.55030517E+00 0.28359704E+03</pdfrwt>
<pdfrwt beam="2">  1       -2 0.74566491E-03 0.28359704E+03</pdfrwt>
<totfact> 0.29360306E+03</totfact>
</mgrwt>
</event>
<event>
 4    1  0.6853809E-004  0.2818717E+03  0.7818608E-02  0.1094671E+00
         -2   -1    0    0    0  501 -0.00000000000E+00  0.00000000000E+00  0.86370385216E+01  0.86370388981E+01  0.25500000000E-02 0. -1.
          2   -1    0    0  501    0  0.00000000000E+00 -0.00000000000E+00 -0.22997358964E+04  0.22997358964E+04  0.25500000000E-02 0.  1.
    5000001    1    1    2    0    0  0.73032184424E+02 -0.79659597465E+02 -0.15344021370E+04  0.15401293028E+04  0.77000000000E+02 0.  0.
   -5000001    1    1    2    0    0 -0.73032184424E+02  0.79659597465E+02 -0.75669672091E+03  0.76824363249E+03  0.77000000000E+02 0.  0.
<mgrwt>
<rscale>  0 0.28187166E+03</rscale>
<asrwt>0</asrwt>
<pdfrwt beam="1">  1        2 0.32853331E+00 0.28187166E+03</pdfrwt>
<pdfrwt beam="2">  1       -2 0.12338641E-02 0.28187166E+03</pdfrwt>
<totfact> 0.98952600E+03</totfact>
</mgrwt>
</event>
<event>
 4    1  0.6853809E-004  0.1910011E+03  0.7818608E-02  0.1157561E+00
         -2   -1    0    0    0  501 -0.00000000000E+00  0.00000000000E+00  0.64244944363E+01  0.64244949424E+01  0.25500000000E-02 0. -1.
          2   -1    0    0  501    0  0.00000000000E+00 -0.00000000000E+00 -0.14196224560E+04  0.14196224560E+04  0.25500000000E-02 0.  1.
    5000001    1    1    2    0    0  0.21699289275E+02 -0.36177660712E+02 -0.42607808433E+03  0.43503013256E+03  0.77000000000E+02 0.  0.
   -5000001    1    1    2    0    0 -0.21699289275E+02  0.36177660712E+02 -0.98711987722E+03  0.99101681837E+03  0.77000000000E+02 0.  0.
<mgrwt>
<rscale>  0 0.19100112E+03</rscale>
<asrwt>0</asrwt>
<pdfrwt beam="1">  1        2 0.20280301E+00 0.19100112E+03</pdfrwt>
<pdfrwt beam="2">  1       -2 0.91778586E-03 0.19100112E+03</pdfrwt>
<totfact> 0.40394054E+04</totfact>
</mgrwt>
</event>
<event>
 4    1  0.6853809E-004  0.1801385E+03  0.7818608E-02  0.1167669E+00
          2   -1    0    0  501    0  0.00000000000E+00  0.00000000000E+00  0.38651835601E+03  0.38651835602E+03  0.25500000000E-02 0.  1.
         -2   -1    0    0    0  501 -0.00000000000E+00 -0.00000000000E+00 -0.20988568591E+02  0.20988568746E+02  0.25500000000E-02 0. -1.
    5000001    1    1    2    0    0 -0.16909163421E+02  0.43189556285E+02  0.19560357402E+03  0.21526963499E+03  0.77000000000E+02 0.  0.
   -5000001    1    1    2    0    0  0.16909163421E+02 -0.43189556285E+02  0.16992621340E+03  0.19223728978E+03  0.77000000000E+02 0.  0.
<mgrwt>
<rscale>  0 0.18013847E+03</rscale>
<asrwt>0</asrwt>
<pdfrwt beam="1">  1        2 0.55216908E-01 0.18013847E+03</pdfrwt>
<pdfrwt beam="2">  1       -2 0.29983669E-02 0.18013847E+03</pdfrwt>
<totfact> 0.36362455E+04</totfact>
</mgrwt>
</event>
<event>
 4    1  0.6853809E-004  0.2106828E+03  0.7818608E-02  0.1141026E+00
          2   -1    0    0  501    0  0.00000000000E+00  0.00000000000E+00  0.54731287189E+03  0.54731287190E+03  0.25500000000E-02 0.  1.
         -2   -1    0    0    0  501 -0.00000000000E+00 -0.00000000000E+00 -0.20275078329E+02  0.20275078489E+02  0.25500000000E-02 0. -1.
    5000001    1    1    2    0    0 -0.11366759224E+02  0.49702111248E+02  0.40004875780E+03  0.41056974035E+03  0.77000000000E+02 0.  0.
   -5000001    1    1    2    0    0  0.11366759224E+02 -0.49702111248E+02  0.12698903576E+03  0.15701821003E+03  0.77000000000E+02 0.  0.
<mgrwt>
<rscale>  0 0.21068281E+03</rscale>
<asrwt>0</asrwt>
<pdfrwt beam="1">  1        2 0.78187545E-01 0.21068281E+03</pdfrwt>
<pdfrwt beam="2">  1       -2 0.28964401E-02 0.21068281E+03</pdfrwt>
<totfact> 0.26551760E+04</totfact>
</mgrwt>
</event>
<event>
 4    1  0.6853809E-004  0.1985644E+03  0.7818608E-02  0.1150956E+00
          2   -1    0    0  501    0  0.00000000000E+00  0.00000000000E+00  0.73215502588E+03  0.73215502588E+03  0.25500000000E-02 0.  1.
         -2   -1    0    0    0  501 -0.00000000000E+00 -0.00000000000E+00 -0.13462934601E+02  0.13462934843E+02  0.25500000000E-02 0. -1.
    5000001    1    1    2    0    0 -0.24208345355E+02 -0.55167395427E+02  0.29447286624E+03  0.31027851111E+03  0.77000000000E+02 0.  0.
   -5000001    1    1    2    0    0  0.24208345355E+02  0.55167395427E+02  0.42421922503E+03  0.43533944961E+03  0.77000000000E+02 0.  0.
<mgrwt>
<rscale>  0 0.19856440E+03</rscale>
<asrwt>0</asrwt>
<pdfrwt beam="1">  1        2 0.10459359E+00 0.19856440E+03</pdfrwt>
<pdfrwt beam="2">  1       -2 0.19232760E-02 0.19856440E+03</pdfrwt>
<totfact> 0.34541372E+04</totfact>
</mgrwt>
</event>
<event>
 4    1  0.6853809E-004  0.4494593E+03  0.7818608E-02  0.1027883E+00
          2   -1    0    0  501    0  0.00000000000E+00  0.00000000000E+00  0.13767174690E+03  0.13767174693E+03  0.25500000000E-02 0.  1.
         -2   -1    0    0    0  501 -0.00000000000E+00 -0.00000000000E+00 -0.36683928569E+03  0.36683928570E+03  0.25500000000E-02 0. -1.
    5000001    1    1    2    0    0  0.69580232229E+02  0.12072781774E+03 -0.29262336125E+03  0.33312767259E+03  0.77000000000E+02 0.  0.
   -5000001    1    1    2    0    0 -0.69580232229E+02 -0.12072781774E+03  0.63455822462E+02  0.17138336004E+03  0.77000000000E+02 0.  0.
<mgrwt>
<rscale>  0 0.44945925E+03</rscale>
<asrwt>0</asrwt>
<pdfrwt beam="1">  1        2 0.19667393E-01 0.44945925E+03</pdfrwt>
<pdfrwt beam="2">  1       -2 0.52405612E-01 0.44945925E+03</pdfrwt>
<totfact> 0.99723373E+02</totfact>
</mgrwt>
</event>
<event>
 4    1  0.6853809E-004  0.3263789E+03  0.7818608E-02  0.1072750E+00
          2   -1    0    0  501    0  0.00000000000E+00  0.00000000000E+00  0.65993286886E+03  0.65993286886E+03  0.25500000000E-02 0.  1.
         -2   -1    0    0    0  501 -0.00000000000E+00 -0.00000000000E+00 -0.40353800736E+02  0.40353800817E+02  0.25500000000E-02 0. -1.
    5000001    1    1    2    0    0  0.57199250721E+02 -0.99063251108E+02  0.12253515457E+03  0.18446990570E+03  0.77000000000E+02 0.  0.
   -5000001    1    1    2    0    0 -0.57199250721E+02  0.99063251108E+02  0.49704391356E+03  0.51581676398E+03  0.77000000000E+02 0.  0.
<mgrwt>
<rscale>  0 0.32637892E+03</rscale>
<asrwt>0</asrwt>
<pdfrwt beam="1">  1        2 0.94276122E-01 0.32637892E+03</pdfrwt>
<pdfrwt beam="2">  1       -2 0.57648288E-02 0.32637892E+03</pdfrwt>
<totfact> 0.77695593E+03</totfact>
</mgrwt>
</event>
<event>
 4    1  0.6853809E-004  0.3489794E+03  0.7818608E-02  0.1063035E+00
         -2   -1    0    0    0  501 -0.00000000000E+00  0.00000000000E+00  0.24450632229E+02  0.24450632362E+02  0.25500000000E-02 0.  1.
          2   -1    0    0  501    0  0.00000000000E+00 -0.00000000000E+00 -0.12452301187E+04  0.12452301187E+04  0.25500000000E-02 0. -1.
    5000001    1    1    2    0    0 -0.15586036968E+03  0.14004393842E+02 -0.63001140376E+03  0.65370631537E+03  0.77000000000E+02 0.  0.
   -5000001    1    1    2    0    0  0.15586036968E+03 -0.14004393842E+02 -0.59076808270E+03  0.61597443569E+03  0.77000000000E+02 0.  0.
<mgrwt>
<rscale>  0 0.34897945E+03</rscale>
<asrwt>0</asrwt>
<pdfrwt beam="1">  1        2 0.17788998E+00 0.34897945E+03</pdfrwt>
<pdfrwt beam="2">  1       -2 0.34929483E-02 0.34897945E+03</pdfrwt>
<totfact> 0.71745148E+03</totfact>
</mgrwt>
</event>
<event>
 4    1  0.6853809E-004  0.1676711E+03  0.7818608E-02  0.1180299E+00
          2   -1    0    0  501    0  0.00000000000E+00  0.00000000000E+00  0.10674700444E+03  0.10674700447E+03  0.25500000000E-02 0.  1.
         -2   -1    0    0    0  501 -0.00000000000E+00 -0.00000000000E+00 -0.65841641908E+02  0.65841641958E+02  0.25500000000E-02 0. -1.
    5000001    1    1    2    0    0  0.26446160019E+02 -0.19522504527E+02  0.24924102540E+02  0.87354098073E+02  0.77000000000E+02 0.  0.
   -5000001    1    1    2    0    0 -0.26446160019E+02  0.19522504527E+02  0.15981259995E+02  0.85234548358E+02  0.77000000000E+02 0.  0.
<mgrwt>
<rscale>  0 0.16767108E+03</rscale>
<asrwt>0</asrwt>
<pdfrwt beam="1">  1        2 0.15249572E-01 0.16767108E+03</pdfrwt>
<pdfrwt beam="2">  1       -2 0.94059489E-02 0.16767108E+03</pdfrwt>
<totfact> 0.26342978E+04</totfact>
</mgrwt>
</event>
<event>
 4    1  0.6853809E-004  0.2792044E+03  0.7818608E-02  0.1096124E+00
          2   -1    0    0  501    0  0.00000000000E+00  0.00000000000E+00  0.62945972853E+03  0.62945972853E+03  0.25500000000E-02 0.  1.
         -2   -1    0    0    0  501 -0.00000000000E+00 -0.00000000000E+00 -0.30961105822E+02  0.30961105927E+02  0.25500000000E-02 0. -1.
    5000001    1    1    2    0    0 -0.96914778555E+02 -0.64409596912E+02  0.28902095790E+03  0.32094109207E+03  0.77000000000E+02 0.  0.
   -5000001    1    1    2    0    0  0.96914778555E+02  0.64409596912E+02  0.30947766481E+03  0.33947974239E+03  0.77000000000E+02 0.  0.
<mgrwt>
<rscale>  0 0.27920436E+03</rscale>
<asrwt>0</asrwt>
<pdfrwt beam="1">  1        2 0.89922803E-01 0.27920436E+03</pdfrwt>
<pdfrwt beam="2">  1       -2 0.44230159E-02 0.27920436E+03</pdfrwt>
<totfact> 0.12227799E+04</totfact>
</mgrwt>
</event>
<event>
 4    1  0.6853809E-004  0.2887957E+03  0.7818608E-02  0.1090980E+00
          2   -1    0    0  501    0  0.00000000000E+00  0.00000000000E+00  0.12250319488E+04  0.12250319488E+04  0.25500000000E-02 0.  1.
         -2   -1    0    0    0  501 -0.00000000000E+00 -0.00000000000E+00 -0.17020562409E+02  0.17020562600E+02  0.25500000000E-02 0. -1.
    5000001    1    1    2    0    0  0.42743823600E+02  0.11364225688E+03  0.66172875755E+03  0.67716729511E+03  0.77000000000E+02 0.  0.
   -5000001    1    1    2    0    0 -0.42743823600E+02 -0.11364225688E+03  0.54628262880E+03  0.56488521624E+03  0.77000000000E+02 0.  0.
<mgrwt>
<rscale>  0 0.28879566E+03</rscale>
<asrwt>0</asrwt>
<pdfrwt beam="1">  1        2 0.17500454E+00 0.28879566E+03</pdfrwt>
<pdfrwt beam="2">  1       -2 0.24315092E-02 0.28879566E+03</pdfrwt>
<totfact> 0.12579730E+04</totfact>
</mgrwt>
</event>
<event>
 4    1  0.6853809E-004  0.2327707E+03  0.7818608E-02  0.1124705E+00
         -2   -1    0    0    0  501 -0.00000000000E+00  0.00000000000E+00  0.13579280168E+02  0.13579280408E+02  0.25500000000E-02 0. -1.
          2   -1    0    0  501    0  0.00000000000E+00 -0.00000000000E+00 -0.99751594271E+03  0.99751594271E+03  0.25500000000E-02 0.  1.
    5000001    1    1    2    0    0 -0.82824722986E+02 -0.23518350035E+02 -0.55393342293E+03  0.56584828759E+03  0.77000000000E+02 0.  0.
   -5000001    1    1    2    0    0  0.82824722986E+02  0.23518350035E+02 -0.43000323961E+03  0.44524693554E+03  0.77000000000E+02 0.  0.
<mgrwt>
<rscale>  0 0.23277069E+03</rscale>
<asrwt>0</asrwt>
<pdfrwt beam="1">  1        2 0.14250223E+00 0.23277069E+03</pdfrwt>
<pdfrwt beam="2">  1       -2 0.19398978E-02 0.23277069E+03</pdfrwt>
<totfact> 0.23324407E+04</totfact>
</mgrwt>
</event>
<event>
 4    1  0.6853809E-004  0.2572172E+03  0.7818608E-02  0.1108827E+00
         -2   -1    0    0    0  501 -0.00000000000E+00  0.00000000000E+00  0.99129256270E+01  0.99129259549E+01  0.25500000000E-02 0. -1.
          2   -1    0    0  501    0  0.00000000000E+00 -0.00000000000E+00 -0.16685460950E+04  0.16685460950E+04  0.25500000000E-02 0.  1.
    5000001    1    1    2    0    0 -0.10221464452E+03 -0.10177444629E+02 -0.77887196210E+03  0.78938073658E+03  0.77000000000E+02 0.  0.
   -5000001    1    1    2    0    0  0.10221464452E+03  0.10177444629E+02 -0.87976120729E+03  0.88907828440E+03  0.77000000000E+02 0.  0.
<mgrwt>
<rscale>  0 0.25721721E+03</rscale>
<asrwt>0</asrwt>
<pdfrwt beam="1">  1        2 0.23836355E+00 0.25721721E+03</pdfrwt>
<pdfrwt beam="2">  1       -2 0.14161333E-02 0.25721721E+03</pdfrwt>
<totfact> 0.16442745E+04</totfact>
</mgrwt>
</event>
<event>
 4    1  0.6853809E-004  0.2931528E+03  0.7818608E-02  0.1088714E+00
         -2   -1    0    0    0  501 -0.00000000000E+00  0.00000000000E+00  0.65701912067E+02  0.65701912117E+02  0.25500000000E-02 0. -1.
          2   -1    0    0  501    0  0.00000000000E+00 -0.00000000000E+00 -0.32700180297E+03  0.32700180298E+03  0.25500000000E-02 0.  1.
    5000001    1    1    2    0    0  0.11599730186E+03 -0.44310731392E+02 -0.11498028322E+03  0.18592547024E+03  0.77000000000E+02 0.  0.
   -5000001    1    1    2    0    0 -0.11599730186E+03  0.44310731392E+02 -0.14631960768E+03  0.20677824486E+03  0.77000000000E+02 0.  0.
<mgrwt>
<rscale>  0 0.29315282E+03</rscale>
<asrwt>0</asrwt>
<pdfrwt beam="1">  1        2 0.46714542E-01 0.29315282E+03</pdfrwt>
<pdfrwt beam="2">  1       -2 0.93859876E-02 0.29315282E+03</pdfrwt>
<totfact> 0.78896520E+03</totfact>
</mgrwt>
</event>
<event>
 4    1  0.6853809E-004  0.2332706E+03  0.7818608E-02  0.1124359E+00
          2   -1    0    0  501    0  0.00000000000E+00  0.00000000000E+00  0.39472367348E+02  0.39472367431E+02  0.25500000000E-02 0.  1.
         -2   -1    0    0    0  501 -0.00000000000E+00 -0.00000000000E+00 -0.34464097870E+03  0.34464097871E+03  0.25500000000E-02 0. -1.
    5000001    1    1    2    0    0 -0.33152541997E+02 -0.80939565579E+02 -0.14443533511E+03  0.18558251627E+03  0.77000000000E+02 0.  0.
   -5000001    1    1    2    0    0  0.33152541997E+02  0.80939565579E+02 -0.16073327624E+03  0.19853082987E+03  0.77000000000E+02 0.  0.
<mgrwt>
<rscale>  0 0.23327062E+03</rscale>
<asrwt>0</asrwt>
<pdfrwt beam="1">  1        2 0.56389098E-02 0.23327062E+03</pdfrwt>
<pdfrwt beam="2">  1       -2 0.49234424E-01 0.23327062E+03</pdfrwt>
<totfact> 0.52333456E+03</totfact>
</mgrwt>
</event>
<event>
 4    1  0.6853809E-004  0.1959792E+03  0.7818608E-02  0.1153176E+00
         -2   -1    0    0    0  501 -0.00000000000E+00  0.00000000000E+00  0.47825282014E+01  0.47825288812E+01  0.25500000000E-02 0. -1.
          2   -1    0    0  501    0  0.00000000000E+00 -0.00000000000E+00 -0.20077164092E+04  0.20077164092E+04  0.25500000000E-02 0.  1.
    5000001    1    1    2    0    0  0.59320061763E+02 -0.11827086216E+02 -0.96275515854E+03  0.96772167744E+03  0.77000000000E+02 0.  0.
   -5000001    1    1    2    0    0 -0.59320061763E+02  0.11827086216E+02 -0.10401787224E+04  0.10447772606E+04  0.77000000000E+02 0.  0.
<mgrwt>
<rscale>  0 0.19597919E+03</rscale>
<asrwt>0</asrwt>
<pdfrwt beam="1">  1        2 0.28681609E+00 0.19597919E+03</pdfrwt>
<pdfrwt beam="2">  1       -2 0.68321965E-03 0.19597919E+03</pdfrwt>
<totfact> 0.31894915E+04</totfact>
</mgrwt>
</event>
<event>
 4    1  0.6853809E-004  0.2135158E+03  0.7818608E-02  0.1138812E+00
          2   -1    0    0  501    0  0.00000000000E+00  0.00000000000E+00  0.40325820215E+03  0.40325820215E+03  0.25500000000E-02 0.  1.
         -2   -1    0    0    0  501 -0.00000000000E+00 -0.00000000000E+00 -0.28262905706E+02  0.28262905821E+02  0.25500000000E-02 0. -1.
    5000001    1    1    2    0    0  0.28374982749E+02 -0.66351454749E+02  0.22012288889E+03  0.24411214924E+03  0.77000000000E+02 0.  0.
   -5000001    1    1    2    0    0 -0.28374982749E+02  0.66351454749E+02  0.15487240755E+03  0.18740895873E+03  0.77000000000E+02 0.  0.
<mgrwt>
<rscale>  0 0.21351579E+03</rscale>
<asrwt>0</asrwt>
<pdfrwt beam="1">  1        2 0.57608309E-01 0.21351579E+03</pdfrwt>
<pdfrwt beam="2">  1       -2 0.40375584E-02 0.21351579E+03</pdfrwt>
<totfact> 0.22626701E+04</totfact>
</mgrwt>
</event>
<event>
 4    1  0.6853809E-004  0.2245303E+03  0.7818608E-02  0.1130550E+00
          2   -1    0    0  501    0  0.00000000000E+00  0.00000000000E+00  0.24618499155E+03  0.24618499157E+03  0.25500000000E-02 0.  1.
         -2   -1    0    0    0  501 -0.00000000000E+00 -0.00000000000E+00 -0.51195101607E+02  0.51195101670E+02  0.25500000000E-02 0. -1.
    5000001    1    1    2    0    0  0.43672059009E+02 -0.50281886492E+02  0.34825046746E+02  0.10759786582E+03  0.77000000000E+02 0.  0.
   -5000001    1    1    2    0    0 -0.43672059009E+02  0.50281886492E+02  0.16016484320E+03  0.18978222742E+03  0.77000000000E+02 0.  0.
<mgrwt>
<rscale>  0 0.22453032E+03</rscale>
<asrwt>0</asrwt>
<pdfrwt beam="1">  1        2 0.35169283E-01 0.22453032E+03</pdfrwt>
<pdfrwt beam="2">  1       -2 0.73135862E-02 0.22453032E+03</pdfrwt>
<totfact> 0.15620857E+04</totfact>
</mgrwt>
</event>
<event>
 4    1  0.6853809E-004  0.2573400E+03  0.7818608E-02  0.1108752E+00
         -2   -1    0    0    0  501 -0.00000000000E+00  0.00000000000E+00  0.21166310709E+03  0.21166310711E+03  0.25500000000E-02 0. -1.
          2   -1    0    0  501    0  0.00000000000E+00 -0.00000000000E+00 -0.78218481183E+02  0.78218481224E+02  0.25500000000E-02 0.  1.
    5000001    1    1    2    0    0  0.99762453518E+02  0.23388282510E+02  0.79437170611E+02  0.15079397523E+03  0.77000000000E+02 0.  0.
   -5000001    1    1    2    0    0 -0.99762453518E+02 -0.23388282510E+02  0.54007455298E+02  0.13908761310E+03  0.77000000000E+02 0.  0.
<mgrwt>
<rscale>  0 0.25733998E+03</rscale>
<asrwt>0</asrwt>
<pdfrwt beam="1">  1        2 0.11174069E-01 0.25733998E+03</pdfrwt>
<pdfrwt beam="2">  1       -2 0.30237587E-01 0.25733998E+03</pdfrwt>
<totfact> 0.55648508E+03</totfact>
</mgrwt>
</event>
<event>
 4    1  0.6853809E-004  0.2213783E+03  0.7818608E-02  0.1132860E+00
          2   -1    0    0  501    0  0.00000000000E+00  0.00000000000E+00  0.15647812992E+02  0.15647813200E+02  0.25500000000E-02 0.  1.
         -2   -1    0    0    0  501 -0.00000000000E+00 -0.00000000000E+00 -0.78299051854E+03  0.78299051855E+03  0.25500000000E-02 0. -1.
    5000001    1    1    2    0    0  0.68919550836E+02  0.26579699532E+02 -0.27746498069E+03  0.29727462122E+03  0.77000000000E+02 0.  0.
   -5000001    1    1    2    0    0 -0.68919550836E+02 -0.26579699532E+02 -0.48987772486E+03  0.50136371052E+03  0.77000000000E+02 0.  0.
<mgrwt>
<rscale>  0 0.22137831E+03</rscale>
<asrwt>0</asrwt>
<pdfrwt beam="1">  1        2 0.22354024E-02 0.22137831E+03</pdfrwt>
<pdfrwt beam="2">  1       -2 0.11185576E+00 0.22137831E+03</pdfrwt>
<totfact> 0.30488342E+03</totfact>
</mgrwt>
</event>
<event>
 4    1  0.6853809E-004  0.1917178E+03  0.7818608E-02  0.1156921E+00
          2   -1    0    0  501    0  0.00000000000E+00  0.00000000000E+00  0.44082974417E+03  0.44082974417E+03  0.25500000000E-02 0.  1.
         -2   -1    0    0    0  501 -0.00000000000E+00 -0.00000000000E+00 -0.20844628644E+02  0.20844628800E+02  0.25500000000E-02 0. -1.
    5000001    1    1    2    0    0 -0.31409986023E+02 -0.36464124826E+02  0.13601616478E+03  0.16354087166E+03  0.77000000000E+02 0.  0.
   -5000001    1    1    2    0    0  0.31409986023E+02  0.36464124826E+02  0.28396895074E+03  0.29813350132E+03  0.77000000000E+02 0.  0.
<mgrwt>
<rscale>  0 0.19171784E+03</rscale>
<asrwt>0</asrwt>
<pdfrwt beam="1">  1        2 0.62975682E-01 0.19171784E+03</pdfrwt>
<pdfrwt beam="2">  1       -2 0.29778039E-02 0.19171784E+03</pdfrwt>
<totfact> 0.32069739E+04</totfact>
</mgrwt>
</event>
<event>
 4    1  0.6853809E-004  0.2463190E+03  0.7818608E-02  0.1115653E+00
         -2   -1    0    0    0  501 -0.00000000000E+00  0.00000000000E+00  0.48263800464E+02  0.48263800531E+02  0.25500000000E-02 0. -1.
          2   -1    0    0  501    0  0.00000000000E+00 -0.00000000000E+00 -0.31427823873E+03  0.31427823874E+03  0.25500000000E-02 0.  1.
    5000001    1    1    2    0    0 -0.93058172445E+02  0.16529350825E+02 -0.15876312079E+03  0.20016935685E+03  0.77000000000E+02 0.  0.
   -5000001    1    1    2    0    0  0.93058172445E+02 -0.16529350825E+02 -0.10725131748E+03  0.16237268243E+03  0.77000000000E+02 0.  0.
<mgrwt>
<rscale>  0 0.24631900E+03</rscale>
<asrwt>0</asrwt>
<pdfrwt beam="1">  1        2 0.44896890E-01 0.24631900E+03</pdfrwt>
<pdfrwt beam="2">  1       -2 0.68948288E-02 0.24631900E+03</pdfrwt>
<totfact> 0.13229402E+04</totfact>
</mgrwt>
</event>
<event>
 4    1  0.6853809E-004  0.2175694E+03  0.7818608E-02  0.1135708E+00
          2   -1    0    0  501    0  0.00000000000E+00  0.00000000000E+00  0.79376055258E+01  0.79376059354E+01  0.25500000000E-02 0.  1.
         -2   -1    0    0    0  501 -0.00000000000E+00 -0.00000000000E+00 -0.14908917638E+04  0.14908917638E+04  0.25500000000E-02 0. -1.
    5000001    1    1    2    0    0 -0.38427823730E+02  0.42462575908E+02 -0.10944548915E+04  0.10986538479E+04  0.77000000000E+02 0.  0.
   -5000001    1    1    2    0    0  0.38427823730E+02 -0.42462575908E+02 -0.38849926677E+03  0.40017552183E+03  0.77000000000E+02 0.  0.
<mgrwt>
<rscale>  0 0.21756940E+03</rscale>
<asrwt>0</asrwt>
<pdfrwt beam="1">  1        2 0.11339446E-02 0.21756940E+03</pdfrwt>
<pdfrwt beam="2">  1       -2 0.21298436E+00 0.21756940E+03</pdfrwt>
<totfact> 0.14333992E+03</totfact>
</mgrwt>
</event>
<event>
 4    1  0.6853809E-004  0.2293724E+03  0.7818608E-02  0.1127082E+00
         -2   -1    0    0    0  501 -0.00000000000E+00  0.00000000000E+00  0.14330951618E+02  0.14330951845E+02  0.25500000000E-02 0. -1.
          2   -1    0    0  501    0  0.00000000000E+00 -0.00000000000E+00 -0.91779806620E+03  0.91779806620E+03  0.25500000000E-02 0.  1.
    5000001    1    1    2    0    0  0.63912124281E+02 -0.53720718616E+02 -0.51640387600E+03  0.52874628924E+03  0.77000000000E+02 0.  0.
   -5000001    1    1    2    0    0 -0.63912124281E+02  0.53720718616E+02 -0.38706323858E+03  0.40338272881E+03  0.77000000000E+02 0.  0.
<mgrwt>
<rscale>  0 0.22937236E+03</rscale>
<asrwt>0</asrwt>
<pdfrwt beam="1">  1        2 0.13111397E+00 0.22937236E+03</pdfrwt>
<pdfrwt beam="2">  1       -2 0.20472794E-02 0.22937236E+03</pdfrwt>
<totfact> 0.24045647E+04</totfact>
</mgrwt>
</event>
<event>
 4    1  0.6853809E-004  0.2480105E+03  0.7818608E-02  0.1114569E+00
         -2   -1    0    0    0  501 -0.00000000000E+00  0.00000000000E+00  0.42630308131E+02  0.42630308207E+02  0.25500000000E-02 0. -1.
          2   -1    0    0  501    0  0.00000000000E+00 -0.00000000000E+00 -0.36071292352E+03  0.36071292353E+03  0.25500000000E-02 0.  1.
    5000001    1    1    2    0    0 -0.24538867124E+02 -0.73043508781E+02 -0.25540363882E+03  0.27766441778E+03  0.77000000000E+02 0.  0.
   -5000001    1    1    2    0    0  0.24538867124E+02  0.73043508781E+02 -0.62678976563E+02  0.12567881396E+03  0.77000000000E+02 0.  0.
<mgrwt>
<rscale>  0 0.24801051E+03</rscale>
<asrwt>0</asrwt>
<pdfrwt beam="1">  1        2 0.51530416E-01 0.24801051E+03</pdfrwt>
<pdfrwt beam="2">  1       -2 0.60900443E-02 0.24801051E+03</pdfrwt>
<totfact> 0.13815976E+04</totfact>
</mgrwt>
</event>
<event>
 4    1  0.6853809E-004  0.2677111E+03  0.7818608E-02  0.1102597E+00
         -2   -1    0    0    0  501 -0.00000000000E+00  0.00000000000E+00  0.74058842731E+02  0.74058842775E+02  0.25500000000E-02 0. -1.
          2   -1    0    0  501    0  0.00000000000E+00 -0.00000000000E+00 -0.24193333967E+03  0.24193333968E+03  0.25500000000E-02 0.  1.
    5000001    1    1    2    0    0  0.10232100625E+03 -0.38712911625E+02 -0.78655232319E+02  0.15518995914E+03  0.77000000000E+02 0.  0.
   -5000001    1    1    2    0    0 -0.10232100625E+03  0.38712911625E+02 -0.89219264615E+02  0.16080222332E+03  0.77000000000E+02 0.  0.
<mgrwt>
<rscale>  0 0.26771106E+03</rscale>
<asrwt>0</asrwt>
<pdfrwt beam="1">  1        2 0.34561905E-01 0.26771106E+03</pdfrwt>
<pdfrwt beam="2">  1       -2 0.10579835E-01 0.26771106E+03</pdfrwt>
<totfact> 0.89971008E+03</totfact>
</mgrwt>
</event>
<event>
 4    1  0.6853809E-004  0.3965002E+03  0.7818608E-02  0.1044998E+00
         -2   -1    0    0    0  501 -0.00000000000E+00  0.00000000000E+00  0.27515827523E+02  0.27515827641E+02  0.25500000000E-02 0. -1.
          2   -1    0    0  501    0  0.00000000000E+00 -0.00000000000E+00 -0.14283816610E+04  0.14283816610E+04  0.25500000000E-02 0.  1.
    5000001    1    1    2    0    0  0.62673972448E+02 -0.16754979157E+03 -0.56436823020E+03  0.59702718426E+03  0.77000000000E+02 0.  0.
   -5000001    1    1    2    0    0 -0.62673972448E+02  0.16754979157E+03 -0.83649760332E+03  0.85887030443E+03  0.77000000000E+02 0.  0.
<mgrwt>
<rscale>  0 0.39650021E+03</rscale>
<asrwt>0</asrwt>
<pdfrwt beam="1">  1        2 0.20405448E+00 0.39650021E+03</pdfrwt>
<pdfrwt beam="2">  1       -2 0.39308334E-02 0.39650021E+03</pdfrwt>
<totfact> 0.48075927E+03</totfact>
</mgrwt>
</event>
<event>
 4    1  0.6853809E-004  0.4399510E+03  0.7818608E-02  0.1030762E+00
         -2   -1    0    0    0  501 -0.00000000000E+00  0.00000000000E+00  0.15051819585E+02  0.15051819801E+02  0.25500000000E-02 0. -1.
          2   -1    0    0  501    0  0.00000000000E+00 -0.00000000000E+00 -0.32148416193E+04  0.32148416193E+04  0.25500000000E-02 0.  1.
    5000001    1    1    2    0    0 -0.16166247377E+03 -0.11674873301E+03 -0.19810299985E+04  0.19925295173E+04  0.77000000000E+02 0.  0.
   -5000001    1    1    2    0    0  0.16166247377E+03  0.11674873301E+03 -0.12187598011E+04  0.12373639218E+04  0.77000000000E+02 0.  0.
<mgrwt>
<rscale>  0 0.43995098E+03</rscale>
<asrwt>0</asrwt>
<pdfrwt beam="1">  1        2 0.45926265E+00 0.43995098E+03</pdfrwt>
<pdfrwt beam="2">  1       -2 0.21502620E-02 0.43995098E+03</pdfrwt>
<totfact> 0.14461166E+03</totfact>
</mgrwt>
</event>
<event>
 4    1  0.6853809E-004  0.4167573E+03  0.7818608E-02  0.1038127E+00
         -2   -1    0    0    0  501 -0.00000000000E+00  0.00000000000E+00  0.29339686451E+02  0.29339686562E+02  0.25500000000E-02 0. -1.
          2   -1    0    0  501    0  0.00000000000E+00 -0.00000000000E+00 -0.14799637150E+04  0.14799637150E+04  0.25500000000E-02 0.  1.
    5000001    1    1    2    0    0  0.12066285772E+03  0.14608832003E+03 -0.86978145752E+03  0.89350439637E+03  0.77000000000E+02 0.  0.
   -5000001    1    1    2    0    0 -0.12066285772E+03 -0.14608832003E+03 -0.58084257104E+03  0.61579900521E+03  0.77000000000E+02 0.  0.
<mgrwt>
<rscale>  0 0.41675735E+03</rscale>
<asrwt>0</asrwt>
<pdfrwt beam="1">  1        2 0.21142334E+00 0.41675735E+03</pdfrwt>
<pdfrwt beam="2">  1       -2 0.41913847E-02 0.41675735E+03</pdfrwt>
<totfact> 0.41009885E+03</totfact>
</mgrwt>
</event>
<event>
 4    1  0.6853809E-004  0.1894784E+03  0.7818608E-02  0.1158933E+00
          2   -1    0    0  501    0  0.00000000000E+00  0.00000000000E+00  0.17118499882E+03  0.17118499884E+03  0.25500000000E-02 0.  1.
         -2   -1    0    0    0  501 -0.00000000000E+00 -0.00000000000E+00 -0.52431697432E+02  0.52431697494E+02  0.25500000000E-02 0. -1.
    5000001    1    1    2    0    0  0.35494701145E+02  0.15211775137E+02  0.10591856779E+03  0.13652477766E+03  0.77000000000E+02 0.  0.
   -5000001    1    1    2    0    0 -0.35494701145E+02 -0.15211775137E+02  0.12834733600E+02  0.87091918677E+02  0.77000000000E+02 0.  0.
<mgrwt>
<rscale>  0 0.18947844E+03</rscale>
<asrwt>0</asrwt>
<pdfrwt beam="1">  1        2 0.24455000E-01 0.18947844E+03</pdfrwt>
<pdfrwt beam="2">  1       -2 0.74902425E-02 0.18947844E+03</pdfrwt>
<totfact> 0.22138441E+04</totfact>
</mgrwt>
</event>
<event>
 4    1  0.6853809E-004  0.2155028E+03  0.7818608E-02  0.1137281E+00
          2   -1    0    0  501    0  0.00000000000E+00  0.00000000000E+00  0.15200692065E+04  0.15200692065E+04  0.25500000000E-02 0.  1.
         -2   -1    0    0    0  501 -0.00000000000E+00 -0.00000000000E+00 -0.76380472784E+01  0.76380477040E+01  0.25500000000E-02 0. -1.
    5000001    1    1    2    0    0  0.67867924041E+02  0.10461053931E+02  0.97653210935E+03  0.98196713252E+03  0.77000000000E+02 0.  0.
   -5000001    1    1    2    0    0 -0.67867924041E+02 -0.10461053931E+02  0.53589904992E+03  0.54574012173E+03  0.77000000000E+02 0.  0.
<mgrwt>
<rscale>  0 0.21550277E+03</rscale>
<asrwt>0</asrwt>
<pdfrwt beam="1">  1        2 0.21715285E+00 0.21550277E+03</pdfrwt>
<pdfrwt beam="2">  1       -2 0.10911491E-02 0.21550277E+03</pdfrwt>
<totfact> 0.28229827E+04</totfact>
</mgrwt>
</event>
<event>
 4    1  0.6853809E-004  0.1887608E+03  0.7818608E-02  0.1159584E+00
         -2   -1    0    0    0  501 -0.00000000000E+00  0.00000000000E+00  0.13342494163E+02  0.13342494407E+02  0.25500000000E-02 0. -1.
          2   -1    0    0  501    0  0.00000000000E+00 -0.00000000000E+00 -0.66761547866E+03  0.66761547867E+03  0.25500000000E-02 0.  1.
    5000001    1    1    2    0    0  0.19685113813E+02 -0.50680491036E+02 -0.30997143625E+03  0.32398658486E+03  0.77000000000E+02 0.  0.
   -5000001    1    1    2    0    0 -0.19685113813E+02  0.50680491036E+02 -0.34430154825E+03  0.35697138822E+03  0.77000000000E+02 0.  0.
<mgrwt>
<rscale>  0 0.18876076E+03</rscale>
<asrwt>0</asrwt>
<pdfrwt beam="1">  1        2 0.95373619E-01 0.18876076E+03</pdfrwt>
<pdfrwt beam="2">  1       -2 0.19060710E-02 0.18876076E+03</pdfrwt>
<totfact> 0.38845738E+04</totfact>
</mgrwt>
</event>
<event>
 4    1  0.6853809E-004  0.5697234E+03  0.7818608E-02  0.9970291E-01
         -2   -1    0    0    0  501 -0.00000000000E+00  0.00000000000E+00  0.58254572677E+02  0.58254572733E+02  0.25500000000E-02 0. -1.
          2   -1    0    0  501    0  0.00000000000E+00 -0.00000000000E+00 -0.13929583017E+04  0.13929583017E+04  0.25500000000E-02 0.  1.
    5000001    1    1    2    0    0 -0.23217598211E+03  0.94521026342E+01 -0.29627671717E+03  0.38432267959E+03  0.77000000000E+02 0.  0.
   -5000001    1    1    2    0    0  0.23217598211E+03 -0.94521026342E+01 -0.10384270119E+04  0.10668901949E+04  0.77000000000E+02 0.  0.
<mgrwt>
<rscale>  0 0.56972341E+03</rscale>
<asrwt>0</asrwt>
<pdfrwt beam="1">  1        2 0.19899402E+00 0.56972341E+03</pdfrwt>
<pdfrwt beam="2">  1       -2 0.83220827E-02 0.56972341E+03</pdfrwt>
<totfact> 0.15603731E+03</totfact>
</mgrwt>
</event>
<event>
 4    1  0.6853809E-004  0.3745295E+03  0.7818608E-02  0.1052974E+00
         -2   -1    0    0    0  501 -0.00000000000E+00  0.00000000000E+00  0.13651695749E+02  0.13651695987E+02  0.25500000000E-02 0. -1.
          2   -1    0    0  501    0  0.00000000000E+00 -0.00000000000E+00 -0.25687709565E+04  0.25687709565E+04  0.25500000000E-02 0.  1.
    5000001    1    1    2    0    0  0.11145066550E+03  0.82114126708E+02 -0.58890742056E+03  0.60984008611E+03  0.77000000000E+02 0.  0.
   -5000001    1    1    2    0    0 -0.11145066550E+03 -0.82114126708E+02 -0.19662118402E+04  0.19725825664E+04  0.77000000000E+02 0.  0.
<mgrwt>
<rscale>  0 0.37452946E+03</rscale>
<asrwt>0</asrwt>
<pdfrwt beam="1">  1        2 0.36696697E+00 0.37452946E+03</pdfrwt>
<pdfrwt beam="2">  1       -2 0.19502439E-02 0.37452946E+03</pdfrwt>
<totfact> 0.36991151E+03</totfact>
</mgrwt>
</event>
<event>
 4    1  0.6853809E-004  0.3797271E+03  0.7818608E-02  0.1051035E+00
          2   -1    0    0  501    0  0.00000000000E+00  0.00000000000E+00  0.10631162507E+04  0.10631162507E+04  0.25500000000E-02 0.  1.
         -2   -1    0    0    0  501 -0.00000000000E+00 -0.00000000000E+00 -0.33908027398E+02  0.33908027494E+02  0.25500000000E-02 0. -1.
    5000001    1    1    2    0    0 -0.85886960897E+01  0.17271280756E+03  0.47217489077E+03  0.50870581584E+03  0.77000000000E+02 0.  0.
   -5000001    1    1    2    0    0  0.85886960897E+01 -0.17271280756E+03  0.55703333254E+03  0.58831846236E+03  0.77000000000E+02 0.  0.
<mgrwt>
<rscale>  0 0.37972714E+03</rscale>
<asrwt>0</asrwt>
<pdfrwt beam="1">  1        2 0.15187374E+00 0.37972714E+03</pdfrwt>
<pdfrwt beam="2">  1       -2 0.48440042E-02 0.37972714E+03</pdfrwt>
<totfact> 0.55276847E+03</totfact>
</mgrwt>
</event>
<event>
 4    1  0.6853809E-004  0.3356225E+03  0.7818608E-02  0.1068676E+00
         -2   -1    0    0    0  501 -0.00000000000E+00  0.00000000000E+00  0.42836941291E+03  0.42836941292E+03  0.25500000000E-02 0. -1.
          2   -1    0    0  501    0  0.00000000000E+00 -0.00000000000E+00 -0.65739075398E+02  0.65739075447E+02  0.25500000000E-02 0.  1.
    5000001    1    1    2    0    0 -0.34045347850E+02  0.11614992594E+03  0.30950545408E+03  0.34113416292E+03  0.77000000000E+02 0.  0.
   -5000001    1    1    2    0    0  0.34045347850E+02 -0.11614992594E+03  0.53124883435E+02  0.15297432545E+03  0.77000000000E+02 0.  0.
<mgrwt>
<rscale>  0 0.33562246E+03</rscale>
<asrwt>0</asrwt>
<pdfrwt beam="1">  1        2 0.93912964E-02 0.33562246E+03</pdfrwt>
<pdfrwt beam="2">  1       -2 0.61195631E-01 0.33562246E+03</pdfrwt>
<totfact> 0.17682277E+03</totfact>
</mgrwt>
</event>
<event>
 4    1  0.6853809E-004  0.2985414E+03  0.7818608E-02  0.1085972E+00
         -2   -1    0    0    0  501 -0.00000000000E+00  0.00000000000E+00  0.25082814342E+02  0.25082814472E+02  0.25500000000E-02 0. -1.
          2   -1    0    0  501    0  0.00000000000E+00 -0.00000000000E+00 -0.88832675198E+03  0.88832675199E+03  0.25500000000E-02 0.  1.
    5000001    1    1    2    0    0 -0.82638563626E+02  0.62194503504E+02 -0.66171025535E+03  0.67415632497E+03  0.77000000000E+02 0.  0.
   -5000001    1    1    2    0    0  0.82638563626E+02 -0.62194503504E+02 -0.20153368229E+03  0.23925324149E+03  0.77000000000E+02 0.  0.
<mgrwt>
<rscale>  0 0.29854135E+03</rscale>
<asrwt>0</asrwt>
<pdfrwt beam="1">  1        2 0.12690380E+00 0.29854135E+03</pdfrwt>
<pdfrwt beam="2">  1       -2 0.35832598E-02 0.29854135E+03</pdfrwt>
<totfact> 0.11068852E+04</totfact>
</mgrwt>
</event>
<event>
 4    1  0.6853809E-004  0.1939028E+03  0.7818608E-02  0.1154988E+00
         -2   -1    0    0    0  501 -0.00000000000E+00  0.00000000000E+00  0.82881072140E+02  0.82881072179E+02  0.25500000000E-02 0. -1.
          2   -1    0    0  501    0  0.00000000000E+00 -0.00000000000E+00 -0.11341043502E+03  0.11341043505E+03  0.25500000000E-02 0.  1.
    5000001    1    1    2    0    0  0.41414713171E+02 -0.39420921843E+02 -0.89863538814E+00  0.95911391876E+02  0.77000000000E+02 0.  0.
   -5000001    1    1    2    0    0 -0.41414713171E+02  0.39420921843E+02 -0.29630727488E+02  0.10038011535E+03  0.77000000000E+02 0.  0.
<mgrwt>
<rscale>  0 0.19390285E+03</rscale>
<asrwt>0</asrwt>
<pdfrwt beam="1">  1        2 0.16201490E-01 0.19390285E+03</pdfrwt>
<pdfrwt beam="2">  1       -2 0.11840153E-01 0.19390285E+03</pdfrwt>
<totfact> 0.17249063E+04</totfact>
</mgrwt>
</event>
<event>
 4    1  0.6853809E-004  0.2874963E+03  0.7818608E-02  0.1091664E+00
         -2   -1    0    0    0  501 -0.00000000000E+00  0.00000000000E+00  0.80897965276E+02  0.80897965317E+02  0.25500000000E-02 0. -1.
          2   -1    0    0  501    0  0.00000000000E+00 -0.00000000000E+00 -0.25542704185E+03  0.25542704186E+03  0.25500000000E-02 0.  1.
    5000001    1    1    2    0    0  0.24768348525E+02  0.84716712294E+02 -0.18474914026E+03  0.21875017087E+03  0.77000000000E+02 0.  0.
   -5000001    1    1    2    0    0 -0.24768348525E+02 -0.84716712294E+02  0.10220063685E+02  0.11757483631E+03  0.77000000000E+02 0.  0.
<mgrwt>
<rscale>  0 0.28749628E+03</rscale>
<asrwt>0</asrwt>
<pdfrwt beam="1">  1        2 0.36489577E-01 0.28749628E+03</pdfrwt>
<pdfrwt beam="2">  1       -2 0.11556852E-01 0.28749628E+03</pdfrwt>
<totfact> 0.73838331E+03</totfact>
</mgrwt>
</event>
<event>
 4    1  0.6853809E-004  0.2538073E+03  0.7818608E-02  0.1110922E+00
          2   -1    0    0  501    0  0.00000000000E+00  0.00000000000E+00  0.54756825802E+03  0.54756825803E+03  0.25500000000E-02 0.  1.
         -2   -1    0    0    0  501 -0.00000000000E+00 -0.00000000000E+00 -0.29411016623E+02  0.29411016733E+02  0.25500000000E-02 0. -1.
    5000001    1    1    2    0    0 -0.70949639011E+02  0.68551573392E+02  0.21126531793E+03  0.24555081766E+03  0.77000000000E+02 0.  0.
   -5000001    1    1    2    0    0  0.70949639011E+02 -0.68551573392E+02  0.30689192347E+03  0.33142845710E+03  0.77000000000E+02 0.  0.
<mgrwt>
<rscale>  0 0.25380732E+03</rscale>
<asrwt>0</asrwt>
<pdfrwt beam="1">  1        2 0.78224036E-01 0.25380732E+03</pdfrwt>
<pdfrwt beam="2">  1       -2 0.42015739E-02 0.25380732E+03</pdfrwt>
<totfact> 0.15411696E+04</totfact>
</mgrwt>
</event>
<event>
 4    1  0.6853809E-004  0.1950435E+03  0.7818608E-02  0.1153989E+00
         -2   -1    0    0    0  501 -0.00000000000E+00  0.00000000000E+00  0.24960797009E+02  0.24960797139E+02  0.25500000000E-02 0. -1.
          2   -1    0    0  501    0  0.00000000000E+00 -0.00000000000E+00 -0.38101716873E+03  0.38101716874E+03  0.25500000000E-02 0.  1.
    5000001    1    1    2    0    0 -0.42292917443E+02  0.39926054145E+02 -0.14868667011E+03  0.17725548379E+03  0.77000000000E+02 0.  0.
   -5000001    1    1    2    0    0  0.42292917443E+02 -0.39926054145E+02 -0.20736970161E+03  0.22872248208E+03  0.77000000000E+02 0.  0.
<mgrwt>
<rscale>  0 0.19504351E+03</rscale>
<asrwt>0</asrwt>
<pdfrwt beam="1">  1        2 0.54431021E-01 0.19504351E+03</pdfrwt>
<pdfrwt beam="2">  1       -2 0.35658284E-02 0.19504351E+03</pdfrwt>
<totfact> 0.28754473E+04</totfact>
</mgrwt>
</event>
<event>
 4    1  0.6853809E-004  0.3009005E+03  0.7818608E-02  0.1084791E+00
          2   -1    0    0  501    0  0.00000000000E+00  0.00000000000E+00  0.28929130854E+03  0.28929130855E+03  0.25500000000E-02 0.  1.
         -2   -1    0    0    0  501 -0.00000000000E+00 -0.00000000000E+00 -0.78243877800E+02  0.78243877841E+02  0.25500000000E-02 0. -1.
    5000001    1    1    2    0    0 -0.26282135049E+02 -0.10676507335E+03  0.22530255944E+02  0.13611077821E+03  0.77000000000E+02 0.  0.
   -5000001    1    1    2    0    0  0.26282135049E+02  0.10676507335E+03  0.18851717480E+03  0.23142440819E+03  0.77000000000E+02 0.  0.
<mgrwt>
<rscale>  0 0.30090047E+03</rscale>
<asrwt>0</asrwt>
<pdfrwt beam="1">  1        2 0.41327329E-01 0.30090047E+03</pdfrwt>
<pdfrwt beam="2">  1       -2 0.11177697E-01 0.30090047E+03</pdfrwt>
<totfact> 0.68199751E+03</totfact>
</mgrwt>
</event>
<event>
 4    1  0.6853809E-004  0.5316396E+03  0.7818608E-02  0.1005835E+00
         -2   -1    0    0    0  501 -0.00000000000E+00  0.00000000000E+00  0.28655757824E+02  0.28655757937E+02  0.25500000000E-02 0. -1.
          2   -1    0    0  501    0  0.00000000000E+00 -0.00000000000E+00 -0.24658274884E+04  0.24658274885E+04  0.25500000000E-02 0.  1.
    5000001    1    1    2    0    0  0.38435796968E+02 -0.24199108719E+03 -0.15400571505E+04  0.15613270072E+04  0.77000000000E+02 0.  0.
   -5000001    1    1    2    0    0 -0.38435796968E+02  0.24199108719E+03 -0.89711458015E+03  0.93315623916E+03  0.77000000000E+02 0.  0.
<mgrwt>
<rscale>  0 0.53163956E+03</rscale>
<asrwt>0</asrwt>
<pdfrwt beam="1">  1        2 0.35226094E+00 0.53163956E+03</pdfrwt>
<pdfrwt beam="2">  1       -2 0.40936813E-02 0.53163956E+03</pdfrwt>
<totfact> 0.13524546E+03</totfact>
</mgrwt>
</event>
<event>
 4    1  0.6853809E-004  0.2160958E+03  0.7818608E-02  0.1136828E+00
          2   -1    0    0  501    0  0.00000000000E+00  0.00000000000E+00  0.88074006853E+02  0.88074006890E+02  0.25500000000E-02 0.  1.
         -2   -1    0    0    0  501 -0.00000000000E+00 -0.00000000000E+00 -0.13255154932E+03  0.13255154935E+03  0.25500000000E-02 0. -1.
    5000001    1    1    2    0    0  0.50445449516E+02 -0.48491940589E+02  0.75119676179E+01  0.10431510598E+03  0.77000000000E+02 0.  0.
   -5000001    1    1    2    0    0 -0.50445449516E+02  0.48491940589E+02 -0.51989510087E+02  0.11631045025E+03  0.77000000000E+02 0.  0.
<mgrwt>
<rscale>  0 0.21609578E+03</rscale>
<asrwt>0</asrwt>
<pdfrwt beam="1">  1        2 0.12582001E-01 0.21609578E+03</pdfrwt>
<pdfrwt beam="2">  1       -2 0.18935936E-01 0.21609578E+03</pdfrwt>
<totfact> 0.10832653E+04</totfact>
</mgrwt>
</event>
<event>
 4    1  0.6853809E-004  0.2145009E+03  0.7818608E-02  0.1138051E+00
          2   -1    0    0  501    0  0.00000000000E+00  0.00000000000E+00  0.12549048733E+03  0.12549048735E+03  0.25500000000E-02 0.  1.
         -2   -1    0    0    0  501 -0.00000000000E+00 -0.00000000000E+00 -0.91661598780E+02  0.91661598816E+02  0.25500000000E-02 0. -1.
    5000001    1    1    2    0    0 -0.69097568214E+02 -0.11082353764E+02  0.43242927742E+02  0.11267760779E+03  0.77000000000E+02 0.  0.
   -5000001    1    1    2    0    0  0.69097568214E+02  0.11082353764E+02 -0.94140391954E+01  0.10447447838E+03  0.77000000000E+02 0.  0.
<mgrwt>
<rscale>  0 0.21450090E+03</rscale>
<asrwt>0</asrwt>
<pdfrwt beam="1">  1        2 0.17927213E-01 0.21450090E+03</pdfrwt>
<pdfrwt beam="2">  1       -2 0.13094514E-01 0.21450090E+03</pdfrwt>
<totfact> 0.13129151E+04</totfact>
</mgrwt>
</event>
<event>
 4    1  0.6853809E-004  0.2845978E+03  0.7818608E-02  0.1093204E+00
         -2   -1    0    0    0  501 -0.00000000000E+00  0.00000000000E+00  0.14486394896E+03  0.14486394898E+03  0.25500000000E-02 0. -1.
          2   -1    0    0  501    0  0.00000000000E+00 -0.00000000000E+00 -0.13977929710E+03  0.13977929713E+03  0.25500000000E-02 0.  1.
    5000001    1    1    2    0    0 -0.86469509894E+01  0.11273016204E+03  0.41754727241E+02  0.14302208376E+03  0.77000000000E+02 0.  0.
   -5000001    1    1    2    0    0  0.86469509894E+01 -0.11273016204E+03 -0.36670075387E+02  0.14162116235E+03  0.77000000000E+02 0.  0.
<mgrwt>
<rscale>  0 0.28459783E+03</rscale>
<asrwt>0</asrwt>
<pdfrwt beam="1">  1        2 0.19968471E-01 0.28459783E+03</pdfrwt>
<pdfrwt beam="2">  1       -2 0.20694850E-01 0.28459783E+03</pdfrwt>
<totfact> 0.54814700E+03</totfact>
</mgrwt>
</event>
<event>
 4    1  0.6853809E-004  0.2188779E+03  0.7818608E-02  0.1134722E+00
          2   -1    0    0  501    0  0.00000000000E+00  0.00000000000E+00  0.98885714336E+03  0.98885714336E+03  0.25500000000E-02 0.  1.
         -2   -1    0    0    0  501 -0.00000000000E+00 -0.00000000000E+00 -0.12111844374E+02  0.12111844643E+02  0.25500000000E-02 0. -1.
    5000001    1    1    2    0    0 -0.22227338996E+02 -0.72055387934E+02  0.40137986031E+03  0.41559695113E+03  0.77000000000E+02 0.  0.
   -5000001    1    1    2    0    0  0.22227338996E+02  0.72055387934E+02  0.57536543868E+03  0.58537203687E+03  0.77000000000E+02 0.  0.
<mgrwt>
<rscale>  0 0.21887790E+03</rscale>
<asrwt>0</asrwt>
<pdfrwt beam="1">  1        2 0.14126535E+00 0.21887790E+03</pdfrwt>
<pdfrwt beam="2">  1       -2 0.17302630E-02 0.21887790E+03</pdfrwt>
<totfact> 0.27793200E+04</totfact>
</mgrwt>
</event>
<event>
 4    1  0.6853809E-004  0.3877204E+03  0.7818608E-02  0.1048117E+00
         -2   -1    0    0    0  501 -0.00000000000E+00  0.00000000000E+00  0.15819343096E+03  0.15819343098E+03  0.25500000000E-02 0.  1.
          2   -1    0    0  501    0  0.00000000000E+00 -0.00000000000E+00 -0.23756849736E+03  0.23756849738E+03  0.25500000000E-02 0. -1.
    5000001    1    1    2    0    0 -0.10357012970E+03 -0.10989875733E+03 -0.13570372586E+03  0.21713822750E+03  0.77000000000E+02 0.  0.
   -5000001    1    1    2    0    0  0.10357012970E+03  0.10989875733E+03  0.56328659456E+02  0.17862370085E+03  0.77000000000E+02 0.  0.
<mgrwt>
<rscale>  0 0.38772039E+03</rscale>
<asrwt>0</asrwt>
<pdfrwt beam="1">  1        2 0.33938357E-01 0.38772039E+03</pdfrwt>
<pdfrwt beam="2">  1       -2 0.22599062E-01 0.38772039E+03</pdfrwt>
<totfact> 0.26176607E+03</totfact>
</mgrwt>
</event>
<event>
 4    1  0.6853809E-004  0.2622709E+03  0.7818608E-02  0.1105786E+00
          2   -1    0    0  501    0  0.00000000000E+00  0.00000000000E+00  0.15348011250E+04  0.15348011250E+04  0.25500000000E-02 0.  1.
         -2   -1    0    0    0  501 -0.00000000000E+00 -0.00000000000E+00 -0.11204389113E+02  0.11204389403E+02  0.25500000000E-02 0. -1.
    5000001    1    1    2    0    0 -0.16600766499E+02  0.49922036084E+02  0.13052526979E+04  0.13085799175E+04  0.77000000000E+02 0.  0.
   -5000001    1    1    2    0    0  0.16600766499E+02 -0.49922036084E+02  0.21834403795E+03  0.23742559686E+03  0.77000000000E+02 0.  0.
<mgrwt>
<rscale>  0 0.26227092E+03</rscale>
<asrwt>0</asrwt>
<pdfrwt beam="1">  1        2 0.21925730E+00 0.26227092E+03</pdfrwt>
<pdfrwt beam="2">  1       -2 0.16006271E-02 0.26227092E+03</pdfrwt>
<totfact> 0.16034467E+04</totfact>
</mgrwt>
</event>
<event>
 4    1  0.6853809E-004  0.4500057E+03  0.7818608E-02  0.1027720E+00
          2   -1    0    0  501    0  0.00000000000E+00  0.00000000000E+00  0.72462496813E+03  0.72462496813E+03  0.25500000000E-02 0. -1.
         -2   -1    0    0    0  501 -0.00000000000E+00 -0.00000000000E+00 -0.69865510725E+02  0.69865510772E+02  0.25500000000E-02 0.  1.
    5000001    1    1    2    0    0  0.15571986571E+03 -0.14062602464E+03  0.28158049625E+03  0.35950094750E+03  0.77000000000E+02 0.  0.
   -5000001    1    1    2    0    0 -0.15571986571E+03  0.14062602464E+03  0.37317896115E+03  0.43498953140E+03  0.77000000000E+02 0.  0.
<mgrwt>
<rscale>  0 0.45000575E+03</rscale>
<asrwt>0</asrwt>
<pdfrwt beam="1">  1        2 0.10351786E+00 0.45000575E+03</pdfrwt>
<pdfrwt beam="2">  1       -2 0.99807869E-02 0.45000575E+03</pdfrwt>
<totfact> 0.29492259E+03</totfact>
</mgrwt>
</event>
<event>
 4    1  0.6853809E-004  0.2788935E+03  0.7818608E-02  0.1096295E+00
         -2   -1    0    0    0  501 -0.00000000000E+00  0.00000000000E+00  0.36424187303E+02  0.36424187392E+02  0.25500000000E-02 0. -1.
          2   -1    0    0  501    0  0.00000000000E+00 -0.00000000000E+00 -0.53385944927E+03  0.53385944928E+03  0.25500000000E-02 0.  1.
    5000001    1    1    2    0    0 -0.84995951524E+02 -0.64356049373E+02 -0.15389532880E+03  0.20243217405E+03  0.77000000000E+02 0.  0.
   -5000001    1    1    2    0    0  0.84995951524E+02  0.64356049373E+02 -0.34353993317E+03  0.36785146262E+03  0.77000000000E+02 0.  0.
<mgrwt>
<rscale>  0 0.27889350E+03</rscale>
<asrwt>0</asrwt>
<pdfrwt beam="1">  1        2 0.76265631E-01 0.27889350E+03</pdfrwt>
<pdfrwt beam="2">  1       -2 0.52034556E-02 0.27889350E+03</pdfrwt>
<totfact> 0.11520367E+04</totfact>
</mgrwt>
</event>
<event>
 4    1  0.6853809E-004  0.2014306E+03  0.7818608E-02  0.1148538E+00
          2   -1    0    0  501    0  0.00000000000E+00  0.00000000000E+00  0.45734850574E+03  0.45734850575E+03  0.25500000000E-02 0.  1.
         -2   -1    0    0    0  501 -0.00000000000E+00 -0.00000000000E+00 -0.22179094693E+02  0.22179094839E+02  0.25500000000E-02 0. -1.
    5000001    1    1    2    0    0  0.25319872303E+02 -0.44361635763E+02  0.31297334078E+03  0.32632861152E+03  0.77000000000E+02 0.  0.
   -5000001    1    1    2    0    0 -0.25319872303E+02  0.44361635763E+02  0.12219607027E+03  0.15319898907E+03  0.77000000000E+02 0.  0.
<mgrwt>
<rscale>  0 0.20143064E+03</rscale>
<asrwt>0</asrwt>
<pdfrwt beam="1">  1        2 0.65335496E-01 0.20143064E+03</pdfrwt>
<pdfrwt beam="2">  1       -2 0.31684424E-02 0.20143064E+03</pdfrwt>
<totfact> 0.28223008E+04</totfact>
</mgrwt>
</event>
<event>
 4    1  0.6853809E-004  0.4591293E+03  0.7818608E-02  0.1025034E+00
         -2   -1    0    0    0  501 -0.00000000000E+00  0.00000000000E+00  0.33836291526E+03  0.33836291527E+03  0.25500000000E-02 0. -1.
          2   -1    0    0  501    0  0.00000000000E+00 -0.00000000000E+00 -0.15574974264E+03  0.15574974266E+03  0.25500000000E-02 0.  1.
    5000001    1    1    2    0    0  0.21508944621E+03 -0.15259146897E+02  0.10914110530E+03  0.25364757499E+03  0.77000000000E+02 0.  0.
   -5000001    1    1    2    0    0 -0.21508944621E+03  0.15259146897E+02  0.73472067324E+02  0.24046508294E+03  0.77000000000E+02 0.  0.
<mgrwt>
<rscale>  0 0.45912934E+03</rscale>
<asrwt>0</asrwt>
<pdfrwt beam="1">  1        2 0.22249964E-01 0.45912934E+03</pdfrwt>
<pdfrwt beam="2">  1       -2 0.48337558E-01 0.45912934E+03</pdfrwt>
<totfact> 0.10178808E+03</totfact>
</mgrwt>
</event>
<event>
 4    1  0.6853809E-004  0.3151886E+03  0.7818608E-02  0.1077885E+00
         -2   -1    0    0    0  501 -0.00000000000E+00  0.00000000000E+00  0.22707782236E+03  0.22707782237E+03  0.25500000000E-02 0. -1.
          2   -1    0    0  501    0  0.00000000000E+00 -0.00000000000E+00 -0.10937201957E+03  0.10937201960E+03  0.25500000000E-02 0.  1.
    5000001    1    1    2    0    0  0.10440306154E+03 -0.87390029893E+02  0.79384252515E+02  0.17540774251E+03  0.77000000000E+02 0.  0.
   -5000001    1    1    2    0    0 -0.10440306154E+03  0.87390029893E+02  0.38321550275E+02  0.16104209946E+03  0.77000000000E+02 0.  0.
<mgrwt>
<rscale>  0 0.31518858E+03</rscale>
<asrwt>0</asrwt>
<pdfrwt beam="1">  1        2 0.15624574E-01 0.31518858E+03</pdfrwt>
<pdfrwt beam="2">  1       -2 0.32439689E-01 0.31518858E+03</pdfrwt>
<totfact> 0.32890726E+03</totfact>
</mgrwt>
</event>
<event>
 4    1  0.6853809E-004  0.2598852E+03  0.7818608E-02  0.1107212E+00
         -2   -1    0    0    0  501 -0.00000000000E+00  0.00000000000E+00  0.32650403765E+02  0.32650403865E+02  0.25500000000E-02 0. -1.
          2   -1    0    0  501    0  0.00000000000E+00 -0.00000000000E+00 -0.51714765436E+03  0.51714765436E+03  0.25500000000E-02 0.  1.
    5000001    1    1    2    0    0  0.78478004606E+02  0.34123549253E+02 -0.36975923818E+03  0.38726490680E+03  0.77000000000E+02 0.  0.
   -5000001    1    1    2    0    0 -0.78478004606E+02 -0.34123549253E+02 -0.11473801241E+03  0.16253315143E+03  0.77000000000E+02 0.  0.
<mgrwt>
<rscale>  0 0.25988520E+03</rscale>
<asrwt>0</asrwt>
<pdfrwt beam="1">  1        2 0.73878231E-01 0.25988520E+03</pdfrwt>
<pdfrwt beam="2">  1       -2 0.46643437E-02 0.25988520E+03</pdfrwt>
<totfact> 0.14046023E+04</totfact>
</mgrwt>
</event>
<event>
 4    1  0.6853809E-004  0.3119850E+03  0.7818608E-02  0.1079398E+00
          2   -1    0    0  501    0  0.00000000000E+00  0.00000000000E+00  0.16675792372E+04  0.16675792372E+04  0.25500000000E-02 0.  1.
         -2   -1    0    0    0  501 -0.00000000000E+00 -0.00000000000E+00 -0.14592204893E+02  0.14592205115E+02  0.25500000000E-02 0. -1.
    5000001    1    1    2    0    0 -0.51675076349E+02 -0.12250531152E+03  0.97185253906E+03  0.98392287429E+03  0.77000000000E+02 0.  0.
   -5000001    1    1    2    0    0  0.51675076349E+02  0.12250531152E+03  0.68113449328E+03  0.69824856806E+03  0.77000000000E+02 0.  0.
<mgrwt>
<rscale>  0 0.31198499E+03</rscale>
<asrwt>0</asrwt>
<pdfrwt beam="1">  1        2 0.23822557E+00 0.31198499E+03</pdfrwt>
<pdfrwt beam="2">  1       -2 0.20846010E-02 0.31198499E+03</pdfrwt>
<totfact> 0.93748537E+03</totfact>
</mgrwt>
</event>
<event>
 4    1  0.6853809E-004  0.1986256E+03  0.7818608E-02  0.1150904E+00
         -2   -1    0    0    0  501 -0.00000000000E+00  0.00000000000E+00  0.35614165273E+02  0.35614165364E+02  0.25500000000E-02 0. -1.
          2   -1    0    0  501    0  0.00000000000E+00 -0.00000000000E+00 -0.27694133145E+03  0.27694133146E+03  0.25500000000E-02 0.  1.
    5000001    1    1    2    0    0 -0.91552140039E+01  0.58912084372E+02 -0.15132167336E+03  0.17994916076E+03  0.77000000000E+02 0.  0.
   -5000001    1    1    2    0    0  0.91552140039E+01 -0.58912084372E+02 -0.90005492814E+02  0.13260633607E+03  0.77000000000E+02 0.  0.
<mgrwt>
<rscale>  0 0.19862562E+03</rscale>
<asrwt>0</asrwt>
<pdfrwt beam="1">  1        2 0.39563046E-01 0.19862562E+03</pdfrwt>
<pdfrwt beam="2">  1       -2 0.50877381E-02 0.19862562E+03</pdfrwt>
<totfact> 0.23764453E+04</totfact>
</mgrwt>
</event>
<event>
 4    1  0.6853809E-004  0.1954510E+03  0.7818608E-02  0.1153635E+00
          2   -1    0    0  501    0  0.00000000000E+00  0.00000000000E+00  0.71931840599E+03  0.71931840600E+03  0.25500000000E-02 0.  1.
         -2   -1    0    0    0  501 -0.00000000000E+00 -0.00000000000E+00 -0.13276830564E+02  0.13276830808E+02  0.25500000000E-02 0. -1.
    5000001    1    1    2    0    0 -0.40739114001E+02  0.42623726751E+02  0.39812606653E+03  0.40976801040E+03  0.77000000000E+02 0.  0.
   -5000001    1    1    2    0    0  0.40739114001E+02 -0.42623726751E+02  0.30791550889E+03  0.32282722641E+03  0.77000000000E+02 0.  0.
<mgrwt>
<rscale>  0 0.19545095E+03</rscale>
<asrwt>0</asrwt>
<pdfrwt beam="1">  1        2 0.10275979E+00 0.19545095E+03</pdfrwt>
<pdfrwt beam="2">  1       -2 0.18966898E-02 0.19545095E+03</pdfrwt>
<totfact> 0.35955002E+04</totfact>
</mgrwt>
</event>
<event>
 4    1  0.6853809E-004  0.2096807E+03  0.7818608E-02  0.1141819E+00
          2   -1    0    0  501    0  0.00000000000E+00  0.00000000000E+00  0.49954773354E+02  0.49954773419E+02  0.25500000000E-02 0.  1.
         -2   -1    0    0    0  501 -0.00000000000E+00 -0.00000000000E+00 -0.22002902304E+03  0.22002902305E+03  0.25500000000E-02 0. -1.
    5000001    1    1    2    0    0 -0.62946383901E+02 -0.25924584103E+02 -0.11168034239E+03  0.15177559153E+03  0.77000000000E+02 0.  0.
   -5000001    1    1    2    0    0  0.62946383901E+02  0.25924584103E+02 -0.58393907296E+02  0.11820820495E+03  0.77000000000E+02 0.  0.
<mgrwt>
<rscale>  0 0.20968071E+03</rscale>
<asrwt>0</asrwt>
<pdfrwt beam="1">  1        2 0.71363963E-02 0.20968071E+03</pdfrwt>
<pdfrwt beam="2">  1       -2 0.31432717E-01 0.20968071E+03</pdfrwt>
<totfact> 0.89986040E+03</totfact>
</mgrwt>
</event>
<event>
 4    1  0.6853809E-004  0.1990024E+03  0.7818608E-02  0.1150583E+00
          2   -1    0    0  501    0  0.00000000000E+00  0.00000000000E+00  0.47858947734E+03  0.47858947734E+03  0.25500000000E-02 0.  1.
         -2   -1    0    0    0  501 -0.00000000000E+00 -0.00000000000E+00 -0.20686808207E+02  0.20686808364E+02  0.25500000000E-02 0. -1.
    5000001    1    1    2    0    0 -0.24930742632E+02  0.53280985674E+02  0.28567032805E+03  0.30165699344E+03  0.77000000000E+02 0.  0.
   -5000001    1    1    2    0    0  0.24930742632E+02 -0.53280985674E+02  0.17223234108E+03  0.19761929226E+03  0.77000000000E+02 0.  0.
<mgrwt>
<rscale>  0 0.19900240E+03</rscale>
<asrwt>0</asrwt>
<pdfrwt beam="1">  1        2 0.68369923E-01 0.19900240E+03</pdfrwt>
<pdfrwt beam="2">  1       -2 0.29552584E-02 0.19900240E+03</pdfrwt>
<totfact> 0.29753588E+04</totfact>
</mgrwt>
</event>
<event>
 4    1  0.6853809E-004  0.4961823E+03  0.7818608E-02  0.1014780E+00
         -2   -1    0    0    0  501 -0.00000000000E+00  0.00000000000E+00  0.64682910221E+02  0.64682910271E+02  0.25500000000E-02 0. -1.
          2   -1    0    0  501    0  0.00000000000E+00 -0.00000000000E+00 -0.95155302318E+03  0.95155302318E+03  0.25500000000E-02 0.  1.
    5000001    1    1    2    0    0  0.94978221772E+02 -0.20957765161E+03 -0.54939509460E+03  0.60058939771E+03  0.77000000000E+02 0.  0.
   -5000001    1    1    2    0    0 -0.94978221772E+02  0.20957765161E+03 -0.33747501836E+03  0.41564653575E+03  0.77000000000E+02 0.  0.
<mgrwt>
<rscale>  0 0.49618230E+03</rscale>
<asrwt>0</asrwt>
<pdfrwt beam="1">  1        2 0.13593614E+00 0.49618230E+03</pdfrwt>
<pdfrwt beam="2">  1       -2 0.92404163E-02 0.49618230E+03</pdfrwt>
<totfact> 0.23521884E+03</totfact>
</mgrwt>
</event>
<event>
 4    1  0.6853809E-004  0.2573732E+03  0.7818608E-02  0.1108732E+00
         -2   -1    0    0    0  501 -0.00000000000E+00  0.00000000000E+00  0.18379315666E+04  0.18379315666E+04  0.25500000000E-02 0. -1.
          2   -1    0    0  501    0  0.00000000000E+00 -0.00000000000E+00 -0.90102586128E+01  0.90102589736E+01  0.25500000000E-02 0.  1.
    5000001    1    1    2    0    0 -0.87052962919E+02  0.11010413191E+02  0.13030191964E+04  0.13082383092E+04  0.77000000000E+02 0.  0.
   -5000001    1    1    2    0    0  0.87052962919E+02 -0.11010413191E+02  0.52590211164E+03  0.53870351639E+03  0.77000000000E+02 0.  0.
<mgrwt>
<rscale>  0 0.25737318E+03</rscale>
<asrwt>0</asrwt>
<pdfrwt beam="1">  1        2 0.12871790E-02 0.25737318E+03</pdfrwt>
<pdfrwt beam="2">  1       -2 0.26256182E+00 0.25737318E+03</pdfrwt>
<totfact> 0.61250497E+02</totfact>
</mgrwt>
</event>
<event>
 4    1  0.6853809E-004  0.2170225E+03  0.7818608E-02  0.1136123E+00
          2   -1    0    0  501    0  0.00000000000E+00  0.00000000000E+00  0.77976727489E+03  0.77976727489E+03  0.25500000000E-02 0.  1.
         -2   -1    0    0    0  501 -0.00000000000E+00 -0.00000000000E+00 -0.15100259129E+02  0.15100259344E+02  0.25500000000E-02 0. -1.
    5000001    1    1    2    0    0  0.49700935895E+02  0.52453124545E+02  0.29082886339E+03  0.30940578708E+03  0.77000000000E+02 0.  0.
   -5000001    1    1    2    0    0 -0.49700935895E+02 -0.52453124545E+02  0.47383815238E+03  0.48546174715E+03  0.77000000000E+02 0.  0.
<mgrwt>
<rscale>  0 0.21702247E+03</rscale>
<asrwt>0</asrwt>
<pdfrwt beam="1">  1        2 0.11139534E+00 0.21702247E+03</pdfrwt>
<pdfrwt beam="2">  1       -2 0.21571796E-02 0.21702247E+03</pdfrwt>
<totfact> 0.27238151E+04</totfact>
</mgrwt>
</event>
<event>
 4    1  0.6853809E-004  0.2695866E+03  0.7818608E-02  0.1101516E+00
          2   -1    0    0  501    0  0.00000000000E+00  0.00000000000E+00  0.50299182118E+03  0.50299182119E+03  0.25500000000E-02 0.  1.
         -2   -1    0    0    0  501 -0.00000000000E+00 -0.00000000000E+00 -0.36122333194E+02  0.36122333284E+02  0.25500000000E-02 0. -1.
    5000001    1    1    2    0    0  0.69558248270E+02  0.58903192993E+02  0.10803235236E+03  0.16095938992E+03  0.77000000000E+02 0.  0.
   -5000001    1    1    2    0    0 -0.69558248270E+02 -0.58903192993E+02  0.35883713563E+03  0.37815476455E+03  0.77000000000E+02 0.  0.
<mgrwt>
<rscale>  0 0.26958663E+03</rscale>
<asrwt>0</asrwt>
<pdfrwt beam="1">  1        2 0.71855974E-01 0.26958663E+03</pdfrwt>
<pdfrwt beam="2">  1       -2 0.51603333E-02 0.26958663E+03</pdfrwt>
<totfact> 0.12447388E+04</totfact>
</mgrwt>
</event>
<event>
 4    1  0.6853809E-004  0.2081800E+03  0.7818608E-02  0.1143015E+00
         -2   -1    0    0    0  501 -0.00000000000E+00  0.00000000000E+00  0.64383655742E+01  0.64383660792E+01  0.25500000000E-02 0. -1.
          2   -1    0    0  501    0  0.00000000000E+00 -0.00000000000E+00 -0.16828385863E+04  0.16828385863E+04  0.25500000000E-02 0.  1.
    5000001    1    1    2    0    0  0.51866037445E+02  0.44314635441E+02 -0.96697744059E+03  0.97243418459E+03  0.77000000000E+02 0.  0.
   -5000001    1    1    2    0    0 -0.51866037445E+02 -0.44314635441E+02 -0.70942278010E+03  0.71684276775E+03  0.77000000000E+02 0.  0.
<mgrwt>
<rscale>  0 0.20818002E+03</rscale>
<asrwt>0</asrwt>
<pdfrwt beam="1">  1        2 0.24040523E+00 0.20818002E+03</pdfrwt>
<pdfrwt beam="2">  1       -2 0.91976762E-03 0.20818002E+03</pdfrwt>
<totfact> 0.29972154E+04</totfact>
</mgrwt>
</event>
<event>
 4    1  0.6853809E-004  0.2081764E+03  0.7818608E-02  0.1143018E+00
         -2   -1    0    0    0  501 -0.00000000000E+00  0.00000000000E+00  0.47805291176E+02  0.47805291244E+02  0.25500000000E-02 0. -1.
          2   -1    0    0  501    0  0.00000000000E+00 -0.00000000000E+00 -0.22663502933E+03  0.22663502935E+03  0.25500000000E-02 0.  1.
    5000001    1    1    2    0    0  0.18886864214E+02 -0.58600000033E+02 -0.13342893726E+03  0.16590043683E+03  0.77000000000E+02 0.  0.
   -5000001    1    1    2    0    0 -0.18886864214E+02  0.58600000033E+02 -0.45400800895E+02  0.10853988376E+03  0.77000000000E+02 0.  0.
<mgrwt>
<rscale>  0 0.20817640E+03</rscale>
<asrwt>0</asrwt>
<pdfrwt beam="1">  1        2 0.32376432E-01 0.20817640E+03</pdfrwt>
<pdfrwt beam="2">  1       -2 0.68293274E-02 0.20817640E+03</pdfrwt>
<totfact> 0.18894265E+04</totfact>
</mgrwt>
</event>
<event>
 4    1  0.6853809E-004  0.2694650E+03  0.7818608E-02  0.1101586E+00
          2   -1    0    0  501    0  0.00000000000E+00  0.00000000000E+00  0.17563133835E+04  0.17563133835E+04  0.25500000000E-02 0.  1.
         -2   -1    0    0    0  501 -0.00000000000E+00 -0.00000000000E+00 -0.10335770424E+02  0.10335770738E+02  0.25500000000E-02 0. -1.
    5000001    1    1    2    0    0 -0.57513032061E+02 -0.94325775964E+02  0.90137871386E+03  0.91138229447E+03  0.77000000000E+02 0.  0.
   -5000001    1    1    2    0    0  0.57513032061E+02  0.94325775964E+02  0.84459889920E+03  0.85526685976E+03  0.77000000000E+02 0.  0.
<mgrwt>
<rscale>  0 0.26946504E+03</rscale>
<asrwt>0</asrwt>
<pdfrwt beam="1">  1        2 0.25090148E+00 0.26946504E+03</pdfrwt>
<pdfrwt beam="2">  1       -2 0.14765412E-02 0.26946504E+03</pdfrwt>
<totfact> 0.14025052E+04</totfact>
</mgrwt>
</event>
<event>
 4    1  0.6853809E-004  0.1738404E+03  0.7818608E-02  0.1173901E+00
          2   -1    0    0  501    0  0.00000000000E+00  0.00000000000E+00  0.15990285431E+04  0.15990285431E+04  0.25500000000E-02 0.  1.
         -2   -1    0    0    0  501 -0.00000000000E+00 -0.00000000000E+00 -0.47248208841E+01  0.47248215722E+01  0.25500000000E-02 0. -1.
    5000001    1    1    2    0    0  0.20799204811E+02 -0.28590184048E+02  0.97606783340E+03  0.97973844517E+03  0.77000000000E+02 0.  0.
   -5000001    1    1    2    0    0 -0.20799204811E+02  0.28590184048E+02  0.61823588882E+03  0.62401491951E+03  0.77000000000E+02 0.  0.
<mgrwt>
<rscale>  0 0.17384043E+03</rscale>
<asrwt>0</asrwt>
<pdfrwt beam="1">  1        2 0.22843248E+00 0.17384043E+03</pdfrwt>
<pdfrwt beam="2">  1       -2 0.67497495E-03 0.17384043E+03</pdfrwt>
<totfact> 0.50766458E+04</totfact>
</mgrwt>
</event>
<event>
 4    1  0.6853809E-004  0.2735221E+03  0.7818608E-02  0.1099281E+00
          2   -1    0    0  501    0  0.00000000000E+00  0.00000000000E+00  0.35023623990E+02  0.35023624083E+02  0.25500000000E-02 0.  1.
         -2   -1    0    0    0  501 -0.00000000000E+00 -0.00000000000E+00 -0.53402779027E+03  0.53402779028E+03  0.25500000000E-02 0. -1.
    5000001    1    1    2    0    0  0.37683345790E+02 -0.10568854236E+03 -0.27776004090E+03  0.30930525837E+03  0.77000000000E+02 0.  0.
   -5000001    1    1    2    0    0 -0.37683345790E+02  0.10568854236E+03 -0.22124412538E+03  0.25974615599E+03  0.77000000000E+02 0.  0.
<mgrwt>
<rscale>  0 0.27352213E+03</rscale>
<asrwt>0</asrwt>
<pdfrwt beam="1">  1        2 0.50033752E-02 0.27352213E+03</pdfrwt>
<pdfrwt beam="2">  1       -2 0.76289679E-01 0.27352213E+03</pdfrwt>
<totfact> 0.24787873E+03</totfact>
</mgrwt>
</event>
<event>
 4    1  0.6853809E-004  0.2592694E+03  0.7818608E-02  0.1107583E+00
          2   -1    0    0  501    0  0.00000000000E+00  0.00000000000E+00  0.17554421070E+04  0.17554421070E+04  0.25500000000E-02 0.  1.
         -2   -1    0    0    0  501 -0.00000000000E+00 -0.00000000000E+00 -0.95731777737E+01  0.95731781133E+01  0.25500000000E-02 0. -1.
    5000001    1    1    2    0    0  0.96443672657E+02  0.65804410624E+01  0.11393454783E+04  0.11460287096E+04  0.77000000000E+02 0.  0.
   -5000001    1    1    2    0    0 -0.96443672657E+02 -0.65804410624E+01  0.60652345089E+03  0.61898657553E+03  0.77000000000E+02 0.  0.
<mgrwt>
<rscale>  0 0.25926943E+03</rscale>
<asrwt>0</asrwt>
<pdfrwt beam="1">  1        2 0.25077766E+00 0.25926943E+03</pdfrwt>
<pdfrwt beam="2">  1       -2 0.13675957E-02 0.25926943E+03</pdfrwt>
<totfact> 0.15683760E+04</totfact>
</mgrwt>
</event>
<event>
 4    1  0.6853809E-004  0.1762768E+03  0.7818608E-02  0.1171456E+00
          2   -1    0    0  501    0  0.00000000000E+00  0.00000000000E+00  0.13023864905E+02  0.13023865155E+02  0.25500000000E-02 0.  1.
         -2   -1    0    0    0  501 -0.00000000000E+00 -0.00000000000E+00 -0.59647233113E+03  0.59647233113E+03  0.25500000000E-02 0. -1.
    5000001    1    1    2    0    0 -0.15803510210E+02  0.35139393827E+02 -0.35685656141E+03  0.36709689914E+03  0.77000000000E+02 0.  0.
   -5000001    1    1    2    0    0  0.15803510210E+02 -0.35139393827E+02 -0.22659190481E+03  0.24239929715E+03  0.77000000000E+02 0.  0.
<mgrwt>
<rscale>  0 0.17627677E+03</rscale>
<asrwt>0</asrwt>
<pdfrwt beam="1">  1        2 0.18605525E-02 0.17627677E+03</pdfrwt>
<pdfrwt beam="2">  1       -2 0.85210316E-01 0.17627677E+03</pdfrwt>
<totfact> 0.72199155E+03</totfact>
</mgrwt>
</event>
<event>
 4    1  0.6853809E-004  0.4445721E+03  0.7818608E-02  0.1029353E+00
          2   -1    0    0  501    0  0.00000000000E+00  0.00000000000E+00  0.59995646267E+03  0.59995646267E+03  0.25500000000E-02 0.  1.
         -2   -1    0    0    0  501 -0.00000000000E+00 -0.00000000000E+00 -0.82357773436E+02  0.82357773475E+02  0.25500000000E-02 0. -1.
    5000001    1    1    2    0    0  0.20516070982E+03  0.36821788867E+02  0.26792022888E+03  0.34807615551E+03  0.77000000000E+02 0.  0.
   -5000001    1    1    2    0    0 -0.20516070982E+03 -0.36821788867E+02  0.24967846035E+03  0.33423808064E+03  0.77000000000E+02 0.  0.
<mgrwt>
<rscale>  0 0.44457206E+03</rscale>
<asrwt>0</asrwt>
<pdfrwt beam="1">  1        2 0.85708063E-01 0.44457206E+03</pdfrwt>
<pdfrwt beam="2">  1       -2 0.11765397E-01 0.44457206E+03</pdfrwt>
<totfact> 0.28288412E+03</totfact>
</mgrwt>
</event>
<event>
 4    1  0.6853809E-004  0.3144716E+03  0.7818608E-02  0.1078222E+00
          2   -1    0    0  501    0  0.00000000000E+00  0.00000000000E+00  0.19183120497E+04  0.19183120497E+04  0.25500000000E-02 0.  1.
         -2   -1    0    0    0  501 -0.00000000000E+00 -0.00000000000E+00 -0.12887940419E+02  0.12887940671E+02  0.25500000000E-02 0. -1.
    5000001    1    1    2    0    0  0.14606877158E+01  0.96133016414E+02  0.15528577196E+04  0.15577354679E+04  0.77000000000E+02 0.  0.
   -5000001    1    1    2    0    0 -0.14606877158E+01 -0.96133016414E+02  0.35256638963E+03  0.37346452248E+03  0.77000000000E+02 0.  0.
<mgrwt>
<rscale>  0 0.31447157E+03</rscale>
<asrwt>0</asrwt>
<pdfrwt beam="1">  1        2 0.27404437E+00 0.31447157E+03</pdfrwt>
<pdfrwt beam="2">  1       -2 0.18411358E-02 0.31447157E+03</pdfrwt>
<totfact> 0.84727560E+03</totfact>
</mgrwt>
</event>
<event>
 4    1  0.6853809E-004  0.1721199E+03  0.7818608E-02  0.1175655E+00
         -2   -1    0    0    0  501 -0.00000000000E+00  0.00000000000E+00  0.80625940770E+01  0.80625944802E+01  0.25500000000E-02 0. -1.
          2   -1    0    0  501    0  0.00000000000E+00 -0.00000000000E+00 -0.91860241296E+03  0.91860241296E+03  0.25500000000E-02 0.  1.
    5000001    1    1    2    0    0 -0.33093607581E+02 -0.14499627878E+02 -0.52585614587E+03  0.53269044690E+03  0.77000000000E+02 0.  0.
   -5000001    1    1    2    0    0  0.33093607581E+02  0.14499627878E+02 -0.38468367301E+03  0.39397456054E+03  0.77000000000E+02 0.  0.
<mgrwt>
<rscale>  0 0.17211994E+03</rscale>
<asrwt>0</asrwt>
<pdfrwt beam="1">  1        2 0.13122885E+00 0.17211994E+03</pdfrwt>
<pdfrwt beam="2">  1       -2 0.11517998E-02 0.17211994E+03</pdfrwt>
<totfact> 0.54231598E+04</totfact>
</mgrwt>
</event>
<event>
 4    1  0.6853809E-004  0.2600790E+03  0.7818608E-02  0.1107096E+00
         -2   -1    0    0    0  501 -0.00000000000E+00  0.00000000000E+00  0.59602099574E+02  0.59602099628E+02  0.25500000000E-02 0. -1.
          2   -1    0    0  501    0  0.00000000000E+00 -0.00000000000E+00 -0.28371941285E+03  0.28371941287E+03  0.25500000000E-02 0.  1.
    5000001    1    1    2    0    0 -0.27684820787E+02  0.89098267964E+02 -0.49077219186E+02  0.13054701873E+03  0.77000000000E+02 0.  0.
   -5000001    1    1    2    0    0  0.27684820787E+02 -0.89098267964E+02 -0.17504009409E+03  0.21277449376E+03  0.77000000000E+02 0.  0.
<mgrwt>
<rscale>  0 0.26007901E+03</rscale>
<asrwt>0</asrwt>
<pdfrwt beam="1">  1        2 0.40531344E-01 0.26007901E+03</pdfrwt>
<pdfrwt beam="2">  1       -2 0.85145858E-02 0.26007901E+03</pdfrwt>
<totfact> 0.10663253E+04</totfact>
</mgrwt>
</event>
<event>
 4    1  0.6853809E-004  0.2690971E+03  0.7818608E-02  0.1101797E+00
          2   -1    0    0  501    0  0.00000000000E+00  0.00000000000E+00  0.24998548076E+03  0.24998548077E+03  0.25500000000E-02 0.  1.
         -2   -1    0    0    0  501 -0.00000000000E+00 -0.00000000000E+00 -0.72417480131E+02  0.72417480176E+02  0.25500000000E-02 0. -1.
    5000001    1    1    2    0    0  0.71593074500E+02  0.63713982779E+02  0.23279199414E+02  0.12512378288E+03  0.77000000000E+02 0.  0.
   -5000001    1    1    2    0    0 -0.71593074500E+02 -0.63713982779E+02  0.15428880122E+03  0.19727917807E+03  0.77000000000E+02 0.  0.
<mgrwt>
<rscale>  0 0.26909715E+03</rscale>
<asrwt>0</asrwt>
<pdfrwt beam="1">  1        2 0.35712212E-01 0.26909715E+03</pdfrwt>
<pdfrwt beam="2">  1       -2 0.10345354E-01 0.26909715E+03</pdfrwt>
<totfact> 0.90010725E+03</totfact>
</mgrwt>
</event>
<event>
 4    1  0.6853809E-004  0.2208242E+03  0.7818608E-02  0.1133270E+00
         -2   -1    0    0    0  501 -0.00000000000E+00  0.00000000000E+00  0.23883049965E+02  0.23883050101E+02  0.25500000000E-02 0. -1.
          2   -1    0    0  501    0  0.00000000000E+00 -0.00000000000E+00 -0.51043864299E+03  0.51043864300E+03  0.25500000000E-02 0.  1.
    5000001    1    1    2    0    0 -0.25736714977E+02  0.73996364878E+02 -0.21633445414E+03  0.24262612506E+03  0.77000000000E+02 0.  0.
   -5000001    1    1    2    0    0  0.25736714977E+02 -0.73996364878E+02 -0.27022113888E+03  0.29169556804E+03  0.77000000000E+02 0.  0.
<mgrwt>
<rscale>  0 0.22082420E+03</rscale>
<asrwt>0</asrwt>
<pdfrwt beam="1">  1        2 0.72919799E-01 0.22082420E+03</pdfrwt>
<pdfrwt beam="2">  1       -2 0.34118646E-02 0.22082420E+03</pdfrwt>
<totfact> 0.22570156E+04</totfact>
</mgrwt>
</event>
<event>
 4    1  0.6853809E-004  0.3015192E+03  0.7818608E-02  0.1084484E+00
          2   -1    0    0  501    0  0.00000000000E+00  0.00000000000E+00  0.26127288963E+04  0.26127288963E+04  0.25500000000E-02 0.  1.
         -2   -1    0    0    0  501 -0.00000000000E+00 -0.00000000000E+00 -0.86991227315E+01  0.86991231052E+01  0.25500000000E-02 0. -1.
    5000001    1    1    2    0    0  0.34966046166E+02  0.96820760631E+02  0.19867281206E+04  0.19908828467E+04  0.77000000000E+02 0.  0.
   -5000001    1    1    2    0    0 -0.34966046166E+02 -0.96820760631E+02  0.61730165294E+03  0.63054517268E+03  0.77000000000E+02 0.  0.
<mgrwt>
<rscale>  0 0.30151915E+03</rscale>
<asrwt>0</asrwt>
<pdfrwt beam="1">  1        2 0.37324706E+00 0.30151915E+03</pdfrwt>
<pdfrwt beam="2">  1       -2 0.12427316E-02 0.30151915E+03</pdfrwt>
<totfact> 0.68377946E+03</totfact>
</mgrwt>
</event>
<event>
 4    1  0.6853809E-004  0.2427840E+03  0.7818608E-02  0.1117952E+00
         -2   -1    0    0    0  501 -0.00000000000E+00  0.00000000000E+00  0.68170552923E+02  0.68170552970E+02  0.25500000000E-02 0. -1.
          2   -1    0    0  501    0  0.00000000000E+00 -0.00000000000E+00 -0.21616392371E+03  0.21616392373E+03  0.25500000000E-02 0.  1.
    5000001    1    1    2    0    0 -0.18988108967E+02  0.91478225512E+02 -0.84353194779E+02  0.14755770225E+03  0.77000000000E+02 0.  0.
   -5000001    1    1    2    0    0  0.18988108967E+02 -0.91478225512E+02 -0.63640176013E+02  0.13677677445E+03  0.77000000000E+02 0.  0.
<mgrwt>
<rscale>  0 0.24278397E+03</rscale>
<asrwt>0</asrwt>
<pdfrwt beam="1">  1        2 0.30880560E-01 0.24278397E+03</pdfrwt>
<pdfrwt beam="2">  1       -2 0.97386505E-02 0.24278397E+03</pdfrwt>
<totfact> 0.11547543E+04</totfact>
</mgrwt>
</event>
<event>
 4    1  0.6853809E-004  0.2082610E+03  0.7818608E-02  0.1142950E+00
          2   -1    0    0  501    0  0.00000000000E+00  0.00000000000E+00  0.53741629792E+03  0.53741629793E+03  0.25500000000E-02 0.  1.
         -2   -1    0    0    0  501 -0.00000000000E+00 -0.00000000000E+00 -0.20176472691E+02  0.20176472853E+02  0.25500000000E-02 0. -1.
    5000001    1    1    2    0    0  0.66298871064E+02 -0.50151662778E+01  0.31809578829E+03  0.33396799656E+03  0.77000000000E+02 0.  0.
   -5000001    1    1    2    0    0 -0.66298871064E+02  0.50151662778E+01  0.19914403694E+03  0.22362477422E+03  0.77000000000E+02 0.  0.
<mgrwt>
<rscale>  0 0.20826104E+03</rscale>
<asrwt>0</asrwt>
<pdfrwt beam="1">  1        2 0.76773766E-01 0.20826104E+03</pdfrwt>
<pdfrwt beam="2">  1       -2 0.28823529E-02 0.20826104E+03</pdfrwt>
<totfact> 0.27269489E+04</totfact>
</mgrwt>
</event>
<event>
 4    1  0.6853809E-004  0.1859666E+03  0.7818608E-02  0.1162150E+00
          2   -1    0    0  501    0  0.00000000000E+00  0.00000000000E+00  0.13048277402E+02  0.13048277652E+02  0.25500000000E-02 0.  1.
         -2   -1    0    0    0  501 -0.00000000000E+00 -0.00000000000E+00 -0.66260836207E+03  0.66260836207E+03  0.25500000000E-02 0. -1.
    5000001    1    1    2    0    0 -0.16255439206E+02  0.49140661829E+02 -0.34713356941E+03  0.35931846454E+03  0.77000000000E+02 0.  0.
   -5000001    1    1    2    0    0  0.16255439206E+02 -0.49140661829E+02 -0.30242651525E+03  0.31633817518E+03  0.77000000000E+02 0.  0.
<mgrwt>
<rscale>  0 0.18596664E+03</rscale>
<asrwt>0</asrwt>
<pdfrwt beam="1">  1        2 0.18640401E-02 0.18596664E+03</pdfrwt>
<pdfrwt beam="2">  1       -2 0.94658316E-01 0.18596664E+03</pdfrwt>
<totfact> 0.57080787E+03</totfact>
</mgrwt>
</event>
<event>
 4    1  0.6853809E-004  0.4848905E+03  0.7818608E-02  0.1017800E+00
         -2   -1    0    0    0  501 -0.00000000000E+00  0.00000000000E+00  0.41187171448E+02  0.41187171527E+02  0.25500000000E-02 0. -1.
          2   -1    0    0  501    0  0.00000000000E+00 -0.00000000000E+00 -0.14271360629E+04  0.14271360629E+04  0.25500000000E-02 0.  1.
    5000001    1    1    2    0    0 -0.14489141734E+03  0.17348003395E+03 -0.82007949612E+03  0.85413595227E+03  0.77000000000E+02 0.  0.
   -5000001    1    1    2    0    0  0.14489141734E+03 -0.17348003395E+03 -0.56586939534E+03  0.61418728217E+03  0.77000000000E+02 0.  0.
<mgrwt>
<rscale>  0 0.48489049E+03</rscale>
<asrwt>0</asrwt>
<pdfrwt beam="1">  1        2 0.20387655E+00 0.48489049E+03</pdfrwt>
<pdfrwt beam="2">  1       -2 0.58838825E-02 0.48489049E+03</pdfrwt>
<totfact> 0.25898398E+03</totfact>
</mgrwt>
</event>
<event>
 4    1  0.6853809E-004  0.5464524E+03  0.7818608E-02  0.1002318E+00
          2   -1    0    0  501    0  0.00000000000E+00  0.00000000000E+00  0.61709354382E+02  0.61709354435E+02  0.25500000000E-02 0. -1.
         -2   -1    0    0    0  501 -0.00000000000E+00 -0.00000000000E+00 -0.12097447574E+04  0.12097447574E+04  0.25500000000E-02 0.  1.
    5000001    1    1    2    0    0  0.90362557622E+02 -0.17785973297E+03 -0.96972875608E+03  0.99302685603E+03  0.77000000000E+02 0.  0.
   -5000001    1    1    2    0    0 -0.90362557622E+02  0.17785973297E+03 -0.17830664692E+03  0.27842725579E+03  0.77000000000E+02 0.  0.
<mgrwt>
<rscale>  0 0.54645244E+03</rscale>
<asrwt>0</asrwt>
<pdfrwt beam="1">  1        2 0.88156228E-02 0.54645244E+03</pdfrwt>
<pdfrwt beam="2">  1       -2 0.17282067E+00 0.54645244E+03</pdfrwt>
<totfact> 0.16237386E+02</totfact>
</mgrwt>
</event>
<event>
 4    1  0.6853809E-004  0.2420147E+03  0.7818608E-02  0.1118458E+00
         -2   -1    0    0    0  501 -0.00000000000E+00  0.00000000000E+00  0.31836135719E+02  0.31836135822E+02  0.25500000000E-02 0. -1.
          2   -1    0    0  501    0  0.00000000000E+00 -0.00000000000E+00 -0.45994192372E+03  0.45994192373E+03  0.25500000000E-02 0.  1.
    5000001    1    1    2    0    0 -0.34142702740E+02  0.86712521640E+02 -0.22499337490E+03  0.25541300732E+03  0.77000000000E+02 0.  0.
   -5000001    1    1    2    0    0  0.34142702740E+02 -0.86712521640E+02 -0.20311241311E+03  0.23636505223E+03  0.77000000000E+02 0.  0.
<mgrwt>
<rscale>  0 0.24201466E+03</rscale>
<asrwt>0</asrwt>
<pdfrwt beam="1">  1        2 0.65705985E-01 0.24201466E+03</pdfrwt>
<pdfrwt beam="2">  1       -2 0.45480197E-02 0.24201466E+03</pdfrwt>
<totfact> 0.16538959E+04</totfact>
</mgrwt>
</event>
<event>
 4    1  0.6853809E-004  0.2319972E+03  0.7818608E-02  0.1125242E+00
          2   -1    0    0  501    0  0.00000000000E+00  0.00000000000E+00  0.20491099064E+03  0.20491099066E+03  0.25500000000E-02 0.  1.
         -2   -1    0    0    0  501 -0.00000000000E+00 -0.00000000000E+00 -0.65665976993E+02  0.65665977042E+02  0.25500000000E-02 0. -1.
    5000001    1    1    2    0    0 -0.66897146564E+02 -0.55149929821E+02  0.65945918541E+02  0.13339642855E+03  0.77000000000E+02 0.  0.
   -5000001    1    1    2    0    0  0.66897146564E+02  0.55149929821E+02  0.73299095109E+02  0.13718053915E+03  0.77000000000E+02 0.  0.
<mgrwt>
<rscale>  0 0.23199724E+03</rscale>
<asrwt>0</asrwt>
<pdfrwt beam="1">  1        2 0.29272999E-01 0.23199724E+03</pdfrwt>
<pdfrwt beam="2">  1       -2 0.93808538E-02 0.23199724E+03</pdfrwt>
<totfact> 0.12956588E+04</totfact>
</mgrwt>
</event>
<event>
 4    1  0.6853809E-004  0.3583758E+03  0.7818608E-02  0.1059229E+00
          2   -1    0    0  501    0  0.00000000000E+00  0.00000000000E+00  0.13593394224E+03  0.13593394227E+03  0.25500000000E-02 0.  1.
         -2   -1    0    0    0  501 -0.00000000000E+00 -0.00000000000E+00 -0.23620523861E+03  0.23620523862E+03  0.25500000000E-02 0. -1.
    5000001    1    1    2    0    0  0.30917350912E+02  0.15295303815E+03 -0.57288794790E+01  0.17410437825E+03  0.77000000000E+02 0.  0.
   -5000001    1    1    2    0    0 -0.30917350912E+02 -0.15295303815E+03 -0.94542416881E+02  0.19803480264E+03  0.77000000000E+02 0.  0.
<mgrwt>
<rscale>  0 0.35837583E+03</rscale>
<asrwt>0</asrwt>
<pdfrwt beam="1">  1        2 0.19419134E-01 0.35837583E+03</pdfrwt>
<pdfrwt beam="2">  1       -2 0.33743606E-01 0.35837583E+03</pdfrwt>
<totfact> 0.23768088E+03</totfact>
</mgrwt>
</event>
<event>
 4    1  0.6853809E-004  0.3271309E+03  0.7818608E-02  0.1072413E+00
         -2   -1    0    0    0  501 -0.00000000000E+00  0.00000000000E+00  0.57413755686E+02  0.57413755742E+02  0.25500000000E-02 0. -1.
          2   -1    0    0  501    0  0.00000000000E+00 -0.00000000000E+00 -0.46598004253E+03  0.46598004254E+03  0.25500000000E-02 0.  1.
    5000001    1    1    2    0    0 -0.78812384049E+02  0.94453955486E+02 -0.83577157382E+02  0.16747263306E+03  0.77000000000E+02 0.  0.
   -5000001    1    1    2    0    0  0.78812384049E+02 -0.94453955486E+02 -0.32498912947E+03  0.35592116523E+03  0.77000000000E+02 0.  0.
<mgrwt>
<rscale>  0 0.32713095E+03</rscale>
<asrwt>0</asrwt>
<pdfrwt beam="1">  1        2 0.66568575E-01 0.32713095E+03</pdfrwt>
<pdfrwt beam="2">  1       -2 0.82019654E-02 0.32713095E+03</pdfrwt>
<totfact> 0.66662689E+03</totfact>
</mgrwt>
</event>
<event>
 4    1  0.6853809E-004  0.4005638E+03  0.7818608E-02  0.1043585E+00
         -2   -1    0    0    0  501 -0.00000000000E+00  0.00000000000E+00  0.60769548089E+02  0.60769548142E+02  0.25500000000E-02 0. -1.
          2   -1    0    0  501    0  0.00000000000E+00 -0.00000000000E+00 -0.66008111978E+03  0.66008111978E+03  0.25500000000E-02 0.  1.
    5000001    1    1    2    0    0  0.66087420596E+02 -0.15140121976E+03 -0.44907548874E+03  0.48465211348E+03  0.77000000000E+02 0.  0.
   -5000001    1    1    2    0    0 -0.66087420596E+02  0.15140121976E+03 -0.15023608294E+03  0.23619855445E+03  0.77000000000E+02 0.  0.
<mgrwt>
<rscale>  0 0.40056376E+03</rscale>
<asrwt>0</asrwt>
<pdfrwt beam="1">  1        2 0.94297299E-01 0.40056376E+03</pdfrwt>
<pdfrwt beam="2">  1       -2 0.86813644E-02 0.40056376E+03</pdfrwt>
<totfact> 0.41180330E+03</totfact>
</mgrwt>
</event>
<event>
 4    1  0.6853809E-004  0.1695675E+03  0.7818608E-02  0.1178300E+00
          2   -1    0    0  501    0  0.00000000000E+00  0.00000000000E+00  0.70519095122E+03  0.70519095122E+03  0.25500000000E-02 0.  1.
         -2   -1    0    0    0  501 -0.00000000000E+00 -0.00000000000E+00 -0.10193389855E+02  0.10193390174E+02  0.25500000000E-02 0. -1.
    5000001    1    1    2    0    0  0.33800759226E+02  0.98285020399E+01  0.32853934456E+03  0.33927303415E+03  0.77000000000E+02 0.  0.
   -5000001    1    1    2    0    0 -0.33800759226E+02 -0.98285020399E+01  0.36645821680E+03  0.37611130725E+03  0.77000000000E+02 0.  0.
<mgrwt>
<rscale>  0 0.16956753E+03</rscale>
<asrwt>0</asrwt>
<pdfrwt beam="1">  1        2 0.10074151E+00 0.16956753E+03</pdfrwt>
<pdfrwt beam="2">  1       -2 0.14561993E-02 0.16956753E+03</pdfrwt>
<totfact> 0.53367660E+04</totfact>
</mgrwt>
</event>
<event>
 4    1  0.6853809E-004  0.4377422E+03  0.7818608E-02  0.1031442E+00
          2   -1    0    0  501    0  0.00000000000E+00  0.00000000000E+00  0.14417435735E+03  0.14417435737E+03  0.25500000000E-02 0.  1.
         -2   -1    0    0    0  501 -0.00000000000E+00 -0.00000000000E+00 -0.33226827222E+03  0.33226827223E+03  0.25500000000E-02 0. -1.
    5000001    1    1    2    0    0 -0.11428342577E+02  0.18809831245E+03 -0.18155384825E+03  0.27276800027E+03  0.77000000000E+02 0.  0.
   -5000001    1    1    2    0    0  0.11428342577E+02 -0.18809831245E+03 -0.65400666252E+01  0.20367462932E+03  0.77000000000E+02 0.  0.
<mgrwt>
<rscale>  0 0.43774223E+03</rscale>
<asrwt>0</asrwt>
<pdfrwt beam="1">  1        2 0.20596337E-01 0.43774223E+03</pdfrwt>
<pdfrwt beam="2">  1       -2 0.47466896E-01 0.43774223E+03</pdfrwt>
<totfact> 0.11535468E+03</totfact>
</mgrwt>
</event>
<event>
 4    1  0.6853809E-004  0.2581148E+03  0.7818608E-02  0.1108281E+00
         -2   -1    0    0    0  501 -0.00000000000E+00  0.00000000000E+00  0.89900695775E+02  0.89900695811E+02  0.25500000000E-02 0. -1.
          2   -1    0    0  501    0  0.00000000000E+00 -0.00000000000E+00 -0.18526893358E+03  0.18526893360E+03  0.25500000000E-02 0.  1.
    5000001    1    1    2    0    0  0.71863973293E+01  0.10215224373E+03 -0.64202459796E+02  0.14330973815E+03  0.77000000000E+02 0.  0.
   -5000001    1    1    2    0    0 -0.71863973293E+01 -0.10215224373E+03 -0.31165778014E+02  0.13185989126E+03  0.77000000000E+02 0.  0.
<mgrwt>
<rscale>  0 0.25811475E+03</rscale>
<asrwt>0</asrwt>
<pdfrwt beam="1">  1        2 0.26466990E-01 0.25811475E+03</pdfrwt>
<pdfrwt beam="2">  1       -2 0.12842957E-01 0.25811475E+03</pdfrwt>
<totfact> 0.88096778E+03</totfact>
</mgrwt>
</event>
<event>
 4    1  0.6853809E-004  0.2117277E+03  0.7818608E-02  0.1140205E+00
          2   -1    0    0  501    0  0.00000000000E+00  0.00000000000E+00  0.33341813608E+03  0.33341813609E+03  0.25500000000E-02 0.  1.
         -2   -1    0    0    0  501 -0.00000000000E+00 -0.00000000000E+00 -0.33612910264E+02  0.33612910360E+02  0.25500000000E-02 0. -1.
    5000001    1    1    2    0    0 -0.37097012951E+02 -0.56791142982E+02  0.10480709576E+03  0.14667975188E+03  0.77000000000E+02 0.  0.
   -5000001    1    1    2    0    0  0.37097012951E+02  0.56791142982E+02  0.19499813006E+03  0.22035129456E+03  0.77000000000E+02 0.  0.
<mgrwt>
<rscale>  0 0.21172769E+03</rscale>
<asrwt>0</asrwt>
<pdfrwt beam="1">  1        2 0.47631163E-01 0.21172769E+03</pdfrwt>
<pdfrwt beam="2">  1       -2 0.48018443E-02 0.21172769E+03</pdfrwt>
<totfact> 0.21366005E+04</totfact>
</mgrwt>
</event>
<event>
 4    1  0.6853809E-004  0.4421897E+03  0.7818608E-02  0.1030077E+00
         -2   -1    0    0    0  501 -0.00000000000E+00  0.00000000000E+00  0.22347490718E+02  0.22347490864E+02  0.25500000000E-02 0. -1.
          2   -1    0    0  501    0  0.00000000000E+00 -0.00000000000E+00 -0.21874010755E+04  0.21874010755E+04  0.25500000000E-02 0.  1.
    5000001    1    1    2    0    0  0.26240481607E+02 -0.19964817021E+03 -0.13276471794E+04  0.13450367979E+04  0.77000000000E+02 0.  0.
   -5000001    1    1    2    0    0 -0.26240481607E+02  0.19964817021E+03 -0.83740640535E+03  0.86471176843E+03  0.77000000000E+02 0.  0.
<mgrwt>
<rscale>  0 0.44218967E+03</rscale>
<asrwt>0</asrwt>
<pdfrwt beam="1">  1        2 0.31248573E+00 0.44218967E+03</pdfrwt>
<pdfrwt beam="2">  1       -2 0.31925001E-02 0.44218967E+03</pdfrwt>
<totfact> 0.27405031E+03</totfact>
</mgrwt>
</event>
<event>
 4    1  0.6853809E-004  0.1968744E+03  0.7818608E-02  0.1152403E+00
         -2   -1    0    0    0  501 -0.00000000000E+00  0.00000000000E+00  0.36272721872E+01  0.36272730836E+01  0.25500000000E-02 0. -1.
          2   -1    0    0  501    0  0.00000000000E+00 -0.00000000000E+00 -0.26713954776E+04  0.26713954776E+04  0.25500000000E-02 0.  1.
    5000001    1    1    2    0    0  0.96225897386E+01  0.59818497041E+02 -0.14628096256E+04  0.14660872578E+04  0.77000000000E+02 0.  0.
   -5000001    1    1    2    0    0 -0.96225897386E+01 -0.59818497041E+02 -0.12049585798E+04  0.12089354929E+04  0.77000000000E+02 0.  0.
<mgrwt>
<rscale>  0 0.19687437E+03</rscale>
<asrwt>0</asrwt>
<pdfrwt beam="1">  1        2 0.38162667E+00 0.19687437E+03</pdfrwt>
<pdfrwt beam="2">  1       -2 0.51818351E-03 0.19687437E+03</pdfrwt>
<totfact> 0.22461196E+04</totfact>
</mgrwt>
</event>
<event>
 4    1  0.6853809E-004  0.2240245E+03  0.7818608E-02  0.1130918E+00
          2   -1    0    0  501    0  0.00000000000E+00  0.00000000000E+00  0.38078636377E+02  0.38078636462E+02  0.25500000000E-02 0.  1.
         -2   -1    0    0    0  501 -0.00000000000E+00 -0.00000000000E+00 -0.32949553951E+03  0.32949553952E+03  0.25500000000E-02 0. -1.
    5000001    1    1    2    0    0 -0.23904386423E+02  0.17040127925E+02 -0.21225970594E+02  0.85095989786E+02  0.77000000000E+02 0.  0.
   -5000001    1    1    2    0    0  0.23904386423E+02 -0.17040127925E+02 -0.27019093254E+03  0.28247818620E+03  0.77000000000E+02 0.  0.
<mgrwt>
<rscale>  0 0.22402447E+03</rscale>
<asrwt>0</asrwt>
<pdfrwt beam="1">  1        2 0.54398054E-02 0.22402447E+03</pdfrwt>
<pdfrwt beam="2">  1       -2 0.47070790E-01 0.22402447E+03</pdfrwt>
<totfact> 0.59813139E+03</totfact>
</mgrwt>
</event>
<event>
 4    1  0.6853809E-004  0.2429604E+03  0.7818608E-02  0.1117836E+00
          2   -1    0    0  501    0  0.00000000000E+00  0.00000000000E+00  0.27516718313E+03  0.27516718314E+03  0.25500000000E-02 0.  1.
         -2   -1    0    0    0  501 -0.00000000000E+00 -0.00000000000E+00 -0.53630812590E+02  0.53630812651E+02  0.25500000000E-02 0. -1.
    5000001    1    1    2    0    0  0.86732915800E+02 -0.29160665820E+02  0.13965077912E+03  0.18385941157E+03  0.77000000000E+02 0.  0.
   -5000001    1    1    2    0    0 -0.86732915800E+02  0.29160665820E+02  0.81885591417E+02  0.14493858422E+03  0.77000000000E+02 0.  0.
<mgrwt>
<rscale>  0 0.24296041E+03</rscale>
<asrwt>0</asrwt>
<pdfrwt beam="1">  1        2 0.39309598E-01 0.24296041E+03</pdfrwt>
<pdfrwt beam="2">  1       -2 0.76615447E-02 0.24296041E+03</pdfrwt>
<totfact> 0.12949537E+04</totfact>
</mgrwt>
</event>
<event>
 4    1  0.6853809E-004  0.2816182E+03  0.7818608E-02  0.1094808E+00
         -2   -1    0    0    0  501 -0.00000000000E+00  0.00000000000E+00  0.12398127848E+02  0.12398128110E+02  0.25500000000E-02 0. -1.
          2   -1    0    0  501    0  0.00000000000E+00 -0.00000000000E+00 -0.15992091584E+04  0.15992091584E+04  0.25500000000E-02 0.  1.
    5000001    1    1    2    0    0 -0.89036614741E+02  0.49939154572E+02 -0.11308373158E+04  0.11380437042E+04  0.77000000000E+02 0.  0.
   -5000001    1    1    2    0    0  0.89036614741E+02 -0.49939154572E+02 -0.45597371481E+03  0.47356358235E+03  0.77000000000E+02 0.  0.
<mgrwt>
<rscale>  0 0.28161818E+03</rscale>
<asrwt>0</asrwt>
<pdfrwt beam="1">  1        2 0.22845832E+00 0.28161818E+03</pdfrwt>
<pdfrwt beam="2">  1       -2 0.17711622E-02 0.28161818E+03</pdfrwt>
<totfact> 0.12862479E+04</totfact>
</mgrwt>
</event>
<event>
 4    1  0.6853809E-004  0.2546190E+03  0.7818608E-02  0.1110420E+00
         -2   -1    0    0    0  501 -0.00000000000E+00  0.00000000000E+00  0.21314908169E+02  0.21314908322E+02  0.25500000000E-02 0.  1.
          2   -1    0    0  501    0  0.00000000000E+00 -0.00000000000E+00 -0.76039298340E+03  0.76039298341E+03  0.25500000000E-02 0. -1.
    5000001    1    1    2    0    0  0.93440560063E+02  0.23312987930E+02 -0.27225617045E+03  0.29887632228E+03  0.77000000000E+02 0.  0.
   -5000001    1    1    2    0    0 -0.93440560063E+02 -0.23312987930E+02 -0.46682190478E+03  0.48283156945E+03  0.77000000000E+02 0.  0.
<mgrwt>
<rscale>  0 0.25461898E+03</rscale>
<asrwt>0</asrwt>
<pdfrwt beam="1">  1        2 0.10862755E+00 0.25461898E+03</pdfrwt>
<pdfrwt beam="2">  1       -2 0.30449874E-02 0.25461898E+03</pdfrwt>
<totfact> 0.17038005E+04</totfact>
</mgrwt>
</event>
<event>
 4    1  0.6853809E-004  0.2015634E+03  0.7818608E-02  0.1148427E+00
         -2   -1    0    0    0  501 -0.00000000000E+00  0.00000000000E+00  0.37713024331E+02  0.37713024417E+02  0.25500000000E-02 0. -1.
          2   -1    0    0  501    0  0.00000000000E+00 -0.00000000000E+00 -0.26932203363E+03  0.26932203364E+03  0.25500000000E-02 0.  1.
    5000001    1    1    2    0    0  0.45112825044E+02  0.83785170951E+01 -0.18598373083E+03  0.20645656848E+03  0.77000000000E+02 0.  0.
   -5000001    1    1    2    0    0 -0.45112825044E+02 -0.83785170951E+01 -0.45625278469E+02  0.10057848959E+03  0.77000000000E+02 0.  0.
<mgrwt>
<rscale>  0 0.20156337E+03</rscale>
<asrwt>0</asrwt>
<pdfrwt beam="1">  1        2 0.38474575E-01 0.20156337E+03</pdfrwt>
<pdfrwt beam="2">  1       -2 0.53875751E-02 0.20156337E+03</pdfrwt>
<totfact> 0.22477330E+04</totfact>
</mgrwt>
</event>
<event>
 4    1  0.6853809E-004  0.2071460E+03  0.7818608E-02  0.1143846E+00
          2   -1    0    0  501    0  0.00000000000E+00  0.00000000000E+00  0.17721745477E+04  0.17721745477E+04  0.25500000000E-02 0.  1.
         -2   -1    0    0    0  501 -0.00000000000E+00 -0.00000000000E+00 -0.60532200898E+01  0.60532206269E+01  0.25500000000E-02 0. -1.
    5000001    1    1    2    0    0  0.78468923185E+01  0.57047971216E+02  0.55255291965E+03  0.56085628618E+03  0.77000000000E+02 0.  0.
   -5000001    1    1    2    0    0 -0.78468923185E+01 -0.57047971216E+02  0.12135684079E+04  0.12173714821E+04  0.77000000000E+02 0.  0.
<mgrwt>
<rscale>  0 0.20714597E+03</rscale>
<asrwt>0</asrwt>
<pdfrwt beam="1">  1        2 0.25316795E+00 0.20714597E+03</pdfrwt>
<pdfrwt beam="2">  1       -2 0.86474523E-03 0.20714597E+03</pdfrwt>
<totfact> 0.29626791E+04</totfact>
</mgrwt>
</event>
<event>
 4    1  0.6853809E-004  0.2262594E+03  0.7818608E-02  0.1129301E+00
         -2   -1    0    0    0  501 -0.00000000000E+00  0.00000000000E+00  0.75777678722E+01  0.75777683012E+01  0.25500000000E-02 0. -1.
          2   -1    0    0  501    0  0.00000000000E+00 -0.00000000000E+00 -0.16889310790E+04  0.16889310790E+04  0.25500000000E-02 0.  1.
    5000001    1    1    2    0    0  0.73481275532E+02  0.38040851572E+02 -0.80493374458E+03  0.81283081721E+03  0.77000000000E+02 0.  0.
   -5000001    1    1    2    0    0 -0.73481275532E+02 -0.38040851572E+02 -0.87641956655E+03  0.88367803009E+03  0.77000000000E+02 0.  0.
<mgrwt>
<rscale>  0 0.22625939E+03</rscale>
<asrwt>0</asrwt>
<pdfrwt beam="1">  1        2 0.24127563E+00 0.22625939E+03</pdfrwt>
<pdfrwt beam="2">  1       -2 0.10825394E-02 0.22625939E+03</pdfrwt>
<totfact> 0.23621053E+04</totfact>
</mgrwt>
</event>
<event>
 4    1  0.6853809E-004  0.2691620E+03  0.7818608E-02  0.1101760E+00
          2   -1    0    0  501    0  0.00000000000E+00  0.00000000000E+00  0.22169315161E+04  0.22169315161E+04  0.25500000000E-02 0.  1.
         -2   -1    0    0    0  501 -0.00000000000E+00 -0.00000000000E+00 -0.81698710773E+01  0.81698714753E+01  0.25500000000E-02 0. -1.
    5000001    1    1    2    0    0  0.20230213909E+02 -0.92131721637E+02  0.15782284868E+04  0.15829187194E+04  0.77000000000E+02 0.  0.
   -5000001    1    1    2    0    0 -0.20230213909E+02  0.92131721637E+02  0.63053315827E+03  0.64218266822E+03  0.77000000000E+02 0.  0.
<mgrwt>
<rscale>  0 0.26916200E+03</rscale>
<asrwt>0</asrwt>
<pdfrwt beam="1">  1        2 0.31670480E+00 0.26916200E+03</pdfrwt>
<pdfrwt beam="2">  1       -2 0.11671234E-02 0.26916200E+03</pdfrwt>
<totfact> 0.11776236E+04</totfact>
</mgrwt>
</event>
<event>
 4    1  0.6853809E-004  0.2957894E+03  0.7818608E-02  0.1087365E+00
          2   -1    0    0  501    0  0.00000000000E+00  0.00000000000E+00  0.50619772673E+03  0.50619772673E+03  0.25500000000E-02 0.  1.
         -2   -1    0    0    0  501 -0.00000000000E+00 -0.00000000000E+00 -0.43210087872E+02  0.43210087948E+02  0.25500000000E-02 0. -1.
    5000001    1    1    2    0    0  0.72761949015E+01  0.26594578176E+02  0.26179404257E+01  0.81829506980E+02  0.77000000000E+02 0.  0.
   -5000001    1    1    2    0    0 -0.72761949015E+01 -0.26594578176E+02  0.46036969843E+03  0.46757830770E+03  0.77000000000E+02 0.  0.
<mgrwt>
<rscale>  0 0.29578944E+03</rscale>
<asrwt>0</asrwt>
<pdfrwt beam="1">  1        2 0.72313954E-01 0.29578944E+03</pdfrwt>
<pdfrwt beam="2">  1       -2 0.61728703E-02 0.29578944E+03</pdfrwt>
<totfact> 0.94319782E+03</totfact>
</mgrwt>
</event>
<event>
 4    1  0.6853809E-004  0.3122592E+03  0.7818608E-02  0.1079268E+00
          2   -1    0    0  501    0  0.00000000000E+00  0.00000000000E+00  0.15402254604E+03  0.15402254606E+03  0.25500000000E-02 0.  1.
         -2   -1    0    0    0  501 -0.00000000000E+00 -0.00000000000E+00 -0.15826544445E+03  0.15826544447E+03  0.25500000000E-02 0. -1.
    5000001    1    1    2    0    0 -0.10379154489E+03 -0.62138740092E+02 -0.63881007029E+02  0.15698309103E+03  0.77000000000E+02 0.  0.
   -5000001    1    1    2    0    0  0.10379154489E+03  0.62138740092E+02  0.59638108624E+02  0.15530489950E+03  0.77000000000E+02 0.  0.
<mgrwt>
<rscale>  0 0.31225917E+03</rscale>
<asrwt>0</asrwt>
<pdfrwt beam="1">  1        2 0.22003221E-01 0.31225917E+03</pdfrwt>
<pdfrwt beam="2">  1       -2 0.22609349E-01 0.31225917E+03</pdfrwt>
<totfact> 0.42220042E+03</totfact>
</mgrwt>
</event>
<event>
 4    1  0.6853809E-004  0.4858712E+03  0.7818608E-02  0.1017534E+00
         -2   -1    0    0    0  501 -0.00000000000E+00  0.00000000000E+00  0.37429662787E+02  0.37429662873E+02  0.25500000000E-02 0. -1.
          2   -1    0    0  501    0  0.00000000000E+00 -0.00000000000E+00 -0.15767630164E+04  0.15767630164E+04  0.25500000000E-02 0.  1.
    5000001    1    1    2    0    0  0.82702103409E+02 -0.15371507594E+03 -0.12693417278E+04  0.12835986072E+04  0.77000000000E+02 0.  0.
   -5000001    1    1    2    0    0 -0.82702103409E+02  0.15371507594E+03 -0.26999162579E+03  0.33059407205E+03  0.77000000000E+02 0.  0.
<mgrwt>
<rscale>  0 0.48587121E+03</rscale>
<asrwt>0</asrwt>
<pdfrwt beam="1">  1        2 0.22525182E+00 0.48587121E+03</pdfrwt>
<pdfrwt beam="2">  1       -2 0.53470957E-02 0.48587121E+03</pdfrwt>
<totfact> 0.25140850E+03</totfact>
</mgrwt>
</event>
<event>
 4    1  0.6853809E-004  0.3615170E+03  0.7818608E-02  0.1057985E+00
         -2   -1    0    0    0  501 -0.00000000000E+00  0.00000000000E+00  0.14862374834E+03  0.14862374837E+03  0.25500000000E-02 0. -1.
          2   -1    0    0  501    0  0.00000000000E+00 -0.00000000000E+00 -0.21984131177E+03  0.21984131178E+03  0.25500000000E-02 0.  1.
    5000001    1    1    2    0    0 -0.10908560927E+03  0.83294409005E+02 -0.12623914722E+03  0.20174972370E+03  0.77000000000E+02 0.  0.
   -5000001    1    1    2    0    0  0.10908560927E+03 -0.83294409005E+02  0.55021583800E+02  0.16671533645E+03  0.77000000000E+02 0.  0.
<mgrwt>
<rscale>  0 0.36151702E+03</rscale>
<asrwt>0</asrwt>
<pdfrwt beam="1">  1        2 0.31405902E-01 0.36151702E+03</pdfrwt>
<pdfrwt beam="2">  1       -2 0.21231964E-01 0.36151702E+03</pdfrwt>
<totfact> 0.31746561E+03</totfact>
</mgrwt>
</event>
<event>
 4    1  0.6853809E-004  0.2177411E+03  0.7818608E-02  0.1135578E+00
          2   -1    0    0  501    0  0.00000000000E+00  0.00000000000E+00  0.17501644047E+03  0.17501644048E+03  0.25500000000E-02 0.  1.
         -2   -1    0    0    0  501 -0.00000000000E+00 -0.00000000000E+00 -0.67723908394E+02  0.67723908442E+02  0.25500000000E-02 0. -1.
    5000001    1    1    2    0    0  0.44146009534E+02 -0.55743765334E+01 -0.16364033556E+02  0.90425247723E+02  0.77000000000E+02 0.  0.
   -5000001    1    1    2    0    0 -0.44146009534E+02  0.55743765334E+01  0.12365656563E+03  0.15231510120E+03  0.77000000000E+02 0.  0.
<mgrwt>
<rscale>  0 0.21774111E+03</rscale>
<asrwt>0</asrwt>
<pdfrwt beam="1">  1        2 0.25002349E-01 0.21774111E+03</pdfrwt>
<pdfrwt beam="2">  1       -2 0.96748441E-02 0.21774111E+03</pdfrwt>
<totfact> 0.14629775E+04</totfact>
</mgrwt>
</event>
<event>
 4    1  0.6853809E-004  0.2233609E+03  0.7818608E-02  0.1131402E+00
         -2   -1    0    0    0  501 -0.00000000000E+00  0.00000000000E+00  0.30374647265E+02  0.30374647372E+02  0.25500000000E-02 0. -1.
          2   -1    0    0  501    0  0.00000000000E+00 -0.00000000000E+00 -0.41062274040E+03  0.41062274041E+03  0.25500000000E-02 0.  1.
    5000001    1    1    2    0    0  0.63268683163E+02 -0.47296143302E+02 -0.15571841961E+03  0.19083259063E+03  0.77000000000E+02 0.  0.
   -5000001    1    1    2    0    0 -0.63268683163E+02  0.47296143302E+02 -0.22452967353E+03  0.25016479715E+03  0.77000000000E+02 0.  0.
<mgrwt>
<rscale>  0 0.22336088E+03</rscale>
<asrwt>0</asrwt>
<pdfrwt beam="1">  1        2 0.58660388E-01 0.22336088E+03</pdfrwt>
<pdfrwt beam="2">  1       -2 0.43392356E-02 0.22336088E+03</pdfrwt>
<totfact> 0.19976807E+04</totfact>
</mgrwt>
</event>
<event>
 4    1  0.6853809E-004  0.2505619E+03  0.7818608E-02  0.1112950E+00
          2   -1    0    0  501    0  0.00000000000E+00  0.00000000000E+00  0.20647241065E+04  0.20647241065E+04  0.25500000000E-02 0.  1.
         -2   -1    0    0    0  501 -0.00000000000E+00 -0.00000000000E+00 -0.76016516319E+01  0.76016520596E+01  0.25500000000E-02 0. -1.
    5000001    1    1    2    0    0  0.58719837838E+02 -0.72828242998E+02  0.76514949079E+03  0.77468362290E+03  0.77000000000E+02 0.  0.
   -5000001    1    1    2    0    0 -0.58719837838E+02  0.72828242998E+02  0.12919729641E+04  0.12976421357E+04  0.77000000000E+02 0.  0.
<mgrwt>
<rscale>  0 0.25056188E+03</rscale>
<asrwt>0</asrwt>
<pdfrwt beam="1">  1        2 0.29496089E+00 0.25056188E+03</pdfrwt>
<pdfrwt beam="2">  1       -2 0.10859491E-02 0.25056188E+03</pdfrwt>
<totfact> 0.15490360E+04</totfact>
</mgrwt>
</event>
<event>
 4    1  0.6853809E-004  0.2604949E+03  0.7818608E-02  0.1106846E+00
          2   -1    0    0  501    0  0.00000000000E+00  0.00000000000E+00  0.83547697801E+03  0.83547697801E+03  0.25500000000E-02 0.  1.
         -2   -1    0    0    0  501 -0.00000000000E+00 -0.00000000000E+00 -0.20305042344E+02  0.20305042504E+02  0.25500000000E-02 0. -1.
    5000001    1    1    2    0    0 -0.84316952488E+02  0.49965905492E+02  0.53179387873E+03  0.54620478728E+03  0.77000000000E+02 0.  0.
   -5000001    1    1    2    0    0  0.84316952488E+02 -0.49965905492E+02  0.28337805693E+03  0.30957723323E+03  0.77000000000E+02 0.  0.
<mgrwt>
<rscale>  0 0.26049488E+03</rscale>
<asrwt>0</asrwt>
<pdfrwt beam="1">  1        2 0.11935384E+00 0.26049488E+03</pdfrwt>
<pdfrwt beam="2">  1       -2 0.29007208E-02 0.26049488E+03</pdfrwt>
<totfact> 0.16320329E+04</totfact>
</mgrwt>
</event>
<event>
 4    1  0.6853809E-004  0.1761041E+03  0.7818608E-02  0.1171628E+00
          2   -1    0    0  501    0  0.00000000000E+00  0.00000000000E+00  0.58941926463E+03  0.58941926464E+03  0.25500000000E-02 0.  1.
         -2   -1    0    0    0  501 -0.00000000000E+00 -0.00000000000E+00 -0.13153897277E+02  0.13153897524E+02  0.25500000000E-02 0. -1.
    5000001    1    1    2    0    0  0.24608925519E+02 -0.30328321470E+02  0.34727487857E+03  0.35784668167E+03  0.77000000000E+02 0.  0.
   -5000001    1    1    2    0    0 -0.24608925519E+02  0.30328321470E+02  0.22899048879E+03  0.24472648049E+03  0.77000000000E+02 0.  0.
<mgrwt>
<rscale>  0 0.17610407E+03</rscale>
<asrwt>0</asrwt>
<pdfrwt beam="1">  1        2 0.84202763E-01 0.17610407E+03</pdfrwt>
<pdfrwt beam="2">  1       -2 0.18791280E-02 0.17610407E+03</pdfrwt>
<totfact> 0.45434643E+04</totfact>
</mgrwt>
</event>
<event>
 4    1  0.6853809E-004  0.2440877E+03  0.7818608E-02  0.1117099E+00
          2   -1    0    0  501    0  0.00000000000E+00  0.00000000000E+00  0.29568702871E+03  0.29568702872E+03  0.25500000000E-02 0.  1.
         -2   -1    0    0    0  501 -0.00000000000E+00 -0.00000000000E+00 -0.50373213862E+02  0.50373213927E+02  0.25500000000E-02 0. -1.
    5000001    1    1    2    0    0  0.64929228713E+02 -0.65513467931E+02  0.92319059374E+02  0.15152434770E+03  0.77000000000E+02 0.  0.
   -5000001    1    1    2    0    0 -0.64929228713E+02  0.65513467931E+02  0.15299475548E+03  0.19453589495E+03  0.77000000000E+02 0.  0.
<mgrwt>
<rscale>  0 0.24408774E+03</rscale>
<asrwt>0</asrwt>
<pdfrwt beam="1">  1        2 0.42241004E-01 0.24408774E+03</pdfrwt>
<pdfrwt beam="2">  1       -2 0.71961735E-02 0.24408774E+03</pdfrwt>
<totfact> 0.13213551E+04</totfact>
</mgrwt>
</event>
<event>
 4    1  0.6853809E-004  0.2507498E+03  0.7818608E-02  0.1112832E+00
          2   -1    0    0  501    0  0.00000000000E+00  0.00000000000E+00  0.10496758415E+04  0.10496758415E+04  0.25500000000E-02 0.  1.
         -2   -1    0    0    0  501 -0.00000000000E+00 -0.00000000000E+00 -0.14974970062E+02  0.14974970279E+02  0.25500000000E-02 0. -1.
    5000001    1    1    2    0    0 -0.85920477665E+02  0.19774298810E+02  0.32668712601E+03  0.34702569023E+03  0.77000000000E+02 0.  0.
   -5000001    1    1    2    0    0  0.85920477665E+02 -0.19774298810E+02  0.70801374547E+03  0.71762512160E+03  0.77000000000E+02 0.  0.
<mgrwt>
<rscale>  0 0.25074979E+03</rscale>
<asrwt>0</asrwt>
<pdfrwt beam="1">  1        2 0.14995375E+00 0.25074979E+03</pdfrwt>
<pdfrwt beam="2">  1       -2 0.21392806E-02 0.25074979E+03</pdfrwt>
<totfact> 0.18913645E+04</totfact>
</mgrwt>
</event>
<event>
 4    1  0.6853809E-004  0.1007086E+04  0.7818608E-02  0.9300807E-01
          2   -1    0    0  501    0  0.00000000000E+00  0.00000000000E+00  0.64875320643E+03  0.64875320643E+03  0.25500000000E-02 0.  1.
         -2   -1    0    0    0  501 -0.00000000000E+00 -0.00000000000E+00 -0.39083536264E+03  0.39083536265E+03  0.25500000000E-02 0. -1.
    5000001    1    1    2    0    0  0.15682241158E+03 -0.41397397786E+03  0.36358036052E+03  0.57800294261E+03  0.77000000000E+02 0.  0.
   -5000001    1    1    2    0    0 -0.15682241158E+03  0.41397397786E+03 -0.10566251673E+03  0.46158562646E+03  0.77000000000E+02 0.  0.
<mgrwt>
<rscale>  0 0.10070863E+04</rscale>
<asrwt>0</asrwt>
<pdfrwt beam="1">  1        2 0.92679030E-01 0.10070863E+04</pdfrwt>
<pdfrwt beam="2">  1       -2 0.55833623E-01 0.10070863E+04</pdfrwt>
<totfact> 0.14859617E+02</totfact>
</mgrwt>
</event>
<event>
 4    1  0.6853809E-004  0.4971231E+03  0.7818608E-02  0.1014533E+00
          2   -1    0    0  501    0  0.00000000000E+00  0.00000000000E+00  0.12192346110E+04  0.12192346110E+04  0.25500000000E-02 0.  1.
         -2   -1    0    0    0  501 -0.00000000000E+00 -0.00000000000E+00 -0.50673458933E+02  0.50673458997E+02  0.25500000000E-02 0. -1.
    5000001    1    1    2    0    0 -0.16737905185E+03  0.16230850808E+03  0.68301962428E+03  0.72581306543E+03  0.77000000000E+02 0.  0.
   -5000001    1    1    2    0    0  0.16737905185E+03 -0.16230850808E+03  0.48554152776E+03  0.54409500455E+03  0.77000000000E+02 0.  0.
<mgrwt>
<rscale>  0 0.49712306E+03</rscale>
<asrwt>0</asrwt>
<pdfrwt beam="1">  1        2 0.17417640E+00 0.49712306E+03</pdfrwt>
<pdfrwt beam="2">  1       -2 0.72390646E-02 0.49712306E+03</pdfrwt>
<totfact> 0.24203782E+03</totfact>
</mgrwt>
</event>
<event>
 4    1  0.6853809E-004  0.2160708E+03  0.7818608E-02  0.1136847E+00
         -2   -1    0    0    0  501 -0.00000000000E+00  0.00000000000E+00  0.72056660166E+03  0.72056660166E+03  0.25500000000E-02 0. -1.
          2   -1    0    0  501    0  0.00000000000E+00 -0.00000000000E+00 -0.16197873724E+02  0.16197873924E+02  0.25500000000E-02 0.  1.
    5000001    1    1    2    0    0  0.28078060429E+02  0.64265448209E+02  0.25429069537E+03  0.27479298219E+03  0.77000000000E+02 0.  0.
   -5000001    1    1    2    0    0 -0.28078060429E+02 -0.64265448209E+02  0.45007803257E+03  0.46197149339E+03  0.77000000000E+02 0.  0.
<mgrwt>
<rscale>  0 0.21607079E+03</rscale>
<asrwt>0</asrwt>
<pdfrwt beam="1">  1        2 0.23139819E-02 0.21607079E+03</pdfrwt>
<pdfrwt beam="2">  1       -2 0.10293809E+00 0.21607079E+03</pdfrwt>
<totfact> 0.35315668E+03</totfact>
</mgrwt>
</event>
<event>
 4    1  0.6853809E-004  0.2187112E+03  0.7818608E-02  0.1134848E+00
         -2   -1    0    0    0  501 -0.00000000000E+00  0.00000000000E+00  0.13437160884E+02  0.13437161126E+02  0.25500000000E-02 0. -1.
          2   -1    0    0  501    0  0.00000000000E+00 -0.00000000000E+00 -0.88996797444E+03  0.88996797445E+03  0.25500000000E-02 0.  1.
    5000001    1    1    2    0    0 -0.74716215831E+02 -0.20520847807E+02 -0.41719340327E+03  0.43125741018E+03  0.77000000000E+02 0.  0.
   -5000001    1    1    2    0    0  0.74716215831E+02  0.20520847807E+02 -0.45933741029E+03  0.47214772540E+03  0.77000000000E+02 0.  0.
<mgrwt>
<rscale>  0 0.21871116E+03</rscale>
<asrwt>0</asrwt>
<pdfrwt beam="1">  1        2 0.12713824E+00 0.21871116E+03</pdfrwt>
<pdfrwt beam="2">  1       -2 0.19195950E-02 0.21871116E+03</pdfrwt>
<totfact> 0.27414221E+04</totfact>
</mgrwt>
</event>
<event>
 4    1  0.6853809E-004  0.2849155E+03  0.7818608E-02  0.1093034E+00
          2   -1    0    0  501    0  0.00000000000E+00  0.00000000000E+00  0.74764869002E+03  0.74764869002E+03  0.25500000000E-02 0.  1.
         -2   -1    0    0    0  501 -0.00000000000E+00 -0.00000000000E+00 -0.27144053242E+02  0.27144053362E+02  0.25500000000E-02 0. -1.
    5000001    1    1    2    0    0  0.77586601091E+02  0.29658836203E+02  0.12528353658E+03  0.16889136086E+03  0.77000000000E+02 0.  0.
   -5000001    1    1    2    0    0 -0.77586601091E+02 -0.29658836203E+02  0.59522110019E+03  0.60590138253E+03  0.77000000000E+02 0.  0.
<mgrwt>
<rscale>  0 0.28491554E+03</rscale>
<asrwt>0</asrwt>
<pdfrwt beam="1">  1        2 0.10680696E+00 0.28491554E+03</pdfrwt>
<pdfrwt beam="2">  1       -2 0.38777218E-02 0.28491554E+03</pdfrwt>
<totfact> 0.12175897E+04</totfact>
</mgrwt>
</event>
<event>
 4    1  0.6853809E-004  0.1853677E+03  0.7818608E-02  0.1162707E+00
          2   -1    0    0  501    0  0.00000000000E+00  0.00000000000E+00  0.59968120477E+03  0.59968120478E+03  0.25500000000E-02 0.  1.
         -2   -1    0    0    0  501 -0.00000000000E+00 -0.00000000000E+00 -0.14324770552E+02  0.14324770779E+02  0.25500000000E-02 0. -1.
    5000001    1    1    2    0    0 -0.50461569287E+02  0.80648598387E+01  0.31607296059E+03  0.32930613167E+03  0.77000000000E+02 0.  0.
   -5000001    1    1    2    0    0  0.50461569287E+02 -0.80648598387E+01  0.26928347363E+03  0.28469984389E+03  0.77000000000E+02 0.  0.
<mgrwt>
<rscale>  0 0.18536770E+03</rscale>
<asrwt>0</asrwt>
<pdfrwt beam="1">  1        2 0.85668753E-01 0.18536770E+03</pdfrwt>
<pdfrwt beam="2">  1       -2 0.20463956E-02 0.18536770E+03</pdfrwt>
<totfact> 0.39530448E+04</totfact>
</mgrwt>
</event>
<event>
 4    1  0.6853809E-004  0.2180428E+03  0.7818608E-02  0.1135351E+00
         -2   -1    0    0    0  501 -0.00000000000E+00  0.00000000000E+00  0.66840648631E+02  0.66840648680E+02  0.25500000000E-02 0. -1.
          2   -1    0    0  501    0  0.00000000000E+00 -0.00000000000E+00 -0.17782093647E+03  0.17782093648E+03  0.25500000000E-02 0.  1.
    5000001    1    1    2    0    0 -0.12282569187E+02 -0.68520006609E+02 -0.18092462837E+02  0.10536693041E+03  0.77000000000E+02 0.  0.
   -5000001    1    1    2    0    0  0.12282569187E+02  0.68520006609E+02 -0.92887824997E+02  0.13929465476E+03  0.77000000000E+02 0.  0.
<mgrwt>
<rscale>  0 0.21804281E+03</rscale>
<asrwt>0</asrwt>
<pdfrwt beam="1">  1        2 0.25402991E-01 0.21804281E+03</pdfrwt>
<pdfrwt beam="2">  1       -2 0.95486641E-02 0.21804281E+03</pdfrwt>
<totfact> 0.14675723E+04</totfact>
</mgrwt>
</event>
<event>
 4    1  0.6853809E-004  0.2957529E+03  0.7818608E-02  0.1087383E+00
         -2   -1    0    0    0  501 -0.00000000000E+00  0.00000000000E+00  0.17662558975E+02  0.17662559159E+02  0.25500000000E-02 0. -1.
          2   -1    0    0  501    0  0.00000000000E+00 -0.00000000000E+00 -0.12380678739E+04  0.12380678739E+04  0.25500000000E-02 0.  1.
    5000001    1    1    2    0    0 -0.12247775592E+03  0.22037875169E+02 -0.70046907023E+03  0.71559233295E+03  0.77000000000E+02 0.  0.
   -5000001    1    1    2    0    0  0.12247775592E+03 -0.22037875169E+02 -0.51993624465E+03  0.54013810006E+03  0.77000000000E+02 0.  0.
<mgrwt>
<rscale>  0 0.29575292E+03</rscale>
<asrwt>0</asrwt>
<pdfrwt beam="1">  1        2 0.17686678E+00 0.29575292E+03</pdfrwt>
<pdfrwt beam="2">  1       -2 0.25232235E-02 0.29575292E+03</pdfrwt>
<totfact> 0.11725186E+04</totfact>
</mgrwt>
</event>
<event>
 4    1  0.6853809E-004  0.1851878E+03  0.7818608E-02  0.1162875E+00
         -2   -1    0    0    0  501 -0.00000000000E+00  0.00000000000E+00  0.12314278753E+02  0.12314279017E+02  0.25500000000E-02 0. -1.
          2   -1    0    0  501    0  0.00000000000E+00 -0.00000000000E+00 -0.69623500346E+03  0.69623500347E+03  0.25500000000E-02 0.  1.
    5000001    1    1    2    0    0 -0.35859199790E+02 -0.36664227798E+02 -0.32739890497E+03  0.34021932747E+03  0.77000000000E+02 0.  0.
   -5000001    1    1    2    0    0  0.35859199790E+02  0.36664227798E+02 -0.35652181974E+03  0.36832995502E+03  0.77000000000E+02 0.  0.
<mgrwt>
<rscale>  0 0.18518782E+03</rscale>
<asrwt>0</asrwt>
<pdfrwt beam="1">  1        2 0.99462118E-01 0.18518782E+03</pdfrwt>
<pdfrwt beam="2">  1       -2 0.17591831E-02 0.18518782E+03</pdfrwt>
<totfact> 0.41508618E+04</totfact>
</mgrwt>
</event>
<event>
 4    1  0.6853809E-004  0.3388804E+03  0.7818608E-02  0.1067274E+00
         -2   -1    0    0    0  501 -0.00000000000E+00  0.00000000000E+00  0.25011654864E+03  0.25011654865E+03  0.25500000000E-02 0. -1.
          2   -1    0    0  501    0  0.00000000000E+00 -0.00000000000E+00 -0.11478639563E+03  0.11478639566E+03  0.25500000000E-02 0.  1.
    5000001    1    1    2    0    0  0.99010802698E+02 -0.95576022117E+02  0.13441790115E+03  0.20720783577E+03  0.77000000000E+02 0.  0.
   -5000001    1    1    2    0    0 -0.99010802698E+02  0.95576022117E+02  0.91225186028E+00  0.15769510854E+03  0.77000000000E+02 0.  0.
<mgrwt>
<rscale>  0 0.33888037E+03</rscale>
<asrwt>0</asrwt>
<pdfrwt beam="1">  1        2 0.16398056E-01 0.33888037E+03</pdfrwt>
<pdfrwt beam="2">  1       -2 0.35730936E-01 0.33888037E+03</pdfrwt>
<totfact> 0.25994779E+03</totfact>
</mgrwt>
</event>
<event>
 4    1  0.6853809E-004  0.2299996E+03  0.7818608E-02  0.1126640E+00
         -2   -1    0    0    0  501 -0.00000000000E+00  0.00000000000E+00  0.80701855900E+01  0.80701859928E+01  0.25500000000E-02 0. -1.
          2   -1    0    0  501    0  0.00000000000E+00 -0.00000000000E+00 -0.16387415569E+04  0.16387415569E+04  0.25500000000E-02 0.  1.
    5000001    1    1    2    0    0  0.73112666392E+02  0.39832728888E+02 -0.67876027613E+03  0.68816903500E+03  0.77000000000E+02 0.  0.
   -5000001    1    1    2    0    0 -0.73112666392E+02 -0.39832728888E+02 -0.95191109518E+03  0.95864270790E+03  0.77000000000E+02 0.  0.
<mgrwt>
<rscale>  0 0.22999956E+03</rscale>
<asrwt>0</asrwt>
<pdfrwt beam="1">  1        2 0.23410572E+00 0.22999956E+03</pdfrwt>
<pdfrwt beam="2">  1       -2 0.11528847E-02 0.22999956E+03</pdfrwt>
<totfact> 0.22838638E+04</totfact>
</mgrwt>
</event>
<event>
 4    1  0.6853809E-004  0.2598907E+03  0.7818608E-02  0.1107209E+00
         -2   -1    0    0    0  501 -0.00000000000E+00  0.00000000000E+00  0.76502373374E+02  0.76502373417E+02  0.25500000000E-02 0. -1.
          2   -1    0    0  501    0  0.00000000000E+00 -0.00000000000E+00 -0.22072253813E+03  0.22072253814E+03  0.25500000000E-02 0.  1.
    5000001    1    1    2    0    0  0.30185184264E+01 -0.98059467885E+02 -0.30370222714E+02  0.12835934373E+03  0.77000000000E+02 0.  0.
   -5000001    1    1    2    0    0 -0.30185184264E+01  0.98059467885E+02 -0.11384994204E+03  0.16886556783E+03  0.77000000000E+02 0.  0.
<mgrwt>
<rscale>  0 0.25989073E+03</rscale>
<asrwt>0</asrwt>
<pdfrwt beam="1">  1        2 0.31531791E-01 0.25989073E+03</pdfrwt>
<pdfrwt beam="2">  1       -2 0.10928911E-01 0.25989073E+03</pdfrwt>
<totfact> 0.94271684E+03</totfact>
</mgrwt>
</event>
<event>
 4    1  0.6853809E-004  0.6973492E+03  0.7818608E-02  0.9721776E-01
         -2   -1    0    0    0  501 -0.00000000000E+00  0.00000000000E+00  0.17015577725E+03  0.17015577727E+03  0.25500000000E-02 0. -1.
          2   -1    0    0  501    0  0.00000000000E+00 -0.00000000000E+00 -0.71448623435E+03  0.71448623436E+03  0.25500000000E-02 0.  1.
    5000001    1    1    2    0    0 -0.39653959098E+02 -0.26741975388E+03 -0.10459031646E+02  0.28129015727E+03  0.77000000000E+02 0.  0.
   -5000001    1    1    2    0    0  0.39653959098E+02  0.26741975388E+03 -0.53387142545E+03  0.60335185436E+03  0.77000000000E+02 0.  0.
<mgrwt>
<rscale>  0 0.69734915E+03</rscale>
<asrwt>0</asrwt>
<pdfrwt beam="1">  1        2 0.10206946E+00 0.69734915E+03</pdfrwt>
<pdfrwt beam="2">  1       -2 0.24307969E-01 0.69734915E+03</pdfrwt>
<totfact> 0.66396951E+02</totfact>
</mgrwt>
</event>
<event>
 4    1  0.6853809E-004  0.2070652E+03  0.7818608E-02  0.1143911E+00
         -2   -1    0    0    0  501 -0.00000000000E+00  0.00000000000E+00  0.13364992835E+02  0.13364993078E+02  0.25500000000E-02 0. -1.
          2   -1    0    0  501    0  0.00000000000E+00 -0.00000000000E+00 -0.80202038213E+03  0.80202038214E+03  0.25500000000E-02 0.  1.
    5000001    1    1    2    0    0 -0.68827148589E+02  0.38301091710E+01 -0.37000527483E+03  0.38416760603E+03  0.77000000000E+02 0.  0.
   -5000001    1    1    2    0    0  0.68827148589E+02 -0.38301091710E+01 -0.41865011446E+03  0.43121776918E+03  0.77000000000E+02 0.  0.
<mgrwt>
<rscale>  0 0.20706518E+03</rscale>
<asrwt>0</asrwt>
<pdfrwt beam="1">  1        2 0.11457431E+00 0.20706518E+03</pdfrwt>
<pdfrwt beam="2">  1       -2 0.19092852E-02 0.20706518E+03</pdfrwt>
<totfact> 0.31364979E+04</totfact>
</mgrwt>
</event>
<event>
 4    1  0.6853809E-004  0.2141244E+03  0.7818608E-02  0.1138341E+00
         -2   -1    0    0    0  501 -0.00000000000E+00  0.00000000000E+00  0.10719606762E+02  0.10719607065E+02  0.25500000000E-02 0. -1.
          2   -1    0    0  501    0  0.00000000000E+00 -0.00000000000E+00 -0.10692846094E+04  0.10692846094E+04  0.25500000000E-02 0.  1.
    5000001    1    1    2    0    0 -0.23304283699E+02 -0.41574761269E+02 -0.24122088893E+03  0.25765882028E+03  0.77000000000E+02 0.  0.
   -5000001    1    1    2    0    0  0.23304283699E+02  0.41574761269E+02 -0.81734411373E+03  0.82234539621E+03  0.77000000000E+02 0.  0.
<mgrwt>
<rscale>  0 0.21412436E+03</rscale>
<asrwt>0</asrwt>
<pdfrwt beam="1">  1        2 0.15275488E+00 0.21412436E+03</pdfrwt>
<pdfrwt beam="2">  1       -2 0.15313731E-02 0.21412436E+03</pdfrwt>
<totfact> 0.29798121E+04</totfact>
</mgrwt>
</event>
<event>
 4    1  0.6853809E-004  0.1857865E+03  0.7818608E-02  0.1162317E+00
          2   -1    0    0  501    0  0.00000000000E+00  0.00000000000E+00  0.26910251132E+03  0.26910251133E+03  0.25500000000E-02 0.  1.
         -2   -1    0    0    0  501 -0.00000000000E+00 -0.00000000000E+00 -0.32066430480E+02  0.32066430581E+02  0.25500000000E-02 0. -1.
    5000001    1    1    2    0    0 -0.39115857001E+02  0.34031837295E+02  0.12411964132E+03  0.15499323076E+03  0.77000000000E+02 0.  0.
   -5000001    1    1    2    0    0  0.39115857001E+02 -0.34031837295E+02  0.11291643952E+03  0.14617571116E+03  0.77000000000E+02 0.  0.
<mgrwt>
<rscale>  0 0.18578651E+03</rscale>
<asrwt>0</asrwt>
<pdfrwt beam="1">  1        2 0.38443216E-01 0.18578651E+03</pdfrwt>
<pdfrwt beam="2">  1       -2 0.45809187E-02 0.18578651E+03</pdfrwt>
<totfact> 0.28551929E+04</totfact>
</mgrwt>
</event>
<event>
 4    1  0.6853809E-004  0.1719543E+03  0.7818608E-02  0.1175825E+00
         -2   -1    0    0    0  501 -0.00000000000E+00  0.00000000000E+00  0.15614060437E+02  0.15614060645E+02  0.25500000000E-02 0. -1.
          2   -1    0    0  501    0  0.00000000000E+00 -0.00000000000E+00 -0.47342369168E+03  0.47342369168E+03  0.25500000000E-02 0.  1.
    5000001    1    1    2    0    0 -0.37382194243E+02 -0.27525881127E+01 -0.20723417652E+03  0.22423204299E+03  0.77000000000E+02 0.  0.
   -5000001    1    1    2    0    0  0.37382194243E+02  0.27525881127E+01 -0.25057545472E+03  0.26480570934E+03  0.77000000000E+02 0.  0.
<mgrwt>
<rscale>  0 0.17195425E+03</rscale>
<asrwt>0</asrwt>
<pdfrwt beam="1">  1        2 0.67631947E-01 0.17195425E+03</pdfrwt>
<pdfrwt beam="2">  1       -2 0.22305804E-02 0.17195425E+03</pdfrwt>
<totfact> 0.44951349E+04</totfact>
</mgrwt>
</event>
<event>
 4    1  0.6853809E-004  0.3883902E+03  0.7818608E-02  0.1047876E+00
          2   -1    0    0  501    0  0.00000000000E+00  0.00000000000E+00  0.28084680522E+04  0.28084680522E+04  0.25500000000E-02 0. -1.
         -2   -1    0    0    0  501 -0.00000000000E+00 -0.00000000000E+00 -0.13427867806E+02  0.13427868048E+02  0.25500000000E-02 0.  1.
    5000001    1    1    2    0    0  0.47527812753E+02 -0.12277388892E+03  0.52412063848E+03  0.54586057236E+03  0.77000000000E+02 0.  0.
   -5000001    1    1    2    0    0 -0.47527812753E+02  0.12277388892E+03  0.22709195459E+04  0.22760353479E+04  0.77000000000E+02 0.  0.
<mgrwt>
<rscale>  0 0.38839021E+03</rscale>
<asrwt>0</asrwt>
<pdfrwt beam="1">  1        2 0.40120926E+00 0.38839021E+03</pdfrwt>
<pdfrwt beam="2">  1       -2 0.19182691E-02 0.38839021E+03</pdfrwt>
<totfact> 0.28509745E+03</totfact>
</mgrwt>
</event>
<event>
 4    1  0.6853809E-004  0.1995738E+03  0.7818608E-02  0.1150099E+00
         -2   -1    0    0    0  501 -0.00000000000E+00  0.00000000000E+00  0.62837501296E+01  0.62837506470E+01  0.25500000000E-02 0. -1.
          2   -1    0    0  501    0  0.00000000000E+00 -0.00000000000E+00 -0.15846314192E+04  0.15846314192E+04  0.25500000000E-02 0.  1.
    5000001    1    1    2    0    0 -0.34355222346E+01 -0.23924965746E+02 -0.32134286263E+03  0.33132226331E+03  0.77000000000E+02 0.  0.
   -5000001    1    1    2    0    0  0.34355222346E+01  0.23924965746E+02 -0.12570048064E+04  0.12595929065E+04  0.77000000000E+02 0.  0.
<mgrwt>
<rscale>  0 0.19957383E+03</rscale>
<asrwt>0</asrwt>
<pdfrwt beam="1">  1        2 0.22637566E+00 0.19957383E+03</pdfrwt>
<pdfrwt beam="2">  1       -2 0.89767964E-03 0.19957383E+03</pdfrwt>
<totfact> 0.34600218E+04</totfact>
</mgrwt>
</event>
<event>
 4    1  0.6853809E-004  0.5743433E+03  0.7818608E-02  0.9960113E-01
          2   -1    0    0  501    0  0.00000000000E+00  0.00000000000E+00  0.24084864885E+03  0.24084864886E+03  0.25500000000E-02 0.  1.
         -2   -1    0    0    0  501 -0.00000000000E+00 -0.00000000000E+00 -0.34240401959E+03  0.34240401960E+03  0.25500000000E-02 0. -1.
    5000001    1    1    2    0    0 -0.15548457104E+03  0.39509884024E+02  0.17811181838E+03  0.25177232297E+03  0.77000000000E+02 0.  0.
   -5000001    1    1    2    0    0  0.15548457104E+03 -0.39509884024E+02 -0.27966718913E+03  0.33148034549E+03  0.77000000000E+02 0.  0.
<mgrwt>
<rscale>  0 0.57434326E+03</rscale>
<asrwt>0</asrwt>
<pdfrwt beam="1">  1        2 0.34406950E-01 0.57434326E+03</pdfrwt>
<pdfrwt beam="2">  1       -2 0.48914859E-01 0.57434326E+03</pdfrwt>
<totfact> 0.60750376E+02</totfact>
</mgrwt>
</event>
<event>
 4    1  0.6853809E-004  0.2561027E+03  0.7818608E-02  0.1109508E+00
         -2   -1    0    0    0  501 -0.00000000000E+00  0.00000000000E+00  0.86878955363E+01  0.86878959105E+01  0.25500000000E-02 0. -1.
          2   -1    0    0  501    0  0.00000000000E+00 -0.00000000000E+00 -0.18873551091E+04  0.18873551091E+04  0.25500000000E-02 0.  1.
    5000001    1    1    2    0    0  0.19701953944E+02  0.99751278319E+02 -0.10236354105E+04  0.10315507443E+04  0.77000000000E+02 0.  0.
   -5000001    1    1    2    0    0 -0.19701953944E+02 -0.99751278319E+02 -0.85503180311E+03  0.86449226072E+03  0.77000000000E+02 0.  0.
<mgrwt>
<rscale>  0 0.25610267E+03</rscale>
<asrwt>0</asrwt>
<pdfrwt beam="1">  1        2 0.26962190E+00 0.25610267E+03</pdfrwt>
<pdfrwt beam="2">  1       -2 0.12411292E-02 0.25610267E+03</pdfrwt>
<totfact> 0.15568912E+04</totfact>
</mgrwt>
</event>
<event>
 4    1  0.6853809E-004  0.3574624E+03  0.7818608E-02  0.1059593E+00
          2   -1    0    0  501    0  0.00000000000E+00  0.00000000000E+00  0.49515313524E+03  0.49515313524E+03  0.25500000000E-02 0.  1.
         -2   -1    0    0    0  501 -0.00000000000E+00 -0.00000000000E+00 -0.64515058982E+02  0.64515059032E+02  0.25500000000E-02 0. -1.
    5000001    1    1    2    0    0 -0.11667373891E+03  0.10171938837E+03  0.28631555617E+03  0.33446254354E+03  0.77000000000E+02 0.  0.
   -5000001    1    1    2    0    0  0.11667373891E+03 -0.10171938837E+03  0.14432252008E+03  0.22520565074E+03  0.77000000000E+02 0.  0.
<mgrwt>
<rscale>  0 0.35746235E+03</rscale>
<asrwt>0</asrwt>
<pdfrwt beam="1">  1        2 0.70736160E-01 0.35746235E+03</pdfrwt>
<pdfrwt beam="2">  1       -2 0.92164372E-02 0.35746235E+03</pdfrwt>
<totfact> 0.51954666E+03</totfact>
</mgrwt>
</event>
<event>
 4    1  0.6853809E-004  0.1736550E+03  0.7818608E-02  0.1174089E+00
         -2   -1    0    0    0  501 -0.00000000000E+00  0.00000000000E+00  0.12184062049E+02  0.12184062316E+02  0.25500000000E-02 0. -1.
          2   -1    0    0  501    0  0.00000000000E+00 -0.00000000000E+00 -0.61876066584E+03  0.61876066585E+03  0.25500000000E-02 0.  1.
    5000001    1    1    2    0    0  0.33529524268E+02 -0.19029667161E+02 -0.34369195649E+03  0.35431556300E+03  0.77000000000E+02 0.  0.
   -5000001    1    1    2    0    0 -0.33529524268E+02  0.19029667161E+02 -0.26288464730E+03  0.27662916516E+03  0.77000000000E+02 0.  0.
<mgrwt>
<rscale>  0 0.17365504E+03</rscale>
<asrwt>0</asrwt>
<pdfrwt beam="1">  1        2 0.88394361E-01 0.17365504E+03</pdfrwt>
<pdfrwt beam="2">  1       -2 0.17405807E-02 0.17365504E+03</pdfrwt>
<totfact> 0.48015616E+04</totfact>
</mgrwt>
</event>
<event>
 4    1  0.6853809E-004  0.3035956E+03  0.7818608E-02  0.1083457E+00
         -2   -1    0    0    0  501 -0.00000000000E+00  0.00000000000E+00  0.89806063786E+02  0.89806063822E+02  0.25500000000E-02 0. -1.
          2   -1    0    0  501    0  0.00000000000E+00 -0.00000000000E+00 -0.25658153343E+03  0.25658153345E+03  0.25500000000E-02 0.  1.
    5000001    1    1    2    0    0  0.41463028412E+02  0.85221360315E+02 -0.18627411128E+03  0.22273057157E+03  0.77000000000E+02 0.  0.
   -5000001    1    1    2    0    0 -0.41463028412E+02 -0.85221360315E+02  0.19498641632E+02  0.12365702570E+03  0.77000000000E+02 0.  0.
<mgrwt>
<rscale>  0 0.30359564E+03</rscale>
<asrwt>0</asrwt>
<pdfrwt beam="1">  1        2 0.36654505E-01 0.30359564E+03</pdfrwt>
<pdfrwt beam="2">  1       -2 0.12829438E-01 0.30359564E+03</pdfrwt>
<totfact> 0.62158086E+03</totfact>
</mgrwt>
</event>
<event>
 4    1  0.6853809E-004  0.2109077E+03  0.7818608E-02  0.1140849E+00
         -2   -1    0    0    0  501 -0.00000000000E+00  0.00000000000E+00  0.68468240832E+01  0.68468245580E+01  0.25500000000E-02 0. -1.
          2   -1    0    0  501    0  0.00000000000E+00 -0.00000000000E+00 -0.16241850988E+04  0.16241850989E+04  0.25500000000E-02 0.  1.
    5000001    1    1    2    0    0 -0.33941190571E+02  0.42242436107E+02 -0.44142801821E+03  0.45135808743E+03  0.77000000000E+02 0.  0.
   -5000001    1    1    2    0    0  0.33941190571E+02 -0.42242436107E+02 -0.11759102566E+04  0.11796738360E+04  0.77000000000E+02 0.  0.
<mgrwt>
<rscale>  0 0.21090766E+03</rscale>
<asrwt>0</asrwt>
<pdfrwt beam="1">  1        2 0.23202620E+00 0.21090766E+03</pdfrwt>
<pdfrwt beam="2">  1       -2 0.97811880E-03 0.21090766E+03</pdfrwt>
<totfact> 0.29326012E+04</totfact>
</mgrwt>
</event>
<event>
 4    1  0.6853809E-004  0.4451413E+03  0.7818608E-02  0.1029181E+00
          2   -1    0    0  501    0  0.00000000000E+00  0.00000000000E+00  0.55963212340E+03  0.55963212340E+03  0.25500000000E-02 0.  1.
         -2   -1    0    0    0  501 -0.00000000000E+00 -0.00000000000E+00 -0.88518333220E+02  0.88518333257E+02  0.25500000000E-02 0. -1.
    5000001    1    1    2    0    0 -0.15110725673E+03  0.13810685857E+03  0.17549049929E+03  0.28041544672E+03  0.77000000000E+02 0.  0.
   -5000001    1    1    2    0    0  0.15110725673E+03 -0.13810685857E+03  0.29562329088E+03  0.36773500993E+03  0.77000000000E+02 0.  0.
<mgrwt>
<rscale>  0 0.44514134E+03</rscale>
<asrwt>0</asrwt>
<pdfrwt beam="1">  1        2 0.79947449E-01 0.44514134E+03</pdfrwt>
<pdfrwt beam="2">  1       -2 0.12645476E-01 0.44514134E+03</pdfrwt>
<totfact> 0.27242527E+03</totfact>
</mgrwt>
</event>
<event>
 4    1  0.6853809E-004  0.2684553E+03  0.7818608E-02  0.1102167E+00
          2   -1    0    0  501    0  0.00000000000E+00  0.00000000000E+00  0.27147515972E+03  0.27147515973E+03  0.25500000000E-02 0.  1.
         -2   -1    0    0    0  501 -0.00000000000E+00 -0.00000000000E+00 -0.66367262715E+02  0.66367262764E+02  0.25500000000E-02 0. -1.
    5000001    1    1    2    0    0 -0.10460403720E+03 -0.27764904106E+02  0.78178337118E+02  0.15412250612E+03  0.77000000000E+02 0.  0.
   -5000001    1    1    2    0    0  0.10460403720E+03  0.27764904106E+02  0.12692955989E+03  0.18371991637E+03  0.77000000000E+02 0.  0.
<mgrwt>
<rscale>  0 0.26845531E+03</rscale>
<asrwt>0</asrwt>
<pdfrwt beam="1">  1        2 0.38782166E-01 0.26845531E+03</pdfrwt>
<pdfrwt beam="2">  1       -2 0.94810375E-02 0.26845531E+03</pdfrwt>
<totfact> 0.94546593E+03</totfact>
</mgrwt>
</event>
<event>
 4    1  0.6853809E-004  0.2193586E+03  0.7818608E-02  0.1134362E+00
         -2   -1    0    0    0  501 -0.00000000000E+00  0.00000000000E+00  0.18215592138E+02  0.18215592316E+02  0.25500000000E-02 0. -1.
          2   -1    0    0  501    0  0.00000000000E+00 -0.00000000000E+00 -0.66039818427E+03  0.66039818428E+03  0.25500000000E-02 0.  1.
    5000001    1    1    2    0    0 -0.43586460564E+02 -0.40289069918E+02 -0.47815364639E+03  0.48793739174E+03  0.77000000000E+02 0.  0.
   -5000001    1    1    2    0    0  0.43586460564E+02  0.40289069918E+02 -0.16402894574E+03  0.19067638485E+03  0.77000000000E+02 0.  0.
<mgrwt>
<rscale>  0 0.21935856E+03</rscale>
<asrwt>0</asrwt>
<pdfrwt beam="1">  1        2 0.94342583E-01 0.21935856E+03</pdfrwt>
<pdfrwt beam="2">  1       -2 0.26022279E-02 0.21935856E+03</pdfrwt>
<totfact> 0.25199101E+04</totfact>
</mgrwt>
</event>
<event>
 4    1  0.6853809E-004  0.2050179E+03  0.7818608E-02  0.1145573E+00
         -2   -1    0    0    0  501 -0.00000000000E+00  0.00000000000E+00  0.10095474055E+02  0.10095474377E+02  0.25500000000E-02 0. -1.
          2   -1    0    0  501    0  0.00000000000E+00 -0.00000000000E+00 -0.10408704156E+04  0.10408704156E+04  0.25500000000E-02 0.  1.
    5000001    1    1    2    0    0  0.59901452857E+02 -0.24708416068E+02 -0.41540777742E+03  0.42742404169E+03  0.77000000000E+02 0.  0.
   -5000001    1    1    2    0    0 -0.59901452857E+02  0.24708416068E+02 -0.61536716415E+03  0.62354184831E+03  0.77000000000E+02 0.  0.
<mgrwt>
<rscale>  0 0.20501786E+03</rscale>
<asrwt>0</asrwt>
<pdfrwt beam="1">  1        2 0.14869571E+00 0.20501786E+03</pdfrwt>
<pdfrwt beam="2">  1       -2 0.14422113E-02 0.20501786E+03</pdfrwt>
<totfact> 0.33650241E+04</totfact>
</mgrwt>
</event>
<event>
 4    1  0.6853809E-004  0.5081020E+03  0.7818608E-02  0.1011686E+00
          2   -1    0    0  501    0  0.00000000000E+00  0.00000000000E+00  0.13144044045E+04  0.13144044045E+04  0.25500000000E-02 0.  1.
         -2   -1    0    0    0  501 -0.00000000000E+00 -0.00000000000E+00 -0.49103538123E+02  0.49103538189E+02  0.25500000000E-02 0. -1.
    5000001    1    1    2    0    0  0.23797959201E+03 -0.13555398672E+02  0.51896011144E+03  0.57625222977E+03  0.77000000000E+02 0.  0.
   -5000001    1    1    2    0    0 -0.23797959201E+03  0.13555398672E+02  0.74634075495E+03  0.78725571293E+03  0.77000000000E+02 0.  0.
<mgrwt>
<rscale>  0 0.50810199E+03</rscale>
<asrwt>0</asrwt>
<pdfrwt beam="1">  1        2 0.18777208E+00 0.50810199E+03</pdfrwt>
<pdfrwt beam="2">  1       -2 0.70147902E-02 0.50810199E+03</pdfrwt>
<totfact> 0.22565971E+03</totfact>
</mgrwt>
</event>
<event>
 4    1  0.6853809E-004  0.3285824E+03  0.7818608E-02  0.1071766E+00
          2   -1    0    0  501    0  0.00000000000E+00  0.00000000000E+00  0.48448529596E+03  0.48448529597E+03  0.25500000000E-02 0.  1.
         -2   -1    0    0    0  501 -0.00000000000E+00 -0.00000000000E+00 -0.55711893337E+02  0.55711893395E+02  0.25500000000E-02 0. -1.
    5000001    1    1    2    0    0  0.52813083169E+02  0.13476408412E+03  0.19698697851E+03  0.25628782614E+03  0.77000000000E+02 0.  0.
   -5000001    1    1    2    0    0 -0.52813083169E+02 -0.13476408412E+03  0.23178642412E+03  0.28390936323E+03  0.77000000000E+02 0.  0.
<mgrwt>
<rscale>  0 0.32858237E+03</rscale>
<asrwt>0</asrwt>
<pdfrwt beam="1">  1        2 0.69212184E-01 0.32858237E+03</pdfrwt>
<pdfrwt beam="2">  1       -2 0.79588420E-02 0.32858237E+03</pdfrwt>
<totfact> 0.66952059E+03</totfact>
</mgrwt>
</event>
<event>
 4    1  0.6853809E-004  0.2510333E+03  0.7818608E-02  0.1112654E+00
          2   -1    0    0  501    0  0.00000000000E+00  0.00000000000E+00  0.15050788446E+03  0.15050788448E+03  0.25500000000E-02 0.  1.
         -2   -1    0    0    0  501 -0.00000000000E+00 -0.00000000000E+00 -0.10467510578E+03  0.10467510581E+03  0.25500000000E-02 0. -1.
    5000001    1    1    2    0    0  0.64311862527E+01 -0.53618117985E+02 -0.61579038681E+02  0.11241548264E+03  0.77000000000E+02 0.  0.
   -5000001    1    1    2    0    0 -0.64311862527E+01  0.53618117985E+02  0.10741181736E+03  0.14276750765E+03  0.77000000000E+02 0.  0.
<mgrwt>
<rscale>  0 0.25103329E+03</rscale>
<asrwt>0</asrwt>
<pdfrwt beam="1">  1        2 0.21501126E-01 0.25103329E+03</pdfrwt>
<pdfrwt beam="2">  1       -2 0.14953587E-01 0.25103329E+03</pdfrwt>
<totfact> 0.86587414E+03</totfact>
</mgrwt>
</event>
<event>
 4    1  0.6853809E-004  0.2061865E+03  0.7818608E-02  0.1144622E+00
         -2   -1    0    0    0  501 -0.00000000000E+00  0.00000000000E+00  0.31036683364E+02  0.31036683469E+02  0.25500000000E-02 0. -1.
          2   -1    0    0  501    0  0.00000000000E+00 -0.00000000000E+00 -0.34244057414E+03  0.34244057415E+03  0.25500000000E-02 0.  1.
    5000001    1    1    2    0    0 -0.61925054642E+02 -0.72120495419E+01 -0.10407054680E+03  0.14368856866E+03  0.77000000000E+02 0.  0.
   -5000001    1    1    2    0    0  0.61925054642E+02  0.72120495419E+01 -0.20733334397E+03  0.22978868896E+03  0.77000000000E+02 0.  0.
<mgrwt>
<rscale>  0 0.20618651E+03</rscale>
<asrwt>0</asrwt>
<pdfrwt beam="1">  1        2 0.48920080E-01 0.20618651E+03</pdfrwt>
<pdfrwt beam="2">  1       -2 0.44338121E-02 0.20618651E+03</pdfrwt>
<totfact> 0.23370280E+04</totfact>
</mgrwt>
</event>
<event>
 4    1  0.6853809E-004  0.1713064E+03  0.7818608E-02  0.1176492E+00
          2   -1    0    0  501    0  0.00000000000E+00  0.00000000000E+00  0.19807004240E+04  0.19807004240E+04  0.25500000000E-02 0.  1.
         -2   -1    0    0    0  501 -0.00000000000E+00 -0.00000000000E+00 -0.37039782536E+01  0.37039791313E+01  0.25500000000E-02 0. -1.
    5000001    1    1    2    0    0 -0.33161022021E+02 -0.11352985879E+02  0.83354653554E+03  0.83782896260E+03  0.77000000000E+02 0.  0.
   -5000001    1    1    2    0    0  0.33161022021E+02  0.11352985879E+02  0.11434499102E+04  0.11465754406E+04  0.77000000000E+02 0.  0.
<mgrwt>
<rscale>  0 0.17130642E+03</rscale>
<asrwt>0</asrwt>
<pdfrwt beam="1">  1        2 0.28295650E+00 0.17130642E+03</pdfrwt>
<pdfrwt beam="2">  1       -2 0.52914112E-03 0.17130642E+03</pdfrwt>
<totfact> 0.46973900E+04</totfact>
</mgrwt>
</event>
<event>
 4    1  0.6853809E-004  0.1727536E+03  0.7818608E-02  0.1175006E+00
         -2   -1    0    0    0  501 -0.00000000000E+00  0.00000000000E+00  0.50685625746E+01  0.50685632160E+01  0.25500000000E-02 0. -1.
          2   -1    0    0  501    0  0.00000000000E+00 -0.00000000000E+00 -0.14720049293E+04  0.14720049293E+04  0.25500000000E-02 0.  1.
    5000001    1    1    2    0    0 -0.15070068400E+01 -0.38956406925E+02 -0.76318156362E+03  0.76804620418E+03  0.77000000000E+02 0.  0.
   -5000001    1    1    2    0    0  0.15070068400E+01  0.38956406925E+02 -0.70375480308E+03  0.70902728831E+03  0.77000000000E+02 0.  0.
<mgrwt>
<rscale>  0 0.17275358E+03</rscale>
<asrwt>0</asrwt>
<pdfrwt beam="1">  1        2 0.21028615E+00 0.17275358E+03</pdfrwt>
<pdfrwt beam="2">  1       -2 0.72408135E-03 0.17275358E+03</pdfrwt>
<totfact> 0.53025381E+04</totfact>
</mgrwt>
</event>
<event>
 4    1  0.6853809E-004  0.2900446E+03  0.7818608E-02  0.1090326E+00
          2   -1    0    0  501    0  0.00000000000E+00  0.00000000000E+00  0.13671910437E+04  0.13671910437E+04  0.25500000000E-02 0.  1.
         -2   -1    0    0    0  501 -0.00000000000E+00 -0.00000000000E+00 -0.15382981458E+02  0.15382981669E+02  0.25500000000E-02 0. -1.
    5000001    1    1    2    0    0  0.68641421263E+02  0.35203070634E+02  0.21989711759E+03  0.24542747038E+03  0.77000000000E+02 0.  0.
   -5000001    1    1    2    0    0 -0.68641421263E+02 -0.35203070634E+02  0.11319109447E+04  0.11371465550E+04  0.77000000000E+02 0.  0.
<mgrwt>
<rscale>  0 0.29004465E+03</rscale>
<asrwt>0</asrwt>
<pdfrwt beam="1">  1        2 0.19531303E+00 0.29004465E+03</pdfrwt>
<pdfrwt beam="2">  1       -2 0.21975685E-02 0.29004465E+03</pdfrwt>
<totfact> 0.12289513E+04</totfact>
</mgrwt>
</event>
<event>
 4    1  0.6853809E-004  0.2892045E+03  0.7818608E-02  0.1090765E+00
          2   -1    0    0  501    0  0.00000000000E+00  0.00000000000E+00  0.21304937379E+03  0.21304937380E+03  0.25500000000E-02 0.  1.
         -2   -1    0    0    0  501 -0.00000000000E+00 -0.00000000000E+00 -0.98145372235E+02  0.98145372269E+02  0.25500000000E-02 0. -1.
    5000001    1    1    2    0    0  0.47650478441E+02  0.11203513671E+03  0.70993410491E+02  0.16059733586E+03  0.77000000000E+02 0.  0.
   -5000001    1    1    2    0    0 -0.47650478441E+02 -0.11203513671E+03  0.43910591060E+02  0.15059741021E+03  0.77000000000E+02 0.  0.
<mgrwt>
<rscale>  0 0.28920450E+03</rscale>
<asrwt>0</asrwt>
<pdfrwt beam="1">  1        2 0.30435625E-01 0.28920450E+03</pdfrwt>
<pdfrwt beam="2">  1       -2 0.14020767E-01 0.28920450E+03</pdfrwt>
<totfact> 0.65741975E+03</totfact>
</mgrwt>
</event>
<event>
 4    1  0.6853809E-004  0.9126424E+03  0.7818608E-02  0.9409914E-01
         -2   -1    0    0    0  501 -0.00000000000E+00  0.00000000000E+00  0.21440338802E+03  0.21440338804E+03  0.25500000000E-02 0. -1.
          2   -1    0    0  501    0  0.00000000000E+00 -0.00000000000E+00 -0.97120218365E+03  0.97120218365E+03  0.25500000000E-02 0.  1.
    5000001    1    1    2    0    0  0.31633947625E+03  0.96270879122E+02 -0.77448646744E+03  0.84563410210E+03  0.77000000000E+02 0.  0.
   -5000001    1    1    2    0    0 -0.31633947625E+03 -0.96270879122E+02  0.17687671811E+02  0.33997146959E+03  0.77000000000E+02 0.  0.
<mgrwt>
<rscale>  0 0.91264240E+03</rscale>
<asrwt>0</asrwt>
<pdfrwt beam="1">  1        2 0.13874317E+00 0.91264240E+03</pdfrwt>
<pdfrwt beam="2">  1       -2 0.30629056E-01 0.91264240E+03</pdfrwt>
<totfact> 0.28848918E+02</totfact>
</mgrwt>
</event>
<event>
 4    1  0.6853809E-004  0.2634443E+03  0.7818608E-02  0.1105091E+00
          2   -1    0    0  501    0  0.00000000000E+00  0.00000000000E+00  0.74651196246E+03  0.74651196247E+03  0.25500000000E-02 0.  1.
         -2   -1    0    0    0  501 -0.00000000000E+00 -0.00000000000E+00 -0.23242392663E+02  0.23242392803E+02  0.25500000000E-02 0. -1.
    5000001    1    1    2    0    0  0.63798151394E+02  0.46630818519E+02  0.15139927071E+03  0.18733760041E+03  0.77000000000E+02 0.  0.
   -5000001    1    1    2    0    0 -0.63798151394E+02 -0.46630818519E+02  0.57187029909E+03  0.58241675486E+03  0.77000000000E+02 0.  0.
<mgrwt>
<rscale>  0 0.26344430E+03</rscale>
<asrwt>0</asrwt>
<pdfrwt beam="1">  1        2 0.10664455E+00 0.26344430E+03</pdfrwt>
<pdfrwt beam="2">  1       -2 0.33203423E-02 0.26344430E+03</pdfrwt>
<totfact> 0.15339404E+04</totfact>
</mgrwt>
</event>
<event>
 4    1  0.6853809E-004  0.2571186E+03  0.7818608E-02  0.1108887E+00
         -2   -1    0    0    0  501 -0.00000000000E+00  0.00000000000E+00  0.30609977505E+02  0.30609977611E+02  0.25500000000E-02 0. -1.
          2   -1    0    0  501    0  0.00000000000E+00 -0.00000000000E+00 -0.53993811757E+03  0.53993811758E+03  0.25500000000E-02 0.  1.
    5000001    1    1    2    0    0 -0.26389680649E+02 -0.98567019196E+02 -0.22435035303E+03  0.25821300011E+03  0.77000000000E+02 0.  0.
   -5000001    1    1    2    0    0  0.26389680649E+02  0.98567019196E+02 -0.28497778703E+03  0.31233509508E+03  0.77000000000E+02 0.  0.
<mgrwt>
<rscale>  0 0.25711860E+03</rscale>
<asrwt>0</asrwt>
<pdfrwt beam="1">  1        2 0.77134011E-01 0.25711860E+03</pdfrwt>
<pdfrwt beam="2">  1       -2 0.43728543E-02 0.25711860E+03</pdfrwt>
<totfact> 0.14750406E+04</totfact>
</mgrwt>
</event>
<event>
 4    1  0.6853809E-004  0.7144462E+03  0.7818608E-02  0.9692841E-01
          2   -1    0    0  501    0  0.00000000000E+00  0.00000000000E+00  0.63642345938E+03  0.63642345938E+03  0.25500000000E-02 0.  1.
         -2   -1    0    0    0  501 -0.00000000000E+00 -0.00000000000E+00 -0.20050856507E+03  0.20050856509E+03  0.25500000000E-02 0. -1.
    5000001    1    1    2    0    0 -0.34313053392E+03 -0.48837208387E+02  0.26416214439E+03  0.44253166527E+03  0.77000000000E+02 0.  0.
   -5000001    1    1    2    0    0  0.34313053392E+03  0.48837208387E+02  0.17175274992E+03  0.39440035920E+03  0.77000000000E+02 0.  0.
<mgrwt>
<rscale>  0 0.71444623E+03</rscale>
<asrwt>0</asrwt>
<pdfrwt beam="1">  1        2 0.90917639E-01 0.71444623E+03</pdfrwt>
<pdfrwt beam="2">  1       -2 0.28644080E-01 0.71444623E+03</pdfrwt>
<totfact> 0.56715258E+02</totfact>
</mgrwt>
</event>
<event>
 4    1  0.6853809E-004  0.2205370E+03  0.7818608E-02  0.1133483E+00
          2   -1    0    0  501    0  0.00000000000E+00  0.00000000000E+00  0.34056791511E+02  0.34056791606E+02  0.25500000000E-02 0.  1.
         -2   -1    0    0    0  501 -0.00000000000E+00 -0.00000000000E+00 -0.35702555758E+03  0.35702555759E+03  0.25500000000E-02 0. -1.
    5000001    1    1    2    0    0 -0.69526262405E+02 -0.37216958636E+02 -0.15556515782E+03  0.19065288223E+03  0.77000000000E+02 0.  0.
   -5000001    1    1    2    0    0  0.69526262405E+02  0.37216958636E+02 -0.16740360825E+03  0.20042946697E+03  0.77000000000E+02 0.  0.
<mgrwt>
<rscale>  0 0.22053703E+03</rscale>
<asrwt>0</asrwt>
<pdfrwt beam="1">  1        2 0.48652561E-02 0.22053703E+03</pdfrwt>
<pdfrwt beam="2">  1       -2 0.51003649E-01 0.22053703E+03</pdfrwt>
<totfact> 0.59030912E+03</totfact>
</mgrwt>
</event>
<event>
 4    1  0.6853809E-004  0.1784246E+03  0.7818608E-02  0.1169336E+00
          2   -1    0    0  501    0  0.00000000000E+00  0.00000000000E+00  0.21257182574E+04  0.21257182574E+04  0.25500000000E-02 0.  1.
         -2   -1    0    0    0  501 -0.00000000000E+00 -0.00000000000E+00 -0.37440674516E+01  0.37440683199E+01  0.25500000000E-02 0. -1.
    5000001    1    1    2    0    0  0.30750805701E+01 -0.44662045292E+02  0.10005080709E+04  0.10044648099E+04  0.77000000000E+02 0.  0.
   -5000001    1    1    2    0    0 -0.30750805701E+01  0.44662045292E+02  0.11214661191E+04  0.11249975159E+04  0.77000000000E+02 0.  0.
<mgrwt>
<rscale>  0 0.17842459E+03</rscale>
<asrwt>0</asrwt>
<pdfrwt beam="1">  1        2 0.30367371E+00 0.17842459E+03</pdfrwt>
<pdfrwt beam="2">  1       -2 0.53486742E-03 0.17842459E+03</pdfrwt>
<totfact> 0.39515979E+04</totfact>
</mgrwt>
</event>
<event>
 4    1  0.6853809E-004  0.1179396E+04  0.7818608E-02  0.9131085E-01
          2   -1    0    0  501    0  0.00000000000E+00  0.00000000000E+00  0.14182525502E+04  0.14182525502E+04  0.25500000000E-02 0.  1.
         -2   -1    0    0    0  501 -0.00000000000E+00 -0.00000000000E+00 -0.24519172328E+03  0.24519172329E+03  0.25500000000E-02 0. -1.
    5000001    1    1    2    0    0  0.36177418384E+03 -0.23635893926E+03  0.31124353364E+02  0.44004980813E+03  0.77000000000E+02 0.  0.
   -5000001    1    1    2    0    0 -0.36177418384E+03  0.23635893926E+03  0.11419364735E+04  0.12233944653E+04  0.77000000000E+02 0.  0.
<mgrwt>
<rscale>  0 0.11793961E+04</rscale>
<asrwt>0</asrwt>
<pdfrwt beam="1">  1        2 0.20260751E+00 0.11793961E+04</pdfrwt>
<pdfrwt beam="2">  1       -2 0.35027389E-01 0.11793961E+04</pdfrwt>
<totfact> 0.12210041E+02</totfact>
</mgrwt>
</event>
<event>
 4    1  0.6853809E-004  0.4287276E+03  0.7818608E-02  0.1034263E+00
          2   -1    0    0  501    0  0.00000000000E+00  0.00000000000E+00  0.39462870357E+04  0.39462870357E+04  0.25500000000E-02 0.  1.
         -2   -1    0    0    0  501 -0.00000000000E+00 -0.00000000000E+00 -0.11644322020E+02  0.11644322299E+02  0.25500000000E-02 0. -1.
    5000001    1    1    2    0    0  0.95858236144E+02  0.89106050772E+00  0.34627133032E+03  0.36745398300E+03  0.77000000000E+02 0.  0.
   -5000001    1    1    2    0    0 -0.95858236144E+02 -0.89106050772E+00  0.35883713833E+04  0.35904773750E+04  0.77000000000E+02 0.  0.
<mgrwt>
<rscale>  0 0.42872759E+03</rscale>
<asrwt>0</asrwt>
<pdfrwt beam="1">  1        2 0.56375448E+00 0.42872759E+03</pdfrwt>
<pdfrwt beam="2">  1       -2 0.16634770E-02 0.42872759E+03</pdfrwt>
<totfact> 0.77225798E+02</totfact>
</mgrwt>
</event>
<event>
 4    1  0.6853809E-004  0.2317393E+03  0.7818608E-02  0.1125421E+00
         -2   -1    0    0    0  501 -0.00000000000E+00  0.00000000000E+00  0.33309591017E+02  0.33309591115E+02  0.25500000000E-02 0. -1.
          2   -1    0    0  501    0  0.00000000000E+00 -0.00000000000E+00 -0.40306051472E+03  0.40306051473E+03  0.25500000000E-02 0.  1.
    5000001    1    1    2    0    0  0.54369251982E+02 -0.65590331384E+02 -0.21396639038E+03  0.24283476552E+03  0.77000000000E+02 0.  0.
   -5000001    1    1    2    0    0 -0.54369251982E+02  0.65590331384E+02 -0.15578453332E+03  0.19353534033E+03  0.77000000000E+02 0.  0.
<mgrwt>
<rscale>  0 0.23173934E+03</rscale>
<asrwt>0</asrwt>
<pdfrwt beam="1">  1        2 0.57580071E-01 0.23173934E+03</pdfrwt>
<pdfrwt beam="2">  1       -2 0.47585132E-02 0.23173934E+03</pdfrwt>
<totfact> 0.17776939E+04</totfact>
</mgrwt>
</event>
<event>
 4    1  0.6853809E-004  0.2243154E+03  0.7818608E-02  0.1130706E+00
         -2   -1    0    0    0  501 -0.00000000000E+00  0.00000000000E+00  0.21671854733E+03  0.21671854734E+03  0.25500000000E-02 0. -1.
          2   -1    0    0  501    0  0.00000000000E+00 -0.00000000000E+00 -0.58044628700E+02  0.58044628756E+02  0.25500000000E-02 0.  1.
    5000001    1    1    2    0    0 -0.80520655940E+02  0.10171815892E+02  0.89082839160E+02  0.14300976926E+03  0.77000000000E+02 0.  0.
   -5000001    1    1    2    0    0  0.80520655940E+02 -0.10171815892E+02  0.69591079468E+02  0.13175340684E+03  0.77000000000E+02 0.  0.
<mgrwt>
<rscale>  0 0.22431538E+03</rscale>
<asrwt>0</asrwt>
<pdfrwt beam="1">  1        2 0.82920900E-02 0.22431538E+03</pdfrwt>
<pdfrwt beam="2">  1       -2 0.30959792E-01 0.22431538E+03</pdfrwt>
<totfact> 0.76755309E+03</totfact>
</mgrwt>
</event>
<event>
 4    1  0.6853809E-004  0.3042385E+03  0.7818608E-02  0.1083141E+00
          2   -1    0    0  501    0  0.00000000000E+00  0.00000000000E+00  0.12495291879E+02  0.12495292139E+02  0.25500000000E-02 0.  1.
         -2   -1    0    0    0  501 -0.00000000000E+00 -0.00000000000E+00 -0.18519191978E+04  0.18519191978E+04  0.25500000000E-02 0. -1.
    5000001    1    1    2    0    0  0.10361756340E+03  0.48733579439E+02 -0.52733380061E+03  0.54508852352E+03  0.77000000000E+02 0.  0.
   -5000001    1    1    2    0    0 -0.10361756340E+03 -0.48733579439E+02 -0.13120901053E+04  0.13193259664E+04  0.77000000000E+02 0.  0.
<mgrwt>
<rscale>  0 0.30423853E+03</rscale>
<asrwt>0</asrwt>
<pdfrwt beam="1">  1        2 0.17850429E-02 0.30423853E+03</pdfrwt>
<pdfrwt beam="2">  1       -2 0.26455971E+00 0.30423853E+03</pdfrwt>
<totfact> 0.37824424E+02</totfact>
</mgrwt>
</event>
<event>
 4    1  0.6853809E-004  0.1885942E+03  0.7818608E-02  0.1159735E+00
         -2   -1    0    0    0  501 -0.00000000000E+00  0.00000000000E+00  0.10135323891E+02  0.10135324212E+02  0.25500000000E-02 0. -1.
          2   -1    0    0  501    0  0.00000000000E+00 -0.00000000000E+00 -0.87732169788E+03  0.87732169788E+03  0.25500000000E-02 0.  1.
    5000001    1    1    2    0    0 -0.12947879977E+02 -0.43662816568E+02 -0.57388536434E+03  0.58081623648E+03  0.77000000000E+02 0.  0.
   -5000001    1    1    2    0    0  0.12947879977E+02  0.43662816568E+02 -0.29330100965E+03  0.30664078562E+03  0.77000000000E+02 0.  0.
<mgrwt>
<rscale>  0 0.18859416E+03</rscale>
<asrwt>0</asrwt>
<pdfrwt beam="1">  1        2 0.12533162E+00 0.18859416E+03</pdfrwt>
<pdfrwt beam="2">  1       -2 0.14479040E-02 0.18859416E+03</pdfrwt>
<totfact> 0.41646770E+04</totfact>
</mgrwt>
</event>
<event>
 4    1  0.6853809E-004  0.2513210E+03  0.7818608E-02  0.1112473E+00
         -2   -1    0    0    0  501 -0.00000000000E+00  0.00000000000E+00  0.99044533976E+02  0.99044534009E+02  0.25500000000E-02 0. -1.
          2   -1    0    0  501    0  0.00000000000E+00 -0.00000000000E+00 -0.15942889181E+03  0.15942889183E+03  0.25500000000E-02 0.  1.
    5000001    1    1    2    0    0 -0.95967039280E+02  0.20991263934E+02 -0.45140421128E+02  0.13272890947E+03  0.77000000000E+02 0.  0.
   -5000001    1    1    2    0    0  0.95967039280E+02 -0.20991263934E+02 -0.15243936703E+02  0.12574451636E+03  0.77000000000E+02 0.  0.
<mgrwt>
<rscale>  0 0.25132099E+03</rscale>
<asrwt>0</asrwt>
<pdfrwt beam="1">  1        2 0.22775556E-01 0.25132099E+03</pdfrwt>
<pdfrwt beam="2">  1       -2 0.14149219E-01 0.25132099E+03</pdfrwt>
<totfact> 0.88859190E+03</totfact>
</mgrwt>
</event>
<event>
 4    1  0.6853809E-004  0.1757166E+03  0.7818608E-02  0.1172014E+00
         -2   -1    0    0    0  501 -0.00000000000E+00  0.00000000000E+00  0.64696428528E+01  0.64696433554E+01  0.25500000000E-02 0. -1.
          2   -1    0    0  501    0  0.00000000000E+00 -0.00000000000E+00 -0.11931228353E+04  0.11931228353E+04  0.25500000000E-02 0.  1.
    5000001    1    1    2    0    0  0.17225868213E+02  0.42272101821E+01 -0.85555970684E+03  0.85920079830E+03  0.77000000000E+02 0.  0.
   -5000001    1    1    2    0    0 -0.17225868213E+02 -0.42272101821E+01 -0.33109348562E+03  0.34039168037E+03  0.77000000000E+02 0.  0.
<mgrwt>
<rscale>  0 0.17571658E+03</rscale>
<asrwt>0</asrwt>
<pdfrwt beam="1">  1        2 0.17044598E+00 0.17571658E+03</pdfrwt>
<pdfrwt beam="2">  1       -2 0.92423549E-03 0.17571658E+03</pdfrwt>
<totfact> 0.52087181E+04</totfact>
</mgrwt>
</event>
<event>
 4    1  0.6853809E-004  0.2432623E+03  0.7818608E-02  0.1117638E+00
         -2   -1    0    0    0  501 -0.00000000000E+00  0.00000000000E+00  0.57302320654E+01  0.57302326328E+01  0.25500000000E-02 0. -1.
          2   -1    0    0  501    0  0.00000000000E+00 -0.00000000000E+00 -0.25817691922E+04  0.25817691922E+04  0.25500000000E-02 0.  1.
    5000001    1    1    2    0    0 -0.72655307365E+02  0.46958104606E+01 -0.19230464104E+04  0.19259640030E+04  0.77000000000E+02 0.  0.
   -5000001    1    1    2    0    0  0.72655307365E+02 -0.46958104606E+01 -0.65299254976E+03  0.66153542185E+03  0.77000000000E+02 0.  0.
<mgrwt>
<rscale>  0 0.24326231E+03</rscale>
<asrwt>0</asrwt>
<pdfrwt beam="1">  1        2 0.36882343E+00 0.24326231E+03</pdfrwt>
<pdfrwt beam="2">  1       -2 0.81860627E-03 0.24326231E+03</pdfrwt>
<totfact> 0.12981210E+04</totfact>
</mgrwt>
</event>
<event>
 4    1  0.6853809E-004  0.2754341E+03  0.7818608E-02  0.1098209E+00
         -2   -1    0    0    0  501 -0.00000000000E+00  0.00000000000E+00  0.21209851290E+04  0.21209851290E+04  0.25500000000E-02 0. -1.
          2   -1    0    0  501    0  0.00000000000E+00 -0.00000000000E+00 -0.89420620473E+01  0.89420624109E+01  0.25500000000E-02 0.  1.
    5000001    1    1    2    0    0 -0.34209835128E+02 -0.46104913548E+02  0.29280285082E+03  0.30815334709E+03  0.77000000000E+02 0.  0.
   -5000001    1    1    2    0    0  0.34209835128E+02  0.46104913548E+02  0.18192402161E+04  0.18217738443E+04  0.77000000000E+02 0.  0.
<mgrwt>
<rscale>  0 0.27543406E+03</rscale>
<asrwt>0</asrwt>
<pdfrwt beam="1">  1        2 0.12774369E-02 0.27543406E+03</pdfrwt>
<pdfrwt beam="2">  1       -2 0.30299801E+00 0.27543406E+03</pdfrwt>
<totfact> 0.35984487E+02</totfact>
</mgrwt>
</event>
<event>
 4    1  0.6853809E-004  0.2355807E+03  0.7818608E-02  0.1122772E+00
         -2   -1    0    0    0  501 -0.00000000000E+00  0.00000000000E+00  0.43673009163E+02  0.43673009237E+02  0.25500000000E-02 0.  1.
          2   -1    0    0  501    0  0.00000000000E+00 -0.00000000000E+00 -0.31769202440E+03  0.31769202441E+03  0.25500000000E-02 0. -1.
    5000001    1    1    2    0    0  0.86820604009E+02  0.64640554190E+01 -0.16635398905E+03  0.20293410499E+03  0.77000000000E+02 0.  0.
   -5000001    1    1    2    0    0 -0.86820604009E+02 -0.64640554190E+01 -0.10766502618E+03  0.15843092866E+03  0.77000000000E+02 0.  0.
<mgrwt>
<rscale>  0 0.23558070E+03</rscale>
<asrwt>0</asrwt>
<pdfrwt beam="1">  1        2 0.45384574E-01 0.23558070E+03</pdfrwt>
<pdfrwt beam="2">  1       -2 0.62390015E-02 0.23558070E+03</pdfrwt>
<totfact> 0.15214031E+04</totfact>
</mgrwt>
</event>
<event>
 4    1  0.6853809E-004  0.4057543E+03  0.7818608E-02  0.1041805E+00
         -2   -1    0    0    0  501 -0.00000000000E+00  0.00000000000E+00  0.90204049012E+02  0.90204049048E+02  0.25500000000E-02 0. -1.
          2   -1    0    0  501    0  0.00000000000E+00 -0.00000000000E+00 -0.45628931470E+03  0.45628931471E+03  0.25500000000E-02 0.  1.
    5000001    1    1    2    0    0  0.55204749040E+02 -0.17794513322E+03 -0.15238544707E+03  0.25271002994E+03  0.77000000000E+02 0.  0.
   -5000001    1    1    2    0    0 -0.55204749040E+02  0.17794513322E+03 -0.21369981862E+03  0.29378333382E+03  0.77000000000E+02 0.  0.
<mgrwt>
<rscale>  0 0.40575433E+03</rscale>
<asrwt>0</asrwt>
<pdfrwt beam="1">  1        2 0.65184186E-01 0.40575433E+03</pdfrwt>
<pdfrwt beam="2">  1       -2 0.12886293E-01 0.40575433E+03</pdfrwt>
<totfact> 0.33203932E+03</totfact>
</mgrwt>
</event>
<event>
 4    1  0.6853809E-004  0.6729039E+03  0.7818608E-02  0.9764726E-01
         -2   -1    0    0    0  501 -0.00000000000E+00  0.00000000000E+00  0.26604351556E+03  0.26604351558E+03  0.25500000000E-02 0. -1.
          2   -1    0    0  501    0  0.00000000000E+00 -0.00000000000E+00 -0.42549399165E+03  0.42549399166E+03  0.25500000000E-02 0.  1.
    5000001    1    1    2    0    0  0.24419908738E+03 -0.20946389264E+03 -0.14276386733E+03  0.36030381404E+03  0.77000000000E+02 0.  0.
   -5000001    1    1    2    0    0 -0.24419908738E+03  0.20946389264E+03 -0.16686608756E+02  0.33123369319E+03  0.77000000000E+02 0.  0.
<mgrwt>
<rscale>  0 0.67290391E+03</rscale>
<asrwt>0</asrwt>
<pdfrwt beam="1">  1        2 0.60784855E-01 0.67290391E+03</pdfrwt>
<pdfrwt beam="2">  1       -2 0.38006217E-01 0.67290391E+03</pdfrwt>
<totfact> 0.53048818E+02</totfact>
</mgrwt>
</event>
<event>
 4    1  0.6853809E-004  0.2486692E+03  0.7818608E-02  0.1114149E+00
         -2   -1    0    0    0  501 -0.00000000000E+00  0.00000000000E+00  0.25819831978E+02  0.25819832104E+02  0.25500000000E-02 0. -1.
          2   -1    0    0  501    0  0.00000000000E+00 -0.00000000000E+00 -0.59872936560E+03  0.59872936561E+03  0.25500000000E-02 0.  1.
    5000001    1    1    2    0    0  0.64317232694E+02  0.71979238575E+02 -0.24985352581E+03  0.27869966194E+03  0.77000000000E+02 0.  0.
   -5000001    1    1    2    0    0 -0.64317232694E+02 -0.71979238575E+02 -0.32305600782E+03  0.34584953577E+03  0.77000000000E+02 0.  0.
<mgrwt>
<rscale>  0 0.24866919E+03</rscale>
<asrwt>0</asrwt>
<pdfrwt beam="1">  1        2 0.85532758E-01 0.24866919E+03</pdfrwt>
<pdfrwt beam="2">  1       -2 0.36885478E-02 0.24866919E+03</pdfrwt>
<totfact> 0.16923142E+04</totfact>
</mgrwt>
</event>
<event>
 4    1  0.6853809E-004  0.1929289E+03  0.7818608E-02  0.1155846E+00
          2   -1    0    0  501    0  0.00000000000E+00  0.00000000000E+00  0.42305994500E+03  0.42305994501E+03  0.25500000000E-02 0.  1.
         -2   -1    0    0    0  501 -0.00000000000E+00 -0.00000000000E+00 -0.21995452113E+02  0.21995452261E+02  0.25500000000E-02 0. -1.
    5000001    1    1    2    0    0 -0.38158829445E+02  0.24026591846E+02  0.11599304451E+03  0.14634466083E+03  0.77000000000E+02 0.  0.
   -5000001    1    1    2    0    0  0.38158829445E+02 -0.24026591846E+02  0.28507144838E+03  0.29871073644E+03  0.77000000000E+02 0.  0.
<mgrwt>
<rscale>  0 0.19292895E+03</rscale>
<asrwt>0</asrwt>
<pdfrwt beam="1">  1        2 0.60437128E-01 0.19292895E+03</pdfrwt>
<pdfrwt beam="2">  1       -2 0.31422078E-02 0.19292895E+03</pdfrwt>
<totfact> 0.30978391E+04</totfact>
</mgrwt>
</event>
<event>
 4    1  0.6853809E-004  0.5582560E+03  0.7818608E-02  0.9996009E-01
          2   -1    0    0  501    0  0.00000000000E+00  0.00000000000E+00  0.26416347889E+03  0.26416347890E+03  0.25500000000E-02 0.  1.
         -2   -1    0    0    0  501 -0.00000000000E+00 -0.00000000000E+00 -0.29494018972E+03  0.29494018973E+03  0.25500000000E-02 0. -1.
    5000001    1    1    2    0    0  0.11529670372E+03 -0.16438689074E+03 -0.19361095056E+03  0.28936236782E+03  0.77000000000E+02 0.  0.
   -5000001    1    1    2    0    0 -0.11529670372E+03  0.16438689074E+03  0.16283423973E+03  0.26974130081E+03  0.77000000000E+02 0.  0.
<mgrwt>
<rscale>  0 0.55825595E+03</rscale>
<asrwt>0</asrwt>
<pdfrwt beam="1">  1        2 0.37737640E-01 0.55825595E+03</pdfrwt>
<pdfrwt beam="2">  1       -2 0.42134313E-01 0.55825595E+03</pdfrwt>
<totfact> 0.73758441E+02</totfact>
</mgrwt>
</event>
<event>
 4    1  0.6853809E-004  0.2055779E+03  0.7818608E-02  0.1145116E+00
          2   -1    0    0  501    0  0.00000000000E+00  0.00000000000E+00  0.28747342314E+03  0.28747342315E+03  0.25500000000E-02 0.  1.
         -2   -1    0    0    0  501 -0.00000000000E+00 -0.00000000000E+00 -0.36753214785E+02  0.36753214873E+02  0.25500000000E-02 0. -1.
    5000001    1    1    2    0    0  0.31107393852E+02  0.35631570629E+02  0.20261284342E+03  0.22185184943E+03  0.77000000000E+02 0.  0.
   -5000001    1    1    2    0    0 -0.31107393852E+02 -0.35631570629E+02  0.48107364931E+02  0.10237478859E+03  0.77000000000E+02 0.  0.
<mgrwt>
<rscale>  0 0.20557794E+03</rscale>
<asrwt>0</asrwt>
<pdfrwt beam="1">  1        2 0.41067633E-01 0.20557794E+03</pdfrwt>
<pdfrwt beam="2">  1       -2 0.52504591E-02 0.20557794E+03</pdfrwt>
<totfact> 0.21826869E+04</totfact>
</mgrwt>
</event>
<event>
 4    1  0.6853809E-004  0.3589716E+03  0.7818608E-02  0.1058992E+00
         -2   -1    0    0    0  501 -0.00000000000E+00  0.00000000000E+00  0.27213966108E+02  0.27213966228E+02  0.25500000000E-02 0. -1.
          2   -1    0    0  501    0  0.00000000000E+00 -0.00000000000E+00 -0.11837727427E+04  0.11837727427E+04  0.25500000000E-02 0.  1.
    5000001    1    1    2    0    0  0.63002848015E+02 -0.12984495241E+03 -0.32907281882E+03  0.36748740198E+03  0.77000000000E+02 0.  0.
   -5000001    1    1    2    0    0 -0.63002848015E+02  0.12984495241E+03 -0.82748595775E+03  0.84349930694E+03  0.77000000000E+02 0.  0.
<mgrwt>
<rscale>  0 0.35897159E+03</rscale>
<asrwt>0</asrwt>
<pdfrwt beam="1">  1        2 0.16911036E+00 0.35897159E+03</pdfrwt>
<pdfrwt beam="2">  1       -2 0.38877102E-02 0.35897159E+03</pdfrwt>
<totfact> 0.65967335E+03</totfact>
</mgrwt>
</event>
<event>
 4    1  0.6853809E-004  0.1581459E+03  0.7818608E-02  0.1190806E+00
          2   -1    0    0  501    0  0.00000000000E+00  0.00000000000E+00  0.10645745263E+04  0.10645745263E+04  0.25500000000E-02 0.  1.
         -2   -1    0    0    0  501 -0.00000000000E+00 -0.00000000000E+00 -0.58732692109E+01  0.58732697645E+01  0.25500000000E-02 0. -1.
    5000001    1    1    2    0    0  0.12786657804E+02  0.12072548741E+02  0.50376513784E+03  0.50991916923E+03  0.77000000000E+02 0.  0.
   -5000001    1    1    2    0    0 -0.12786657804E+02 -0.12072548741E+02  0.55493611924E+03  0.56052862682E+03  0.77000000000E+02 0.  0.
<mgrwt>
<rscale>  0 0.15814592E+03</rscale>
<asrwt>0</asrwt>
<pdfrwt beam="1">  1        2 0.15208216E+00 0.15814592E+03</pdfrwt>
<pdfrwt beam="2">  1       -2 0.83903804E-03 0.15814592E+03</pdfrwt>
<totfact> 0.69692797E+04</totfact>
</mgrwt>
</event>
<event>
 4    1  0.6853809E-004  0.2302676E+03  0.7818608E-02  0.1126452E+00
          2   -1    0    0  501    0  0.00000000000E+00  0.00000000000E+00  0.26737211654E+03  0.26737211655E+03  0.25500000000E-02 0.  1.
         -2   -1    0    0    0  501 -0.00000000000E+00 -0.00000000000E+00 -0.49578057918E+02  0.49578057983E+02  0.25500000000E-02 0. -1.
    5000001    1    1    2    0    0  0.72960488424E+02 -0.23254899903E+02  0.16154065249E+03  0.19464944297E+03  0.77000000000E+02 0.  0.
   -5000001    1    1    2    0    0 -0.72960488424E+02  0.23254899903E+02  0.56253406130E+02  0.12230073157E+03  0.77000000000E+02 0.  0.
<mgrwt>
<rscale>  0 0.23026759E+03</rscale>
<asrwt>0</asrwt>
<pdfrwt beam="1">  1        2 0.38196017E-01 0.23026759E+03</pdfrwt>
<pdfrwt beam="2">  1       -2 0.70825796E-02 0.23026759E+03</pdfrwt>
<totfact> 0.15040264E+04</totfact>
</mgrwt>
</event>
<event>
 4    1  0.6853809E-004  0.3501371E+03  0.7818608E-02  0.1062559E+00
         -2   -1    0    0    0  501 -0.00000000000E+00  0.00000000000E+00  0.20719213840E+02  0.20719213997E+02  0.25500000000E-02 0. -1.
          2   -1    0    0  501    0  0.00000000000E+00 -0.00000000000E+00 -0.14792551880E+04  0.14792551881E+04  0.25500000000E-02 0.  1.
    5000001    1    1    2    0    0  0.29453166589E+02  0.11981629628E+03 -0.11467416377E+04  0.11559276870E+04  0.77000000000E+02 0.  0.
   -5000001    1    1    2    0    0 -0.29453166589E+02 -0.11981629628E+03 -0.31179433651E+03  0.34404671508E+03  0.77000000000E+02 0.  0.
<mgrwt>
<rscale>  0 0.35013714E+03</rscale>
<asrwt>0</asrwt>
<pdfrwt beam="1">  1        2 0.21132210E+00 0.35013714E+03</pdfrwt>
<pdfrwt beam="2">  1       -2 0.29598886E-02 0.35013714E+03</pdfrwt>
<totfact> 0.69350457E+03</totfact>
</mgrwt>
</event>
<event>
 4    1  0.6853809E-004  0.2449617E+03  0.7818608E-02  0.1116531E+00
          2   -1    0    0  501    0  0.00000000000E+00  0.00000000000E+00  0.83951670664E+03  0.83951670664E+03  0.25500000000E-02 0.  1.
         -2   -1    0    0    0  501 -0.00000000000E+00 -0.00000000000E+00 -0.17869273771E+02  0.17869273953E+02  0.25500000000E-02 0. -1.
    5000001    1    1    2    0    0 -0.75210997158E+02  0.57349445464E+02  0.37139517538E+03  0.39090795500E+03  0.77000000000E+02 0.  0.
   -5000001    1    1    2    0    0  0.75210997158E+02 -0.57349445464E+02  0.45025225749E+03  0.46647802560E+03  0.77000000000E+02 0.  0.
<mgrwt>
<rscale>  0 0.24496166E+03</rscale>
<asrwt>0</asrwt>
<pdfrwt beam="1">  1        2 0.11993098E+00 0.24496166E+03</pdfrwt>
<pdfrwt beam="2">  1       -2 0.25527529E-02 0.24496166E+03</pdfrwt>
<totfact> 0.19542932E+04</totfact>
</mgrwt>
</event>
<event>
 4    1  0.6853809E-004  0.2853944E+03  0.7818608E-02  0.1092779E+00
          2   -1    0    0  501    0  0.00000000000E+00  0.00000000000E+00  0.84118036819E+03  0.84118036819E+03  0.25500000000E-02 0.  1.
         -2   -1    0    0    0  501 -0.00000000000E+00 -0.00000000000E+00 -0.24207051659E+02  0.24207051793E+02  0.25500000000E-02 0. -1.
    5000001    1    1    2    0    0  0.11191046367E+03 -0.30379745508E+02  0.50373098520E+03  0.52260959259E+03  0.77000000000E+02 0.  0.
   -5000001    1    1    2    0    0 -0.11191046367E+03  0.30379745508E+02  0.31324233133E+03  0.34277782739E+03  0.77000000000E+02 0.  0.
<mgrwt>
<rscale>  0 0.28539444E+03</rscale>
<asrwt>0</asrwt>
<pdfrwt beam="1">  1        2 0.12016864E+00 0.28539444E+03</pdfrwt>
<pdfrwt beam="2">  1       -2 0.34581498E-02 0.28539444E+03</pdfrwt>
<totfact> 0.12497855E+04</totfact>
</mgrwt>
</event>
<event>
 4    1  0.6853809E-004  0.2318166E+03  0.7818608E-02  0.1125368E+00
          2   -1    0    0  501    0  0.00000000000E+00  0.00000000000E+00  0.12295847579E+03  0.12295847582E+03  0.25500000000E-02 0.  1.
         -2   -1    0    0    0  501 -0.00000000000E+00 -0.00000000000E+00 -0.10926238186E+03  0.10926238189E+03  0.25500000000E-02 0. -1.
    5000001    1    1    2    0    0  0.12143594572E+02 -0.35816830823E+02 -0.71232877484E+02  0.11150531420E+03  0.77000000000E+02 0.  0.
   -5000001    1    1    2    0    0 -0.12143594572E+02  0.35816830823E+02  0.84928971418E+02  0.12071554351E+03  0.77000000000E+02 0.  0.
<mgrwt>
<rscale>  0 0.23181662E+03</rscale>
<asrwt>0</asrwt>
<pdfrwt beam="1">  1        2 0.17565497E-01 0.23181662E+03</pdfrwt>
<pdfrwt beam="2">  1       -2 0.15608912E-01 0.23181662E+03</pdfrwt>
<totfact> 0.10129098E+04</totfact>
</mgrwt>
</event>
<event>
 4    1  0.6853809E-004  0.2570265E+03  0.7818608E-02  0.1108943E+00
          2   -1    0    0  501    0  0.00000000000E+00  0.00000000000E+00  0.47101329923E+03  0.47101329924E+03  0.25500000000E-02 0.  1.
         -2   -1    0    0    0  501 -0.00000000000E+00 -0.00000000000E+00 -0.35064106705E+02  0.35064106798E+02  0.25500000000E-02 0. -1.
    5000001    1    1    2    0    0  0.97874072638E+02  0.31488533191E+02  0.21014839681E+03  0.24629699653E+03  0.77000000000E+02 0.  0.
   -5000001    1    1    2    0    0 -0.97874072638E+02 -0.31488533191E+02  0.22580079572E+03  0.25978040951E+03  0.77000000000E+02 0.  0.
<mgrwt>
<rscale>  0 0.25702654E+03</rscale>
<asrwt>0</asrwt>
<pdfrwt beam="1">  1        2 0.67287618E-01 0.25702654E+03</pdfrwt>
<pdfrwt beam="2">  1       -2 0.50091578E-02 0.25702654E+03</pdfrwt>
<totfact> 0.13967284E+04</totfact>
</mgrwt>
</event>
<event>
 4    1  0.6853809E-004  0.3537351E+03  0.7818608E-02  0.1061092E+00
          2   -1    0    0  501    0  0.00000000000E+00  0.00000000000E+00  0.20506793639E+04  0.20506793639E+04  0.25500000000E-02 0.  1.
         -2   -1    0    0    0  501 -0.00000000000E+00 -0.00000000000E+00 -0.15254521916E+02  0.15254522129E+02  0.25500000000E-02 0. -1.
    5000001    1    1    2    0    0 -0.19421753064E+02 -0.14828087061E+03  0.13369987372E+04  0.13475381421E+04  0.77000000000E+02 0.  0.
   -5000001    1    1    2    0    0  0.19421753064E+02  0.14828087061E+03  0.69842610472E+03  0.71839574389E+03  0.77000000000E+02 0.  0.
<mgrwt>
<rscale>  0 0.35373512E+03</rscale>
<asrwt>0</asrwt>
<pdfrwt beam="1">  1        2 0.29295431E+00 0.35373512E+03</pdfrwt>
<pdfrwt beam="2">  1       -2 0.21792166E-02 0.35373512E+03</pdfrwt>
<totfact> 0.56871648E+03</totfact>
</mgrwt>
</event>
<event>
 4    1  0.6853809E-004  0.2073925E+03  0.7818608E-02  0.1143648E+00
         -2   -1    0    0    0  501 -0.00000000000E+00  0.00000000000E+00  0.10568012844E+02  0.10568013151E+02  0.25500000000E-02 0. -1.
          2   -1    0    0  501    0  0.00000000000E+00 -0.00000000000E+00 -0.10174960139E+04  0.10174960139E+04  0.25500000000E-02 0.  1.
    5000001    1    1    2    0    0  0.59811388503E+02  0.33172738225E+02 -0.56337686216E+03  0.57271312327E+03  0.77000000000E+02 0.  0.
   -5000001    1    1    2    0    0 -0.59811388503E+02 -0.33172738225E+02 -0.44355113892E+03  0.45535090380E+03  0.77000000000E+02 0.  0.
<mgrwt>
<rscale>  0 0.20739249E+03</rscale>
<asrwt>0</asrwt>
<pdfrwt beam="1">  1        2 0.14535651E+00 0.20739249E+03</pdfrwt>
<pdfrwt beam="2">  1       -2 0.15097168E-02 0.20739249E+03</pdfrwt>
<totfact> 0.32503528E+04</totfact>
</mgrwt>
</event>
<event>
 4    1  0.6853809E-004  0.2316762E+03  0.7818608E-02  0.1125466E+00
         -2   -1    0    0    0  501 -0.00000000000E+00  0.00000000000E+00  0.17975568416E+02  0.17975568597E+02  0.25500000000E-02 0.  1.
          2   -1    0    0  501    0  0.00000000000E+00 -0.00000000000E+00 -0.74648338424E+03  0.74648338425E+03  0.25500000000E-02 0. -1.
    5000001    1    1    2    0    0 -0.17057170184E+02  0.84518797111E+02 -0.38874485649E+03  0.40556865950E+03  0.77000000000E+02 0.  0.
   -5000001    1    1    2    0    0  0.17057170184E+02 -0.84518797111E+02 -0.33976295933E+03  0.35889029334E+03  0.77000000000E+02 0.  0.
<mgrwt>
<rscale>  0 0.23167618E+03</rscale>
<asrwt>0</asrwt>
<pdfrwt beam="1">  1        2 0.10664046E+00 0.23167618E+03</pdfrwt>
<pdfrwt beam="2">  1       -2 0.25679388E-02 0.23167618E+03</pdfrwt>
<totfact> 0.22311545E+04</totfact>
</mgrwt>
</event>
<event>
 4    1  0.6853809E-004  0.4926419E+03  0.7818608E-02  0.1015718E+00
         -2   -1    0    0    0  501 -0.00000000000E+00  0.00000000000E+00  0.40963076553E+03  0.40963076553E+03  0.25500000000E-02 0. -1.
          2   -1    0    0  501    0  0.00000000000E+00 -0.00000000000E+00 -0.14811876490E+03  0.14811876492E+03  0.25500000000E-02 0.  1.
    5000001    1    1    2    0    0  0.15050278322E+03 -0.11870909307E+03 -0.21147952203E+02  0.20765156493E+03  0.77000000000E+02 0.  0.
   -5000001    1    1    2    0    0 -0.15050278322E+03  0.11870909307E+03  0.28265995283E+03  0.35009796553E+03  0.77000000000E+02 0.  0.
<mgrwt>
<rscale>  0 0.49264187E+03</rscale>
<asrwt>0</asrwt>
<pdfrwt beam="1">  1        2 0.21159823E-01 0.49264187E+03</pdfrwt>
<pdfrwt beam="2">  1       -2 0.58518681E-01 0.49264187E+03</pdfrwt>
<totfact> 0.73001782E+02</totfact>
</mgrwt>
</event>
<event>
 4    1  0.6853809E-004  0.2874294E+03  0.7818608E-02  0.1091699E+00
          2   -1    0    0  501    0  0.00000000000E+00  0.00000000000E+00  0.17864089621E+03  0.17864089623E+03  0.25500000000E-02 0.  1.
         -2   -1    0    0    0  501 -0.00000000000E+00 -0.00000000000E+00 -0.11561694304E+03  0.11561694306E+03  0.25500000000E-02 0. -1.
    5000001    1    1    2    0    0  0.87455398395E+02 -0.76824427044E+02  0.66596756309E+02  0.15464335501E+03  0.77000000000E+02 0.  0.
   -5000001    1    1    2    0    0 -0.87455398395E+02  0.76824427044E+02 -0.35728031326E+01  0.13961448428E+03  0.77000000000E+02 0.  0.
<mgrwt>
<rscale>  0 0.28742940E+03</rscale>
<asrwt>0</asrwt>
<pdfrwt beam="1">  1        2 0.25520128E-01 0.28742940E+03</pdfrwt>
<pdfrwt beam="2">  1       -2 0.16516706E-01 0.28742940E+03</pdfrwt>
<totfact> 0.60888941E+03</totfact>
</mgrwt>
</event>
<event>
 4    1  0.6853809E-004  0.2820603E+03  0.7818608E-02  0.1094569E+00
          2   -1    0    0  501    0  0.00000000000E+00  0.00000000000E+00  0.62160588873E+02  0.62160588925E+02  0.25500000000E-02 0.  1.
         -2   -1    0    0    0  501 -0.00000000000E+00 -0.00000000000E+00 -0.31996956830E+03  0.31996956831E+03  0.25500000000E-02 0. -1.
    5000001    1    1    2    0    0 -0.28326731872E+02  0.10622199542E+03 -0.18756797022E+03  0.23064314320E+03  0.77000000000E+02 0.  0.
   -5000001    1    1    2    0    0  0.28326731872E+02 -0.10622199542E+03 -0.70241009203E+02  0.15148701404E+03  0.77000000000E+02 0.  0.
<mgrwt>
<rscale>  0 0.28206025E+03</rscale>
<asrwt>0</asrwt>
<pdfrwt beam="1">  1        2 0.88800843E-02 0.28206025E+03</pdfrwt>
<pdfrwt beam="2">  1       -2 0.45709937E-01 0.28206025E+03</pdfrwt>
<totfact> 0.34084731E+03</totfact>
</mgrwt>
</event>
<event>
 4    1  0.6853809E-004  0.2261692E+03  0.7818608E-02  0.1129366E+00
          2   -1    0    0  501    0  0.00000000000E+00  0.00000000000E+00  0.23340125123E+04  0.23340125123E+04  0.25500000000E-02 0.  1.
         -2   -1    0    0    0  501 -0.00000000000E+00 -0.00000000000E+00 -0.54790283412E+01  0.54790289346E+01  0.25500000000E-02 0. -1.
    5000001    1    1    2    0    0  0.74111196245E+02  0.32089838282E+02  0.13541273732E+04  0.13587171045E+04  0.77000000000E+02 0.  0.
   -5000001    1    1    2    0    0 -0.74111196245E+02 -0.32089838282E+02  0.97440611077E+03  0.98077443678E+03  0.77000000000E+02 0.  0.
<mgrwt>
<rscale>  0 0.22616915E+03</rscale>
<asrwt>0</asrwt>
<pdfrwt beam="1">  1        2 0.33342983E+00 0.22616915E+03</pdfrwt>
<pdfrwt beam="2">  1       -2 0.78271963E-03 0.22616915E+03</pdfrwt>
<totfact> 0.18334376E+04</totfact>
</mgrwt>
</event>
<event>
 4    1  0.6853809E-004  0.2697420E+03  0.7818608E-02  0.1101427E+00
         -2   -1    0    0    0  501 -0.00000000000E+00  0.00000000000E+00  0.10120244993E+02  0.10120245315E+02  0.25500000000E-02 0. -1.
          2   -1    0    0  501    0  0.00000000000E+00 -0.00000000000E+00 -0.17974053796E+04  0.17974053796E+04  0.25500000000E-02 0.  1.
    5000001    1    1    2    0    0 -0.58382753864E+02 -0.79632850298E+02 -0.55784264894E+03  0.57172314784E+03  0.77000000000E+02 0.  0.
   -5000001    1    1    2    0    0  0.58382753864E+02  0.79632850298E+02 -0.12294424856E+04  0.12358024771E+04  0.77000000000E+02 0.  0.
<mgrwt>
<rscale>  0 0.26974197E+03</rscale>
<asrwt>0</asrwt>
<pdfrwt beam="1">  1        2 0.25677199E+00 0.26974197E+03</pdfrwt>
<pdfrwt beam="2">  1       -2 0.14457505E-02 0.26974197E+03</pdfrwt>
<totfact> 0.13808500E+04</totfact>
</mgrwt>
</event>
<event>
 4    1  0.6853809E-004  0.2100587E+03  0.7818608E-02  0.1141520E+00
         -2   -1    0    0    0  501 -0.00000000000E+00  0.00000000000E+00  0.10699519471E+03  0.10699519474E+03  0.25500000000E-02 0. -1.
          2   -1    0    0  501    0  0.00000000000E+00 -0.00000000000E+00 -0.10309961421E+03  0.10309961425E+03  0.25500000000E-02 0.  1.
    5000001    1    1    2    0    0 -0.67060141489E+02 -0.24320744302E+02 -0.17409496462E+01  0.10497900783E+03  0.77000000000E+02 0.  0.
   -5000001    1    1    2    0    0  0.67060141489E+02  0.24320744302E+02  0.56365301405E+01  0.10511580115E+03  0.77000000000E+02 0.  0.
<mgrwt>
<rscale>  0 0.21005869E+03</rscale>
<asrwt>0</asrwt>
<pdfrwt beam="1">  1        2 0.14728516E-01 0.21005869E+03</pdfrwt>
<pdfrwt beam="2">  1       -2 0.15285028E-01 0.21005869E+03</pdfrwt>
<totfact> 0.12810123E+04</totfact>
</mgrwt>
</event>
<event>
 4    1  0.6853809E-004  0.1854530E+03  0.7818608E-02  0.1162628E+00
         -2   -1    0    0    0  501 -0.00000000000E+00  0.00000000000E+00  0.11470372960E+02  0.11470373243E+02  0.25500000000E-02 0. -1.
          2   -1    0    0  501    0  0.00000000000E+00 -0.00000000000E+00 -0.74960109349E+03  0.74960109349E+03  0.25500000000E-02 0.  1.
    5000001    1    1    2    0    0 -0.28582758647E+02  0.42479092641E+02 -0.34070516197E+03  0.35303038792E+03  0.77000000000E+02 0.  0.
   -5000001    1    1    2    0    0  0.28582758647E+02 -0.42479092641E+02 -0.39742555856E+03  0.40804107881E+03  0.77000000000E+02 0.  0.
<mgrwt>
<rscale>  0 0.18545300E+03</rscale>
<asrwt>0</asrwt>
<pdfrwt beam="1">  1        2 0.10708584E+00 0.18545300E+03</pdfrwt>
<pdfrwt beam="2">  1       -2 0.16386252E-02 0.18545300E+03</pdfrwt>
<totfact> 0.42174335E+04</totfact>
</mgrwt>
</event>
<event>
 4    1  0.6853809E-004  0.2562773E+03  0.7818608E-02  0.1109401E+00
          2   -1    0    0  501    0  0.00000000000E+00  0.00000000000E+00  0.33922515646E+04  0.33922515646E+04  0.25500000000E-02 0.  1.
         -2   -1    0    0    0  501 -0.00000000000E+00 -0.00000000000E+00 -0.48402975266E+01  0.48402981983E+01  0.25500000000E-02 0. -1.
    5000001    1    1    2    0    0  0.85756872830E+02 -0.30027954637E+02  0.10670975041E+04  0.10737234292E+04  0.77000000000E+02 0.  0.
   -5000001    1    1    2    0    0 -0.85756872830E+02  0.30027954637E+02  0.23203137630E+04  0.23233684336E+04  0.77000000000E+02 0.  0.
<mgrwt>
<rscale>  0 0.25627726E+03</rscale>
<asrwt>0</asrwt>
<pdfrwt beam="1">  1        2 0.48460619E+00 0.25627726E+03</pdfrwt>
<pdfrwt beam="2">  1       -2 0.69147280E-03 0.25627726E+03</pdfrwt>
<totfact> 0.61672104E+03</totfact>
</mgrwt>
</event>
<event>
 4    1  0.6853809E-004  0.1680917E+03  0.7818608E-02  0.1179853E+00
          2   -1    0    0  501    0  0.00000000000E+00  0.00000000000E+00  0.21951819658E+01  0.21951834468E+01  0.25500000000E-02 0.  1.
         -2   -1    0    0    0  501 -0.00000000000E+00 -0.00000000000E+00 -0.32178202108E+04  0.32178202108E+04  0.25500000000E-02 0. -1.
    5000001    1    1    2    0    0 -0.32376272918E+02 -0.83509886435E+01 -0.16861925244E+04  0.16882808390E+04  0.77000000000E+02 0.  0.
   -5000001    1    1    2    0    0  0.32376272918E+02  0.83509886435E+01 -0.15294325045E+04  0.15317345553E+04  0.77000000000E+02 0.  0.
<mgrwt>
<rscale>  0 0.16809168E+03</rscale>
<asrwt>0</asrwt>
<pdfrwt beam="1">  1        2 0.31359959E-03 0.16809168E+03</pdfrwt>
<pdfrwt beam="2">  1       -2 0.45968558E+00 0.16809168E+03</pdfrwt>
<totfact> 0.27291742E+02</totfact>
</mgrwt>
</event>
<event>
 4    1  0.6853809E-004  0.2880214E+03  0.7818608E-02  0.1091387E+00
          2   -1    0    0  501    0  0.00000000000E+00  0.00000000000E+00  0.25037064929E+04  0.25037064929E+04  0.25500000000E-02 0.  1.
         -2   -1    0    0    0  501 -0.00000000000E+00 -0.00000000000E+00 -0.82833497405E+01  0.82833501330E+01  0.25500000000E-02 0. -1.
    5000001    1    1    2    0    0 -0.90288074417E+02 -0.30395725805E+01  0.19588728881E+04  0.19624660932E+04  0.77000000000E+02 0.  0.
   -5000001    1    1    2    0    0  0.90288074417E+02  0.30395725805E+01  0.53655025505E+03  0.54952374979E+03  0.77000000000E+02 0.  0.
<mgrwt>
<rscale>  0 0.28802137E+03</rscale>
<asrwt>0</asrwt>
<pdfrwt beam="1">  1        2 0.35767276E+00 0.28802137E+03</pdfrwt>
<pdfrwt beam="2">  1       -2 0.11833344E-02 0.28802137E+03</pdfrwt>
<totfact> 0.83331982E+03</totfact>
</mgrwt>
</event>
<event>
 4    1  0.6853809E-004  0.5580744E+03  0.7818608E-02  0.9996421E-01
         -2   -1    0    0    0  501 -0.00000000000E+00  0.00000000000E+00  0.48830587257E+02  0.48830587323E+02  0.25500000000E-02 0. -1.
          2   -1    0    0  501    0  0.00000000000E+00 -0.00000000000E+00 -0.15945286838E+04  0.15945286838E+04  0.25500000000E-02 0.  1.
    5000001    1    1    2    0    0 -0.70120570001E+02 -0.25859437753E+03 -0.73741154340E+03  0.78834810253E+03  0.77000000000E+02 0.  0.
   -5000001    1    1    2    0    0  0.70120570001E+02  0.25859437753E+03 -0.80828655316E+03  0.85501116861E+03  0.77000000000E+02 0.  0.
<mgrwt>
<rscale>  0 0.55807445E+03</rscale>
<asrwt>0</asrwt>
<pdfrwt beam="1">  1        2 0.22778978E+00 0.55807445E+03</pdfrwt>
<pdfrwt beam="2">  1       -2 0.69757992E-02 0.55807445E+03</pdfrwt>
<totfact> 0.16216647E+03</totfact>
</mgrwt>
</event>
<event>
 4    1  0.6853809E-004  0.5294484E+03  0.7818608E-02  0.1006366E+00
          2   -1    0    0  501    0  0.00000000000E+00  0.00000000000E+00  0.11384450862E+04  0.11384450862E+04  0.25500000000E-02 0.  1.
         -2   -1    0    0    0  501 -0.00000000000E+00 -0.00000000000E+00 -0.61556678294E+02  0.61556678347E+02  0.25500000000E-02 0. -1.
    5000001    1    1    2    0    0 -0.17346140583E+02  0.23190761460E+03  0.76586334042E+03  0.80408810867E+03  0.77000000000E+02 0.  0.
   -5000001    1    1    2    0    0  0.17346140583E+02 -0.23190761460E+03  0.31102506746E+03  0.39591365586E+03  0.77000000000E+02 0.  0.
<mgrwt>
<rscale>  0 0.52944838E+03</rscale>
<asrwt>0</asrwt>
<pdfrwt beam="1">  1        2 0.16263502E+00 0.52944838E+03</pdfrwt>
<pdfrwt beam="2">  1       -2 0.87938110E-02 0.52944838E+03</pdfrwt>
<totfact> 0.19719370E+03</totfact>
</mgrwt>
</event>
<event>
 4    1  0.6853809E-004  0.4853542E+03  0.7818608E-02  0.1017674E+00
         -2   -1    0    0    0  501 -0.00000000000E+00  0.00000000000E+00  0.10835769435E+03  0.10835769438E+03  0.25500000000E-02 0. -1.
          2   -1    0    0  501    0  0.00000000000E+00 -0.00000000000E+00 -0.54349786953E+03  0.54349786953E+03  0.25500000000E-02 0.  1.
    5000001    1    1    2    0    0  0.19154260528E+03 -0.73142013267E+02 -0.77191661976E+02  0.23221945745E+03  0.77000000000E+02 0.  0.
   -5000001    1    1    2    0    0 -0.19154260528E+03  0.73142013267E+02 -0.35794851320E+03  0.41963610646E+03  0.77000000000E+02 0.  0.
<mgrwt>
<rscale>  0 0.48535420E+03</rscale>
<asrwt>0</asrwt>
<pdfrwt beam="1">  1        2 0.77642552E-01 0.48535420E+03</pdfrwt>
<pdfrwt beam="2">  1       -2 0.15479671E-01 0.48535420E+03</pdfrwt>
<totfact> 0.20146017E+03</totfact>
</mgrwt>
</event>
<event>
 4    1  0.6853809E-004  0.2369084E+03  0.7818608E-02  0.1121870E+00
         -2   -1    0    0    0  501 -0.00000000000E+00  0.00000000000E+00  0.14603652709E+02  0.14603652931E+02  0.25500000000E-02 0. -1.
          2   -1    0    0  501    0  0.00000000000E+00 -0.00000000000E+00 -0.96081433132E+03  0.96081433132E+03  0.25500000000E-02 0.  1.
    5000001    1    1    2    0    0 -0.54385117363E+02 -0.24114642549E+02 -0.75123177249E+03  0.75750738146E+03  0.77000000000E+02 0.  0.
   -5000001    1    1    2    0    0  0.54385117363E+02  0.24114642549E+02 -0.19497890612E+03  0.21791060279E+03  0.77000000000E+02 0.  0.
<mgrwt>
<rscale>  0 0.23690841E+03</rscale>
<asrwt>0</asrwt>
<pdfrwt beam="1">  1        2 0.13725915E+00 0.23690841E+03</pdfrwt>
<pdfrwt beam="2">  1       -2 0.20862367E-02 0.23690841E+03</pdfrwt>
<totfact> 0.22064359E+04</totfact>
</mgrwt>
</event>
<event>
 4    1  0.6853809E-004  0.2466154E+03  0.7818608E-02  0.1115463E+00
          2   -1    0    0  501    0  0.00000000000E+00  0.00000000000E+00  0.25002390150E+03  0.25002390151E+03  0.25500000000E-02 0.  1.
         -2   -1    0    0    0  501 -0.00000000000E+00 -0.00000000000E+00 -0.60813333301E+02  0.60813333355E+02  0.25500000000E-02 0. -1.
    5000001    1    1    2    0    0 -0.68238959518E+02  0.27590731942E+02  0.16317677632E+02  0.10776395821E+03  0.77000000000E+02 0.  0.
   -5000001    1    1    2    0    0  0.68238959518E+02 -0.27590731942E+02  0.17289289057E+03  0.20307327666E+03  0.77000000000E+02 0.  0.
<mgrwt>
<rscale>  0 0.24661538E+03</rscale>
<asrwt>0</asrwt>
<pdfrwt beam="1">  1        2 0.35717700E-01 0.24661538E+03</pdfrwt>
<pdfrwt beam="2">  1       -2 0.86876190E-02 0.24661538E+03</pdfrwt>
<totfact> 0.11811339E+04</totfact>
</mgrwt>
</event>
<event>
 4    1  0.6853809E-004  0.2235909E+03  0.7818608E-02  0.1131234E+00
          2   -1    0    0  501    0  0.00000000000E+00  0.00000000000E+00  0.87007451382E+03  0.87007451382E+03  0.25500000000E-02 0.  1.
         -2   -1    0    0    0  501 -0.00000000000E+00 -0.00000000000E+00 -0.14364539000E+02  0.14364539227E+02  0.25500000000E-02 0. -1.
    5000001    1    1    2    0    0 -0.10449042651E+01  0.62528060440E+02  0.22390602821E+03  0.24489540550E+03  0.77000000000E+02 0.  0.
   -5000001    1    1    2    0    0  0.10449042651E+01 -0.62528060440E+02  0.63180394661E+03  0.63954364754E+03  0.77000000000E+02 0.  0.
<mgrwt>
<rscale>  0 0.22359087E+03</rscale>
<asrwt>0</asrwt>
<pdfrwt beam="1">  1        2 0.12429634E+00 0.22359087E+03</pdfrwt>
<pdfrwt beam="2">  1       -2 0.20520773E-02 0.22359087E+03</pdfrwt>
<totfact> 0.25624602E+04</totfact>
</mgrwt>
</event>
<event>
 4    1  0.6853809E-004  0.2473308E+03  0.7818608E-02  0.1115003E+00
          2   -1    0    0  501    0  0.00000000000E+00  0.00000000000E+00  0.17672546942E+03  0.17672546943E+03  0.25500000000E-02 0.  1.
         -2   -1    0    0    0  501 -0.00000000000E+00 -0.00000000000E+00 -0.86536104493E+02  0.86536104531E+02  0.25500000000E-02 0. -1.
    5000001    1    1    2    0    0 -0.75124717252E+02 -0.52916706598E+02  0.77383940807E+02  0.14269259012E+03  0.77000000000E+02 0.  0.
   -5000001    1    1    2    0    0  0.75124717252E+02  0.52916706598E+02  0.12805424115E+02  0.12056898385E+03  0.77000000000E+02 0.  0.
<mgrwt>
<rscale>  0 0.24733082E+03</rscale>
<asrwt>0</asrwt>
<pdfrwt beam="1">  1        2 0.25246495E-01 0.24733082E+03</pdfrwt>
<pdfrwt beam="2">  1       -2 0.12362301E-01 0.24733082E+03</pdfrwt>
<totfact> 0.98560102E+03</totfact>
</mgrwt>
</event>
<event>
 4    1  0.6853809E-004  0.3505292E+03  0.7818608E-02  0.1062398E+00
          2   -1    0    0  501    0  0.00000000000E+00  0.00000000000E+00  0.59291927328E+03  0.59291927329E+03  0.25500000000E-02 0.  1.
         -2   -1    0    0    0  501 -0.00000000000E+00 -0.00000000000E+00 -0.51807528110E+02  0.51807528173E+02  0.25500000000E-02 0. -1.
    5000001    1    1    2    0    0  0.15227072806E+03  0.34696719502E+02  0.23384153615E+03  0.29154948293E+03  0.77000000000E+02 0.  0.
   -5000001    1    1    2    0    0 -0.15227072806E+03 -0.34696719502E+02  0.30727020902E+03  0.35317731853E+03  0.77000000000E+02 0.  0.
<mgrwt>
<rscale>  0 0.35052921E+03</rscale>
<asrwt>0</asrwt>
<pdfrwt beam="1">  1        2 0.84702754E-01 0.35052921E+03</pdfrwt>
<pdfrwt beam="2">  1       -2 0.74010754E-02 0.35052921E+03</pdfrwt>
<totfact> 0.59847127E+03</totfact>
</mgrwt>
</event>
<event>
 4    1  0.6853809E-004  0.3201853E+03  0.7818608E-02  0.1075564E+00
          2   -1    0    0  501    0  0.00000000000E+00  0.00000000000E+00  0.15598836461E+03  0.15598836463E+03  0.25500000000E-02 0.  1.
         -2   -1    0    0    0  501 -0.00000000000E+00 -0.00000000000E+00 -0.16430489794E+03  0.16430489796E+03  0.25500000000E-02 0. -1.
    5000001    1    1    2    0    0  0.12129008860E+03 -0.55129864263E+02 -0.48332698509E+02  0.16129363680E+03  0.77000000000E+02 0.  0.
   -5000001    1    1    2    0    0 -0.12129008860E+03  0.55129864263E+02  0.40016165186E+02  0.15899962579E+03  0.77000000000E+02 0.  0.
<mgrwt>
<rscale>  0 0.32018527E+03</rscale>
<asrwt>0</asrwt>
<pdfrwt beam="1">  1        2 0.22284052E-01 0.32018527E+03</pdfrwt>
<pdfrwt beam="2">  1       -2 0.23472128E-01 0.32018527E+03</pdfrwt>
<totfact> 0.39004891E+03</totfact>
</mgrwt>
</event>
<event>
 4    1  0.6853809E-004  0.2595992E+03  0.7818608E-02  0.1107384E+00
          2   -1    0    0  501    0  0.00000000000E+00  0.00000000000E+00  0.17022720684E+03  0.17022720686E+03  0.25500000000E-02 0.  1.
         -2   -1    0    0    0  501 -0.00000000000E+00 -0.00000000000E+00 -0.98973260991E+02  0.98973261024E+02  0.25500000000E-02 0. -1.
    5000001    1    1    2    0    0 -0.22105307957E+02 -0.60531882627E+02 -0.49672123139E+02  0.11202264624E+03  0.77000000000E+02 0.  0.
   -5000001    1    1    2    0    0  0.22105307957E+02  0.60531882627E+02  0.12092606899E+03  0.15717782164E+03  0.77000000000E+02 0.  0.
<mgrwt>
<rscale>  0 0.25959924E+03</rscale>
<asrwt>0</asrwt>
<pdfrwt beam="1">  1        2 0.24318172E-01 0.25959924E+03</pdfrwt>
<pdfrwt beam="2">  1       -2 0.14139037E-01 0.25959924E+03</pdfrwt>
<totfact> 0.82777475E+03</totfact>
</mgrwt>
</event>
<event>
 4    1  0.6853809E-004  0.2817787E+03  0.7818608E-02  0.1094721E+00
         -2   -1    0    0    0  501 -0.00000000000E+00  0.00000000000E+00  0.75126159846E+02  0.75126159889E+02  0.25500000000E-02 0. -1.
          2   -1    0    0  501    0  0.00000000000E+00 -0.00000000000E+00 -0.26421970843E+03  0.26421970844E+03  0.25500000000E-02 0.  1.
    5000001    1    1    2    0    0  0.10702304190E+02  0.94325914479E+02 -0.17892419089E+03  0.21669052481E+03  0.77000000000E+02 0.  0.
   -5000001    1    1    2    0    0 -0.10702304190E+02 -0.94325914479E+02 -0.10169357690E+02  0.12265534352E+03  0.77000000000E+02 0.  0.
<mgrwt>
<rscale>  0 0.28177872E+03</rscale>
<asrwt>0</asrwt>
<pdfrwt beam="1">  1        2 0.37745672E-01 0.28177872E+03</pdfrwt>
<pdfrwt beam="2">  1       -2 0.10732309E-01 0.28177872E+03</pdfrwt>
<totfact> 0.80099467E+03</totfact>
</mgrwt>
</event>
<event>
 4    1  0.6853809E-004  0.2913090E+03  0.7818608E-02  0.1089668E+00
          2   -1    0    0  501    0  0.00000000000E+00  0.00000000000E+00  0.50102414451E+03  0.50102414451E+03  0.25500000000E-02 0.  1.
         -2   -1    0    0    0  501 -0.00000000000E+00 -0.00000000000E+00 -0.42343732616E+02  0.42343732692E+02  0.25500000000E-02 0. -1.
    5000001    1    1    2    0    0  0.35814802733E+02  0.30778935609E+02  0.16208388052E+02  0.91770119403E+02  0.77000000000E+02 0.  0.
   -5000001    1    1    2    0    0 -0.35814802733E+02 -0.30778935609E+02  0.44247202384E+03  0.45159775780E+03  0.77000000000E+02 0.  0.
<mgrwt>
<rscale>  0 0.29130899E+03</rscale>
<asrwt>0</asrwt>
<pdfrwt beam="1">  1        2 0.71574875E-01 0.29130899E+03</pdfrwt>
<pdfrwt beam="2">  1       -2 0.60491049E-02 0.29130899E+03</pdfrwt>
<totfact> 0.98364790E+03</totfact>
</mgrwt>
</event>
<event>
 4    1  0.6853809E-004  0.1977393E+03  0.7818608E-02  0.1151660E+00
         -2   -1    0    0    0  501 -0.00000000000E+00  0.00000000000E+00  0.55401974813E+01  0.55401980681E+01  0.25500000000E-02 0. -1.
          2   -1    0    0  501    0  0.00000000000E+00 -0.00000000000E+00 -0.17644153679E+04  0.17644153679E+04  0.25500000000E-02 0.  1.
    5000001    1    1    2    0    0 -0.58157191887E+01 -0.61325363607E+02 -0.94372717604E+03  0.94886490377E+03  0.77000000000E+02 0.  0.
   -5000001    1    1    2    0    0  0.58157191887E+01  0.61325363607E+02 -0.81514799438E+03  0.82109066220E+03  0.77000000000E+02 0.  0.
<mgrwt>
<rscale>  0 0.19773932E+03</rscale>
<asrwt>0</asrwt>
<pdfrwt beam="1">  1        2 0.25205898E+00 0.19773932E+03</pdfrwt>
<pdfrwt beam="2">  1       -2 0.79145796E-03 0.19773932E+03</pdfrwt>
<totfact> 0.33857991E+04</totfact>
</mgrwt>
</event>
<event>
 4    1  0.6853809E-004  0.2202008E+03  0.7818608E-02  0.1133733E+00
          2   -1    0    0  501    0  0.00000000000E+00  0.00000000000E+00  0.17374993832E+04  0.17374993833E+04  0.25500000000E-02 0.  1.
         -2   -1    0    0    0  501 -0.00000000000E+00 -0.00000000000E+00 -0.69767470572E+01  0.69767475232E+01  0.25500000000E-02 0. -1.
    5000001    1    1    2    0    0 -0.30134051810E+02 -0.72566455612E+02  0.83059991007E+03  0.83785390264E+03  0.77000000000E+02 0.  0.
   -5000001    1    1    2    0    0  0.30134051810E+02  0.72566455612E+02  0.89992272612E+03  0.90662222814E+03  0.77000000000E+02 0.  0.
<mgrwt>
<rscale>  0 0.22020076E+03</rscale>
<asrwt>0</asrwt>
<pdfrwt beam="1">  1        2 0.24821431E+00 0.22020076E+03</pdfrwt>
<pdfrwt beam="2">  1       -2 0.99667774E-03 0.22020076E+03</pdfrwt>
<totfact> 0.25172213E+04</totfact>
</mgrwt>
</event>
<event>
 4    1  0.6853809E-004  0.4093537E+03  0.7818608E-02  0.1040588E+00
         -2   -1    0    0    0  501 -0.00000000000E+00  0.00000000000E+00  0.20593476019E+02  0.20593476177E+02  0.25500000000E-02 0. -1.
          2   -1    0    0  501    0  0.00000000000E+00 -0.00000000000E+00 -0.20342664385E+04  0.20342664385E+04  0.25500000000E-02 0.  1.
    5000001    1    1    2    0    0 -0.23084294614E+02 -0.13458666493E+03 -0.16674110355E+04  0.16747641674E+04  0.77000000000E+02 0.  0.
   -5000001    1    1    2    0    0  0.23084294614E+02  0.13458666493E+03 -0.34626192692E+03  0.38009574724E+03  0.77000000000E+02 0.  0.
<mgrwt>
<rscale>  0 0.40935372E+03</rscale>
<asrwt>0</asrwt>
<pdfrwt beam="1">  1        2 0.29060936E+00 0.40935372E+03</pdfrwt>
<pdfrwt beam="2">  1       -2 0.29419265E-02 0.40935372E+03</pdfrwt>
<totfact> 0.36970193E+03</totfact>
</mgrwt>
</event>
<event>
 4    1  0.6853809E-004  0.2472104E+03  0.7818608E-02  0.1115081E+00
         -2   -1    0    0    0  501 -0.00000000000E+00  0.00000000000E+00  0.47790203329E+02  0.47790203397E+02  0.25500000000E-02 0. -1.
          2   -1    0    0  501    0  0.00000000000E+00 -0.00000000000E+00 -0.31969416756E+03  0.31969416757E+03  0.25500000000E-02 0.  1.
    5000001    1    1    2    0    0  0.66271977512E+02  0.70392349114E+02 -0.13375138955E+03  0.18211395340E+03  0.77000000000E+02 0.  0.
   -5000001    1    1    2    0    0 -0.66271977512E+02 -0.70392349114E+02 -0.13815257467E+03  0.18537041756E+03  0.77000000000E+02 0.  0.
<mgrwt>
<rscale>  0 0.24721043E+03</rscale>
<asrwt>0</asrwt>
<pdfrwt beam="1">  1        2 0.45670594E-01 0.24721043E+03</pdfrwt>
<pdfrwt beam="2">  1       -2 0.68271721E-02 0.24721043E+03</pdfrwt>
<totfact> 0.13190888E+04</totfact>
</mgrwt>
</event>
<event>
 4    1  0.6853809E-004  0.1832448E+03  0.7818608E-02  0.1164699E+00
          2   -1    0    0  501    0  0.00000000000E+00  0.00000000000E+00  0.10219030809E+02  0.10219031128E+02  0.25500000000E-02 0.  1.
         -2   -1    0    0    0  501 -0.00000000000E+00 -0.00000000000E+00 -0.82147353362E+03  0.82147353362E+03  0.25500000000E-02 0. -1.
    5000001    1    1    2    0    0 -0.31035921451E+02 -0.13180214033E+02 -0.24018462083E+03  0.25446924873E+03  0.77000000000E+02 0.  0.
   -5000001    1    1    2    0    0  0.31035921451E+02  0.13180214033E+02 -0.57106988198E+03  0.57722331602E+03  0.77000000000E+02 0.  0.
<mgrwt>
<rscale>  0 0.18324479E+03</rscale>
<asrwt>0</asrwt>
<pdfrwt beam="1">  1        2 0.14598621E-02 0.18324479E+03</pdfrwt>
<pdfrwt beam="2">  1       -2 0.11735332E+00 0.18324479E+03</pdfrwt>
<totfact> 0.48314949E+03</totfact>
</mgrwt>
</event>
<event>
 4    1  0.6853809E-004  0.1680703E+03  0.7818608E-02  0.1179875E+00
          2   -1    0    0  501    0  0.00000000000E+00  0.00000000000E+00  0.15621258655E+04  0.15621258655E+04  0.25500000000E-02 0.  1.
         -2   -1    0    0    0  501 -0.00000000000E+00 -0.00000000000E+00 -0.45207012196E+01  0.45207019388E+01  0.25500000000E-02 0. -1.
    5000001    1    1    2    0    0 -0.27421372797E+02 -0.63792083279E+01  0.60685439354E+03  0.61236743948E+03  0.77000000000E+02 0.  0.
   -5000001    1    1    2    0    0  0.27421372797E+02  0.63792083279E+01  0.95075077072E+03  0.95427912793E+03  0.77000000000E+02 0.  0.
<mgrwt>
<rscale>  0 0.16807028E+03</rscale>
<asrwt>0</asrwt>
<pdfrwt beam="1">  1        2 0.22316101E+00 0.16807028E+03</pdfrwt>
<pdfrwt beam="2">  1       -2 0.64581401E-03 0.16807028E+03</pdfrwt>
<totfact> 0.56226575E+04</totfact>
</mgrwt>
</event>
<event>
 4    1  0.6853809E-004  0.2121807E+03  0.7818608E-02  0.1139851E+00
          2   -1    0    0  501    0  0.00000000000E+00  0.00000000000E+00  0.22222823062E+04  0.22222823062E+04  0.25500000000E-02 0.  1.
         -2   -1    0    0    0  501 -0.00000000000E+00 -0.00000000000E+00 -0.50646866135E+01  0.50646872554E+01  0.25500000000E-02 0. -1.
    5000001    1    1    2    0    0 -0.47888598681E+02 -0.20082292802E+02  0.57031113717E+03  0.57782385686E+03  0.77000000000E+02 0.  0.
   -5000001    1    1    2    0    0  0.47888598681E+02  0.20082292802E+02  0.16469064824E+04  0.16495231366E+04  0.77000000000E+02 0.  0.
<mgrwt>
<rscale>  0 0.21218072E+03</rscale>
<asrwt>0</asrwt>
<pdfrwt beam="1">  1        2 0.31746857E+00 0.21218072E+03</pdfrwt>
<pdfrwt beam="2">  1       -2 0.72352746E-03 0.21218072E+03</pdfrwt>
<totfact> 0.23223610E+04</totfact>
</mgrwt>
</event>
<event>
 4    1  0.6853809E-004  0.1882432E+03  0.7818608E-02  0.1160055E+00
          2   -1    0    0  501    0  0.00000000000E+00  0.00000000000E+00  0.48806448011E+04  0.48806448011E+04  0.25500000000E-02 0.  1.
         -2   -1    0    0    0  501 -0.00000000000E+00 -0.00000000000E+00 -0.18151035634E+01  0.18151053546E+01  0.25500000000E-02 0. -1.
    5000001    1    1    2    0    0  0.40278254367E+02 -0.10943349371E+02  0.33333134999E+04  0.33344639724E+04  0.77000000000E+02 0.  0.
   -5000001    1    1    2    0    0 -0.40278254367E+02  0.10943349371E+02  0.15455161977E+04  0.15479959341E+04  0.77000000000E+02 0.  0.
<mgrwt>
<rscale>  0 0.18824325E+03</rscale>
<asrwt>0</asrwt>
<pdfrwt beam="1">  1        2 0.69722657E+00 0.18824325E+03</pdfrwt>
<pdfrwt beam="2">  1       -2 0.25930376E-03 0.18824325E+03</pdfrwt>
<totfact> 0.24064974E+03</totfact>
</mgrwt>
</event>
<event>
 4    1  0.6853809E-004  0.1822564E+03  0.7818608E-02  0.1165637E+00
         -2   -1    0    0    0  501 -0.00000000000E+00  0.00000000000E+00  0.17143478656E+02  0.17143478845E+02  0.25500000000E-02 0. -1.
          2   -1    0    0  501    0  0.00000000000E+00 -0.00000000000E+00 -0.48440290240E+03  0.48440290241E+03  0.25500000000E-02 0.  1.
    5000001    1    1    2    0    0  0.16888731381E+01  0.30423077678E+02 -0.33830707146E+03  0.34829454567E+03  0.77000000000E+02 0.  0.
   -5000001    1    1    2    0    0 -0.16888731381E+01 -0.30423077678E+02 -0.12895235229E+03  0.15325183558E+03  0.77000000000E+02 0.  0.
<mgrwt>
<rscale>  0 0.18225642E+03</rscale>
<asrwt>0</asrwt>
<pdfrwt beam="1">  1        2 0.69200406E-01 0.18225642E+03</pdfrwt>
<pdfrwt beam="2">  1       -2 0.24490687E-02 0.18225642E+03</pdfrwt>
<totfact> 0.38441710E+04</totfact>
</mgrwt>
</event>
<event>
 4    1  0.6853809E-004  0.1726014E+03  0.7818608E-02  0.1175162E+00
          2   -1    0    0  501    0  0.00000000000E+00  0.00000000000E+00  0.17988676794E+04  0.17988676794E+04  0.25500000000E-02 0.  1.
         -2   -1    0    0    0  501 -0.00000000000E+00 -0.00000000000E+00 -0.41402790085E+01  0.41402797938E+01  0.25500000000E-02 0. -1.
    5000001    1    1    2    0    0  0.10439064166E+02  0.23616411168E+02  0.59243381456E+03  0.59797452585E+03  0.77000000000E+02 0.  0.
   -5000001    1    1    2    0    0 -0.10439064166E+02 -0.23616411168E+02  0.12022935858E+04  0.12050334333E+04  0.77000000000E+02 0.  0.
<mgrwt>
<rscale>  0 0.17260145E+03</rscale>
<asrwt>0</asrwt>
<pdfrwt beam="1">  1        2 0.25698134E+00 0.17260145E+03</pdfrwt>
<pdfrwt beam="2">  1       -2 0.59146792E-03 0.17260145E+03</pdfrwt>
<totfact> 0.49018081E+04</totfact>
</mgrwt>
</event>
<event>
 4    1  0.6853809E-004  0.8745308E+03  0.7818608E-02  0.9457991E-01
         -2   -1    0    0    0  501 -0.00000000000E+00  0.00000000000E+00  0.61856869321E+03  0.61856869322E+03  0.25500000000E-02 0. -1.
          2   -1    0    0  501    0  0.00000000000E+00 -0.00000000000E+00 -0.30910233207E+03  0.30910233208E+03  0.25500000000E-02 0.  1.
    5000001    1    1    2    0    0 -0.37598911440E+03  0.14633881349E+03  0.31380950038E+03  0.51690256820E+03  0.77000000000E+02 0.  0.
   -5000001    1    1    2    0    0  0.37598911440E+03 -0.14633881349E+03 -0.43431392376E+01  0.41076845709E+03  0.77000000000E+02 0.  0.
<mgrwt>
<rscale>  0 0.87453079E+03</rscale>
<asrwt>0</asrwt>
<pdfrwt beam="1">  1        2 0.44157475E-01 0.87453079E+03</pdfrwt>
<pdfrwt beam="2">  1       -2 0.88366958E-01 0.87453079E+03</pdfrwt>
<totfact> 0.12776729E+02</totfact>
</mgrwt>
</event>
<event>
 4    1  0.6853809E-004  0.3102511E+03  0.7818608E-02  0.1080226E+00
          2   -1    0    0  501    0  0.00000000000E+00  0.00000000000E+00  0.11580187313E+03  0.11580187315E+03  0.25500000000E-02 0.  1.
         -2   -1    0    0    0  501 -0.00000000000E+00 -0.00000000000E+00 -0.20780262492E+03  0.20780262493E+03  0.25500000000E-02 0. -1.
    5000001    1    1    2    0    0  0.11010407324E+03  0.77490484560E+02 -0.43191695462E+02  0.16100374126E+03  0.77000000000E+02 0.  0.
   -5000001    1    1    2    0    0 -0.11010407324E+03 -0.77490484560E+02 -0.48809056331E+02  0.16260075683E+03  0.77000000000E+02 0.  0.
<mgrwt>
<rscale>  0 0.31025108E+03</rscale>
<asrwt>0</asrwt>
<pdfrwt beam="1">  1        2 0.16543125E-01 0.31025108E+03</pdfrwt>
<pdfrwt beam="2">  1       -2 0.29686089E-01 0.31025108E+03</pdfrwt>
<totfact> 0.36154768E+03</totfact>
</mgrwt>
</event>
<event>
 4    1  0.6853809E-004  0.2627803E+03  0.7818608E-02  0.1105484E+00
          2   -1    0    0  501    0  0.00000000000E+00  0.00000000000E+00  0.37782907503E+03  0.37782907504E+03  0.25500000000E-02 0.  1.
         -2   -1    0    0    0  501 -0.00000000000E+00 -0.00000000000E+00 -0.45690948292E+02  0.45690948363E+02  0.25500000000E-02 0. -1.
    5000001    1    1    2    0    0 -0.88398139107E+02  0.41640890708E+02  0.97954016968E+02  0.15834198501E+03  0.77000000000E+02 0.  0.
   -5000001    1    1    2    0    0  0.88398139107E+02 -0.41640890708E+02  0.23418410977E+03  0.26517803839E+03  0.77000000000E+02 0.  0.
<mgrwt>
<rscale>  0 0.26278028E+03</rscale>
<asrwt>0</asrwt>
<pdfrwt beam="1">  1        2 0.53975581E-01 0.26278028E+03</pdfrwt>
<pdfrwt beam="2">  1       -2 0.65272784E-02 0.26278028E+03</pdfrwt>
<totfact> 0.11849288E+04</totfact>
</mgrwt>
</event>
<event>
 4    1  0.6853809E-004  0.2089782E+03  0.7818608E-02  0.1142378E+00
         -2   -1    0    0    0  501 -0.00000000000E+00  0.00000000000E+00  0.43345976879E+01  0.43345984380E+01  0.25500000000E-02 0. -1.
          2   -1    0    0  501    0  0.00000000000E+00 -0.00000000000E+00 -0.25187959219E+04  0.25187959219E+04  0.25500000000E-02 0.  1.
    5000001    1    1    2    0    0  0.43325320036E+01  0.69932804936E+02 -0.13649503386E+04  0.13689148239E+04  0.77000000000E+02 0.  0.
   -5000001    1    1    2    0    0 -0.43325320036E+01 -0.69932804936E+02 -0.11495109856E+04  0.11542156965E+04  0.77000000000E+02 0.  0.
<mgrwt>
<rscale>  0 0.20897816E+03</rscale>
<asrwt>0</asrwt>
<pdfrwt beam="1">  1        2 0.35982705E+00 0.20897816E+03</pdfrwt>
<pdfrwt beam="2">  1       -2 0.61922991E-03 0.20897816E+03</pdfrwt>
<totfact> 0.20776930E+04</totfact>
</mgrwt>
</event>
<event>
 4    1  0.6853809E-004  0.1871577E+03  0.7818608E-02  0.1161050E+00
         -2   -1    0    0    0  501 -0.00000000000E+00  0.00000000000E+00  0.92163115319E+01  0.92163118847E+01  0.25500000000E-02 0. -1.
          2   -1    0    0  501    0  0.00000000000E+00 -0.00000000000E+00 -0.95016374558E+03  0.95016374559E+03  0.25500000000E-02 0.  1.
    5000001    1    1    2    0    0 -0.28981029349E+02 -0.37643696249E+02 -0.34797748223E+03  0.35954732105E+03  0.77000000000E+02 0.  0.
   -5000001    1    1    2    0    0  0.28981029349E+02  0.37643696249E+02 -0.59296995182E+03  0.59983273643E+03  0.77000000000E+02 0.  0.
<mgrwt>
<rscale>  0 0.18715774E+03</rscale>
<asrwt>0</asrwt>
<pdfrwt beam="1">  1        2 0.13573762E+00 0.18715774E+03</pdfrwt>
<pdfrwt beam="2">  1       -2 0.13166166E-02 0.18715774E+03</pdfrwt>
<totfact> 0.43099391E+04</totfact>
</mgrwt>
</event>
<event>
 4    1  0.6853809E-004  0.6054561E+03  0.7818608E-02  0.9894151E-01
          2   -1    0    0  501    0  0.00000000000E+00  0.00000000000E+00  0.67609184289E+03  0.67609184289E+03  0.25500000000E-02 0.  1.
         -2   -1    0    0    0  501 -0.00000000000E+00 -0.00000000000E+00 -0.13555003503E+03  0.13555003505E+03  0.25500000000E-02 0. -1.
    5000001    1    1    2    0    0 -0.27717417997E+03 -0.85249616882E+02  0.21627750746E+03  0.36986211411E+03  0.77000000000E+02 0.  0.
   -5000001    1    1    2    0    0  0.27717417997E+03  0.85249616882E+02  0.32426430040E+03  0.44177976383E+03  0.77000000000E+02 0.  0.
<mgrwt>
<rscale>  0 0.60545610E+03</rscale>
<asrwt>0</asrwt>
<pdfrwt beam="1">  1        2 0.96584550E-01 0.60545610E+03</pdfrwt>
<pdfrwt beam="2">  1       -2 0.19364291E-01 0.60545610E+03</pdfrwt>
<totfact> 0.10629333E+03</totfact>
</mgrwt>
</event>
<event>
 4    1  0.6853809E-004  0.1984621E+03  0.7818608E-02  0.1151043E+00
         -2   -1    0    0    0  501 -0.00000000000E+00  0.00000000000E+00  0.70260325346E+02  0.70260325392E+02  0.25500000000E-02 0. -1.
          2   -1    0    0  501    0  0.00000000000E+00 -0.00000000000E+00 -0.14014744434E+03  0.14014744437E+03  0.25500000000E-02 0.  1.
    5000001    1    1    2    0    0 -0.42673860701E+02 -0.16440864306E+02  0.10365741674E+02  0.90154362106E+02  0.77000000000E+02 0.  0.
   -5000001    1    1    2    0    0  0.42673860701E+02  0.16440864306E+02 -0.80252860672E+02  0.12025340765E+03  0.77000000000E+02 0.  0.
<mgrwt>
<rscale>  0 0.19846214E+03</rscale>
<asrwt>0</asrwt>
<pdfrwt beam="1">  1        2 0.20021063E-01 0.19846214E+03</pdfrwt>
<pdfrwt beam="2">  1       -2 0.10037189E-01 0.19846214E+03</pdfrwt>
<totfact> 0.17610712E+04</totfact>
</mgrwt>
</event>
<event>
 4    1  0.6853809E-004  0.1776852E+03  0.7818608E-02  0.1170062E+00
         -2   -1    0    0    0  501 -0.00000000000E+00  0.00000000000E+00  0.50149498347E+01  0.50149504830E+01  0.25500000000E-02 0. -1.
          2   -1    0    0  501    0  0.00000000000E+00 -0.00000000000E+00 -0.15738958494E+04  0.15738958494E+04  0.25500000000E-02 0.  1.
    5000001    1    1    2    0    0  0.41176832171E+02 -0.14654806952E+01 -0.63942428289E+03  0.64536043626E+03  0.77000000000E+02 0.  0.
   -5000001    1    1    2    0    0 -0.41176832171E+02  0.14654806952E+01 -0.92945661665E+03  0.93355036360E+03  0.77000000000E+02 0.  0.
<mgrwt>
<rscale>  0 0.17768522E+03</rscale>
<asrwt>0</asrwt>
<pdfrwt beam="1">  1        2 0.22484195E+00 0.17768522E+03</pdfrwt>
<pdfrwt beam="2">  1       -2 0.71642246E-03 0.17768522E+03</pdfrwt>
<totfact> 0.48038574E+04</totfact>
</mgrwt>
</event>
<event>
 4    1  0.6853809E-004  0.3154289E+03  0.7818608E-02  0.1077772E+00
         -2   -1    0    0    0  501 -0.00000000000E+00  0.00000000000E+00  0.43007553373E+02  0.43007553449E+02  0.25500000000E-02 0. -1.
          2   -1    0    0  501    0  0.00000000000E+00 -0.00000000000E+00 -0.57836002836E+03  0.57836002836E+03  0.25500000000E-02 0.  1.
    5000001    1    1    2    0    0  0.68525706672E+01  0.11564406960E+03 -0.41409183395E+03  0.43683126662E+03  0.77000000000E+02 0.  0.
   -5000001    1    1    2    0    0 -0.68525706672E+01 -0.11564406960E+03 -0.12126064104E+03  0.18453631519E+03  0.77000000000E+02 0.  0.
<mgrwt>
<rscale>  0 0.31542891E+03</rscale>
<asrwt>0</asrwt>
<pdfrwt beam="1">  1        2 0.82622857E-01 0.31542891E+03</pdfrwt>
<pdfrwt beam="2">  1       -2 0.61439365E-02 0.31542891E+03</pdfrwt>
<totfact> 0.81964070E+03</totfact>
</mgrwt>
</event>
<event>
 4    1  0.6853809E-004  0.1559796E+03  0.7818608E-02  0.1193312E+00
          2   -1    0    0  501    0  0.00000000000E+00  0.00000000000E+00  0.88234073660E+03  0.88234073660E+03  0.25500000000E-02 0.  1.
         -2   -1    0    0    0  501 -0.00000000000E+00 -0.00000000000E+00 -0.68934939769E+01  0.68934944485E+01  0.25500000000E-02 0. -1.
    5000001    1    1    2    0    0 -0.91891910189E+01 -0.74727683302E+01  0.45837910909E+03  0.46495235364E+03  0.77000000000E+02 0.  0.
   -5000001    1    1    2    0    0  0.91891910189E+01  0.74727683302E+01  0.41706813353E+03  0.42428187741E+03  0.77000000000E+02 0.  0.
<mgrwt>
<rscale>  0 0.15597962E+03</rscale>
<asrwt>0</asrwt>
<pdfrwt beam="1">  1        2 0.12604854E+00 0.15597962E+03</pdfrwt>
<pdfrwt beam="2">  1       -2 0.98478597E-03 0.15597962E+03</pdfrwt>
<totfact> 0.70828301E+04</totfact>
</mgrwt>
</event>
<event>
 4    1  0.6853809E-004  0.4009045E+03  0.7818608E-02  0.1043467E+00
          2   -1    0    0  501    0  0.00000000000E+00  0.00000000000E+00  0.88808829494E+03  0.88808829494E+03  0.25500000000E-02 0.  1.
         -2   -1    0    0    0  501 -0.00000000000E+00 -0.00000000000E+00 -0.45244497338E+02  0.45244497410E+02  0.25500000000E-02 0. -1.
    5000001    1    1    2    0    0  0.10115345376E+03 -0.13843034444E+03  0.58367212263E+03  0.61318604698E+03  0.77000000000E+02 0.  0.
   -5000001    1    1    2    0    0 -0.10115345376E+03  0.13843034444E+03  0.25917167497E+03  0.32014674537E+03  0.77000000000E+02 0.  0.
<mgrwt>
<rscale>  0 0.40090452E+03</rscale>
<asrwt>0</asrwt>
<pdfrwt beam="1">  1        2 0.12686975E+00 0.40090452E+03</pdfrwt>
<pdfrwt beam="2">  1       -2 0.64635000E-02 0.40090452E+03</pdfrwt>
<totfact> 0.45288339E+03</totfact>
</mgrwt>
</event>
<event>
 4    1  0.6853809E-004  0.2597089E+03  0.7818608E-02  0.1107318E+00
          2   -1    0    0  501    0  0.00000000000E+00  0.00000000000E+00  0.87796433022E+03  0.87796433023E+03  0.25500000000E-02 0.  1.
         -2   -1    0    0    0  501 -0.00000000000E+00 -0.00000000000E+00 -0.19205994871E+02  0.19205995040E+02  0.25500000000E-02 0. -1.
    5000001    1    1    2    0    0  0.90736849174E+02  0.51099540034E+02  0.46193971020E+03  0.47975163850E+03  0.77000000000E+02 0.  0.
   -5000001    1    1    2    0    0 -0.90736849174E+02 -0.51099540034E+02  0.39681862516E+03  0.41741868676E+03  0.77000000000E+02 0.  0.
<mgrwt>
<rscale>  0 0.25970890E+03</rscale>
<asrwt>0</asrwt>
<pdfrwt beam="1">  1        2 0.12542345E+00 0.25970890E+03</pdfrwt>
<pdfrwt beam="2">  1       -2 0.27437141E-02 0.25970890E+03</pdfrwt>
<totfact> 0.16641919E+04</totfact>
</mgrwt>
</event>
<event>
 4    1  0.6853809E-004  0.3203161E+03  0.7818608E-02  0.1075504E+00
          2   -1    0    0  501    0  0.00000000000E+00  0.00000000000E+00  0.11413269302E+04  0.11413269302E+04  0.25500000000E-02 0.  1.
         -2   -1    0    0    0  501 -0.00000000000E+00 -0.00000000000E+00 -0.22474362169E+02  0.22474362313E+02  0.25500000000E-02 0. -1.
    5000001    1    1    2    0    0  0.10043010149E+03 -0.95925041657E+02  0.63509787443E+03  0.65464962308E+03  0.77000000000E+02 0.  0.
   -5000001    1    1    2    0    0 -0.10043010149E+03  0.95925041657E+02  0.48375469361E+03  0.50915166943E+03  0.77000000000E+02 0.  0.
<mgrwt>
<rscale>  0 0.32031606E+03</rscale>
<asrwt>0</asrwt>
<pdfrwt beam="1">  1        2 0.16304669E+00 0.32031606E+03</pdfrwt>
<pdfrwt beam="2">  1       -2 0.32106235E-02 0.32031606E+03</pdfrwt>
<totfact> 0.92688158E+03</totfact>
</mgrwt>
</event>
<event>
 4    1  0.6853809E-004  0.3656519E+03  0.7818608E-02  0.1056368E+00
          2   -1    0    0  501    0  0.00000000000E+00  0.00000000000E+00  0.15256783886E+03  0.15256783888E+03  0.25500000000E-02 0.  1.
         -2   -1    0    0    0  501 -0.00000000000E+00 -0.00000000000E+00 -0.21908503949E+03  0.21908503950E+03  0.25500000000E-02 0. -1.
    5000001    1    1    2    0    0 -0.51306750801E+02  0.15746060488E+03 -0.24748239386E+02  0.18430328299E+03  0.77000000000E+02 0.  0.
   -5000001    1    1    2    0    0  0.51306750801E+02 -0.15746060488E+03 -0.41768961246E+02  0.18734959539E+03  0.77000000000E+02 0.  0.
<mgrwt>
<rscale>  0 0.36565192E+03</rscale>
<asrwt>0</asrwt>
<pdfrwt beam="1">  1        2 0.21795406E-01 0.36565192E+03</pdfrwt>
<pdfrwt beam="2">  1       -2 0.31297863E-01 0.36565192E+03</pdfrwt>
<totfact> 0.23931258E+03</totfact>
</mgrwt>
</event>
<event>
 4    1  0.6853809E-004  0.3733836E+03  0.7818608E-02  0.1053407E+00
         -2   -1    0    0    0  501 -0.00000000000E+00  0.00000000000E+00  0.43818786951E+02  0.43818787025E+02  0.25500000000E-02 0.  1.
          2   -1    0    0  501    0  0.00000000000E+00 -0.00000000000E+00 -0.79540819029E+03  0.79540819030E+03  0.25500000000E-02 0. -1.
    5000001    1    1    2    0    0 -0.11090958293E+03 -0.12374510884E+03 -0.29441215087E+03  0.34672943649E+03  0.77000000000E+02 0.  0.
   -5000001    1    1    2    0    0  0.11090958293E+03  0.12374510884E+03 -0.45717725247E+03  0.49249754083E+03  0.77000000000E+02 0.  0.
<mgrwt>
<rscale>  0 0.37338357E+03</rscale>
<asrwt>0</asrwt>
<pdfrwt beam="1">  1        2 0.11362973E+00 0.37338357E+03</pdfrwt>
<pdfrwt beam="2">  1       -2 0.62598272E-02 0.37338357E+03</pdfrwt>
<totfact> 0.54741997E+03</totfact>
</mgrwt>
</event>
<event>
 4    1  0.6853809E-004  0.1955032E+03  0.7818608E-02  0.1153589E+00
          2   -1    0    0  501    0  0.00000000000E+00  0.00000000000E+00  0.29521439373E+02  0.29521439483E+02  0.25500000000E-02 0.  1.
         -2   -1    0    0    0  501 -0.00000000000E+00 -0.00000000000E+00 -0.32367573486E+03  0.32367573487E+03  0.25500000000E-02 0. -1.
    5000001    1    1    2    0    0 -0.32634767161E+02 -0.38876900045E+02 -0.88538320131E+02  0.12784551426E+03  0.77000000000E+02 0.  0.
   -5000001    1    1    2    0    0  0.32634767161E+02  0.38876900045E+02 -0.20561597535E+03  0.22535166009E+03  0.77000000000E+02 0.  0.
<mgrwt>
<rscale>  0 0.19550318E+03</rscale>
<asrwt>0</asrwt>
<pdfrwt beam="1">  1        2 0.42173487E-02 0.19550318E+03</pdfrwt>
<pdfrwt beam="2">  1       -2 0.46239389E-01 0.19550318E+03</pdfrwt>
<totfact> 0.85925134E+03</totfact>
</mgrwt>
</event>
<event>
 4    1  0.6853809E-004  0.2254547E+03  0.7818608E-02  0.1129880E+00
          2   -1    0    0  501    0  0.00000000000E+00  0.00000000000E+00  0.11760424024E+04  0.11760424024E+04  0.25500000000E-02 0.  1.
         -2   -1    0    0    0  501 -0.00000000000E+00 -0.00000000000E+00 -0.10805272794E+02  0.10805273095E+02  0.25500000000E-02 0. -1.
    5000001    1    1    2    0    0 -0.65503338582E+02 -0.12657805875E+01  0.84510145631E+03  0.85112734712E+03  0.77000000000E+02 0.  0.
   -5000001    1    1    2    0    0  0.65503338582E+02  0.12657805875E+01  0.32013567327E+03  0.33572032835E+03  0.77000000000E+02 0.  0.
<mgrwt>
<rscale>  0 0.22545473E+03</rscale>
<asrwt>0</asrwt>
<pdfrwt beam="1">  1        2 0.16800591E+00 0.22545473E+03</pdfrwt>
<pdfrwt beam="2">  1       -2 0.15436118E-02 0.22545473E+03</pdfrwt>
<totfact> 0.25782769E+04</totfact>
</mgrwt>
</event>
<event>
 4    1  0.6853809E-004  0.2403655E+03  0.7818608E-02  0.1119550E+00
         -2   -1    0    0    0  501 -0.00000000000E+00  0.00000000000E+00  0.32457036349E+01  0.32457046366E+01  0.25500000000E-02 0. -1.
          2   -1    0    0  501    0  0.00000000000E+00 -0.00000000000E+00 -0.44501553107E+04  0.44501553107E+04  0.25500000000E-02 0.  1.
    5000001    1    1    2    0    0 -0.17840564651E+02 -0.77727083795E+02 -0.13633454027E+04  0.13678448276E+04  0.77000000000E+02 0.  0.
   -5000001    1    1    2    0    0  0.17840564651E+02  0.77727083795E+02 -0.30835642043E+04  0.30855561877E+04  0.77000000000E+02 0.  0.
<mgrwt>
<rscale>  0 0.24036545E+03</rscale>
<asrwt>0</asrwt>
<pdfrwt beam="1">  1        2 0.63573256E+00 0.24036545E+03</pdfrwt>
<pdfrwt beam="2">  1       -2 0.46367487E-03 0.24036545E+03</pdfrwt>
<totfact> 0.22954608E+03</totfact>
</mgrwt>
</event>
<event>
 4    1  0.6853809E-004  0.6129359E+03  0.7818608E-02  0.9878926E-01
         -2   -1    0    0    0  501 -0.00000000000E+00  0.00000000000E+00  0.40211303722E+03  0.40211303722E+03  0.25500000000E-02 0. -1.
          2   -1    0    0  501    0  0.00000000000E+00 -0.00000000000E+00 -0.23357262864E+03  0.23357262866E+03  0.25500000000E-02 0.  1.
    5000001    1    1    2    0    0  0.15864264597E+03 -0.16940509823E+03 -0.10732425045E+03  0.26704507327E+03  0.77000000000E+02 0.  0.
   -5000001    1    1    2    0    0 -0.15864264597E+03  0.16940509823E+03  0.27586465902E+03  0.36864059261E+03  0.77000000000E+02 0.  0.
<mgrwt>
<rscale>  0 0.61293588E+03</rscale>
<asrwt>0</asrwt>
<pdfrwt beam="1">  1        2 0.33367518E-01 0.61293588E+03</pdfrwt>
<pdfrwt beam="2">  1       -2 0.57444720E-01 0.61293588E+03</pdfrwt>
<totfact> 0.45187937E+02</totfact>
</mgrwt>
</event>
<event>
 4    1  0.6853809E-004  0.2559255E+03  0.7818608E-02  0.1109616E+00
         -2   -1    0    0    0  501 -0.00000000000E+00  0.00000000000E+00  0.19662127896E+02  0.19662128061E+02  0.25500000000E-02 0. -1.
          2   -1    0    0  501    0  0.00000000000E+00 -0.00000000000E+00 -0.83279209724E+03  0.83279209724E+03  0.25500000000E-02 0.  1.
    5000001    1    1    2    0    0  0.99024314744E+02 -0.21105847707E+02 -0.45298169855E+03  0.47050259398E+03  0.77000000000E+02 0.  0.
   -5000001    1    1    2    0    0 -0.99024314744E+02  0.21105847707E+02 -0.36014827079E+03  0.38195163132E+03  0.77000000000E+02 0.  0.
<mgrwt>
<rscale>  0 0.25592550E+03</rscale>
<asrwt>0</asrwt>
<pdfrwt beam="1">  1        2 0.11897028E+00 0.25592550E+03</pdfrwt>
<pdfrwt beam="2">  1       -2 0.28088760E-02 0.25592550E+03</pdfrwt>
<totfact> 0.17173492E+04</totfact>
</mgrwt>
</event>
<event>
 4    1  0.6853809E-004  0.1750108E+03  0.7818608E-02  0.1172721E+00
         -2   -1    0    0    0  501 -0.00000000000E+00  0.00000000000E+00  0.19950743521E+02  0.19950743684E+02  0.25500000000E-02 0. -1.
          2   -1    0    0  501    0  0.00000000000E+00 -0.00000000000E+00 -0.38380484546E+03  0.38380484547E+03  0.25500000000E-02 0.  1.
    5000001    1    1    2    0    0  0.29782279363E+02  0.14411819803E+02 -0.12386002120E+03  0.14954928809E+03  0.77000000000E+02 0.  0.
   -5000001    1    1    2    0    0 -0.29782279363E+02 -0.14411819803E+02 -0.23999408073E+03  0.25420630107E+03  0.77000000000E+02 0.  0.
<mgrwt>
<rscale>  0 0.17501077E+03</rscale>
<asrwt>0</asrwt>
<pdfrwt beam="1">  1        2 0.54829259E-01 0.17501077E+03</pdfrwt>
<pdfrwt beam="2">  1       -2 0.28501065E-02 0.17501077E+03</pdfrwt>
<totfact> 0.39378506E+04</totfact>
</mgrwt>
</event>
<event>
 4    1  0.6853809E-004  0.3722340E+03  0.7818608E-02  0.1053842E+00
         -2   -1    0    0    0  501 -0.00000000000E+00  0.00000000000E+00  0.92937383795E+01  0.92937387293E+01  0.25500000000E-02 0.  1.
          2   -1    0    0  501    0  0.00000000000E+00 -0.00000000000E+00 -0.37271907239E+04  0.37271907239E+04  0.25500000000E-02 0. -1.
    5000001    1    1    2    0    0  0.13118681798E+02 -0.57606706010E+02 -0.26483637347E+03  0.28206016575E+03  0.77000000000E+02 0.  0.
   -5000001    1    1    2    0    0 -0.13118681798E+02  0.57606706010E+02 -0.34530606121E+04  0.34544242969E+04  0.77000000000E+02 0.  0.
<mgrwt>
<rscale>  0 0.37223399E+03</rscale>
<asrwt>0</asrwt>
<pdfrwt beam="1">  1        2 0.53245486E+00 0.37223399E+03</pdfrwt>
<pdfrwt beam="2">  1       -2 0.13276793E-02 0.37223399E+03</pdfrwt>
<totfact> 0.14951581E+03</totfact>
</mgrwt>
</event>
<event>
 4    1  0.6853809E-004  0.3261570E+03  0.7818608E-02  0.1072850E+00
          2   -1    0    0  501    0  0.00000000000E+00  0.00000000000E+00  0.31907753851E+03  0.31907753852E+03  0.25500000000E-02 0.  1.
         -2   -1    0    0    0  501 -0.00000000000E+00 -0.00000000000E+00 -0.83348378931E+02  0.83348378970E+02  0.25500000000E-02 0. -1.
    5000001    1    1    2    0    0 -0.56578502791E+02  0.12829241616E+03  0.78739467516E+02  0.17829462910E+03  0.77000000000E+02 0.  0.
   -5000001    1    1    2    0    0  0.56578502791E+02 -0.12829241616E+03  0.15698969206E+03  0.22413128839E+03  0.77000000000E+02 0.  0.
<mgrwt>
<rscale>  0 0.32615699E+03</rscale>
<asrwt>0</asrwt>
<pdfrwt beam="1">  1        2 0.45582505E-01 0.32615699E+03</pdfrwt>
<pdfrwt beam="2">  1       -2 0.11906911E-01 0.32615699E+03</pdfrwt>
<totfact> 0.55543303E+03</totfact>
</mgrwt>
</event>
<event>
 4    1  0.6853809E-004  0.2017497E+03  0.7818608E-02  0.1148271E+00
          2   -1    0    0  501    0  0.00000000000E+00  0.00000000000E+00  0.11304756920E+04  0.11304756920E+04  0.25500000000E-02 0.  1.
         -2   -1    0    0    0  501 -0.00000000000E+00 -0.00000000000E+00 -0.90012821130E+01  0.90012824742E+01  0.25500000000E-02 0. -1.
    5000001    1    1    2    0    0  0.63735629328E+02  0.97961466111E+01  0.61388098618E+03  0.62204265137E+03  0.77000000000E+02 0.  0.
   -5000001    1    1    2    0    0 -0.63735629328E+02 -0.97961466111E+01  0.50759342366E+03  0.51743432306E+03  0.77000000000E+02 0.  0.
<mgrwt>
<rscale>  0 0.20174966E+03</rscale>
<asrwt>0</asrwt>
<pdfrwt beam="1">  1        2 0.16149651E+00 0.20174966E+03</pdfrwt>
<pdfrwt beam="2">  1       -2 0.12858976E-02 0.20174966E+03</pdfrwt>
<totfact> 0.35356392E+04</totfact>
</mgrwt>
</event>
<event>
 4    1  0.6853809E-004  0.5554204E+03  0.7818608E-02  0.1000247E+00
          2   -1    0    0  501    0  0.00000000000E+00  0.00000000000E+00  0.11767728784E+04  0.11767728784E+04  0.25500000000E-02 0. -1.
         -2   -1    0    0    0  501 -0.00000000000E+00 -0.00000000000E+00 -0.65537679135E+02  0.65537679185E+02  0.25500000000E-02 0.  1.
    5000001    1    1    2    0    0  0.85290276278E+02  0.13169116483E+03  0.10383360947E+04  0.10529424674E+04  0.77000000000E+02 0.  0.
   -5000001    1    1    2    0    0 -0.85290276278E+02 -0.13169116483E+03  0.72899104524E+02  0.18936809014E+03  0.77000000000E+02 0.  0.
<mgrwt>
<rscale>  0 0.55542043E+03</rscale>
<asrwt>0</asrwt>
<pdfrwt beam="1">  1        2 0.16811042E+00 0.55542043E+03</pdfrwt>
<pdfrwt beam="2">  1       -2 0.93625253E-02 0.55542043E+03</pdfrwt>
<totfact> 0.16955446E+03</totfact>
</mgrwt>
</event>
<event>
 4    1  0.6853809E-004  0.2337756E+03  0.7818608E-02  0.1124010E+00
          2   -1    0    0  501    0  0.00000000000E+00  0.00000000000E+00  0.20825279492E+04  0.20825279492E+04  0.25500000000E-02 0.  1.
         -2   -1    0    0    0  501 -0.00000000000E+00 -0.00000000000E+00 -0.65606579905E+01  0.65606584860E+01  0.25500000000E-02 0. -1.
    5000001    1    1    2    0    0  0.86612274492E+02  0.35782777399E+01  0.11703084894E+04  0.11760380310E+04  0.77000000000E+02 0.  0.
   -5000001    1    1    2    0    0 -0.86612274492E+02 -0.35782777399E+01  0.90565880183E+03  0.91305057663E+03  0.77000000000E+02 0.  0.
<mgrwt>
<rscale>  0 0.23377557E+03</rscale>
<asrwt>0</asrwt>
<pdfrwt beam="1">  1        2 0.29750412E+00 0.23377557E+03</pdfrwt>
<pdfrwt beam="2">  1       -2 0.93723649E-03 0.23377557E+03</pdfrwt>
<totfact> 0.18757285E+04</totfact>
</mgrwt>
</event>
<event>
 4    1  0.6853809E-004  0.2305449E+03  0.7818608E-02  0.1126257E+00
          2   -1    0    0  501    0  0.00000000000E+00  0.00000000000E+00  0.95955795003E+02  0.95955795037E+02  0.25500000000E-02 0.  1.
         -2   -1    0    0    0  501 -0.00000000000E+00 -0.00000000000E+00 -0.13847770724E+03  0.13847770726E+03  0.25500000000E-02 0. -1.
    5000001    1    1    2    0    0 -0.92965700185E+01 -0.81889036663E+02 -0.45463628218E+02  0.12160666935E+03  0.77000000000E+02 0.  0.
   -5000001    1    1    2    0    0  0.92965700185E+01  0.81889036663E+02  0.29417159839E+01  0.11282683295E+03  0.77000000000E+02 0.  0.
<mgrwt>
<rscale>  0 0.23054491E+03</rscale>
<asrwt>0</asrwt>
<pdfrwt beam="1">  1        2 0.13707971E-01 0.23054491E+03</pdfrwt>
<pdfrwt beam="2">  1       -2 0.19782530E-01 0.23054491E+03</pdfrwt>
<totfact> 0.91095357E+03</totfact>
</mgrwt>
</event>
<event>
 4    1  0.6853809E-004  0.2537578E+03  0.7818608E-02  0.1110953E+00
          2   -1    0    0  501    0  0.00000000000E+00  0.00000000000E+00  0.10135848665E+04  0.10135848665E+04  0.25500000000E-02 0.  1.
         -2   -1    0    0    0  501 -0.00000000000E+00 -0.00000000000E+00 -0.15882496492E+02  0.15882496697E+02  0.25500000000E-02 0. -1.
    5000001    1    1    2    0    0  0.88012660740E+02 -0.27101040762E+02  0.33214495888E+03  0.35317130202E+03  0.77000000000E+02 0.  0.
   -5000001    1    1    2    0    0 -0.88012660740E+02  0.27101040762E+02  0.66555741117E+03  0.67629606122E+03  0.77000000000E+02 0.  0.
<mgrwt>
<rscale>  0 0.25375782E+03</rscale>
<asrwt>0</asrwt>
<pdfrwt beam="1">  1        2 0.14479786E+00 0.25375782E+03</pdfrwt>
<pdfrwt beam="2">  1       -2 0.22689278E-02 0.25375782E+03</pdfrwt>
<totfact> 0.18209678E+04</totfact>
</mgrwt>
</event>
<event>
 4    1  0.6853809E-004  0.2418908E+03  0.7818608E-02  0.1118540E+00
         -2   -1    0    0    0  501 -0.00000000000E+00  0.00000000000E+00  0.13376696537E+02  0.13376696780E+02  0.25500000000E-02 0.  1.
          2   -1    0    0  501    0  0.00000000000E+00 -0.00000000000E+00 -0.10935282065E+04  0.10935282065E+04  0.25500000000E-02 0. -1.
    5000001    1    1    2    0    0  0.66361336496E+02  0.51085691527E+02 -0.35222228756E+03  0.37013931798E+03  0.77000000000E+02 0.  0.
   -5000001    1    1    2    0    0 -0.66361336496E+02 -0.51085691527E+02 -0.72792922242E+03  0.73676558532E+03  0.77000000000E+02 0.  0.
<mgrwt>
<rscale>  0 0.24189084E+03</rscale>
<asrwt>0</asrwt>
<pdfrwt beam="1">  1        2 0.15621826E+00 0.24189084E+03</pdfrwt>
<pdfrwt beam="2">  1       -2 0.19109574E-02 0.24189084E+03</pdfrwt>
<totfact> 0.21041599E+04</totfact>
</mgrwt>
</event>
<event>
 4    1  0.6853809E-004  0.5635269E+03  0.7818608E-02  0.9984106E-01
          2   -1    0    0  501    0  0.00000000000E+00  0.00000000000E+00  0.83299038967E+03  0.83299038967E+03  0.25500000000E-02 0.  1.
         -2   -1    0    0    0  501 -0.00000000000E+00 -0.00000000000E+00 -0.95307980518E+02  0.95307980552E+02  0.25500000000E-02 0. -1.
    5000001    1    1    2    0    0 -0.14645084009E+03 -0.19708035014E+03  0.17977353614E+03  0.31390450343E+03  0.77000000000E+02 0.  0.
   -5000001    1    1    2    0    0  0.14645084009E+03  0.19708035014E+03  0.55790887301E+03  0.61439386680E+03  0.77000000000E+02 0.  0.
<mgrwt>
<rscale>  0 0.56352686E+03</rscale>
<asrwt>0</asrwt>
<pdfrwt beam="1">  1        2 0.11899862E+00 0.56352686E+03</pdfrwt>
<pdfrwt beam="2">  1       -2 0.13615427E-01 0.56352686E+03</pdfrwt>
<totfact> 0.14897918E+03</totfact>
</mgrwt>
</event>
<event>
 4    1  0.6853809E-004  0.2259627E+03  0.7818608E-02  0.1129514E+00
          2   -1    0    0  501    0  0.00000000000E+00  0.00000000000E+00  0.44079299421E+03  0.44079299422E+03  0.25500000000E-02 0.  1.
         -2   -1    0    0    0  501 -0.00000000000E+00 -0.00000000000E+00 -0.28958678794E+02  0.28958678906E+02  0.25500000000E-02 0. -1.
    5000001    1    1    2    0    0  0.64809753554E+02  0.33594277827E+02  0.28661729797E+03  0.30562616896E+03  0.77000000000E+02 0.  0.
   -5000001    1    1    2    0    0 -0.64809753554E+02 -0.33594277827E+02  0.12521701745E+03  0.16412550416E+03  0.77000000000E+02 0.  0.
<mgrwt>
<rscale>  0 0.22596268E+03</rscale>
<asrwt>0</asrwt>
<pdfrwt beam="1">  1        2 0.62970424E-01 0.22596268E+03</pdfrwt>
<pdfrwt beam="2">  1       -2 0.41369544E-02 0.22596268E+03</pdfrwt>
<totfact> 0.19894241E+04</totfact>
</mgrwt>
</event>
<event>
 4    1  0.6853809E-004  0.2437405E+03  0.7818608E-02  0.1117326E+00
          2   -1    0    0  501    0  0.00000000000E+00  0.00000000000E+00  0.23445054150E+03  0.23445054151E+03  0.25500000000E-02 0.  1.
         -2   -1    0    0    0  501 -0.00000000000E+00 -0.00000000000E+00 -0.63349615844E+02  0.63349615895E+02  0.25500000000E-02 0. -1.
    5000001    1    1    2    0    0 -0.60498042369E+02  0.71661160045E+02  0.99374367394E+02  0.15684259589E+03  0.77000000000E+02 0.  0.
   -5000001    1    1    2    0    0  0.60498042369E+02 -0.71661160045E+02  0.71726558259E+02  0.14095756152E+03  0.77000000000E+02 0.  0.
<mgrwt>
<rscale>  0 0.24374045E+03</rscale>
<asrwt>0</asrwt>
<pdfrwt beam="1">  1        2 0.33492934E-01 0.24374045E+03</pdfrwt>
<pdfrwt beam="2">  1       -2 0.90499451E-02 0.24374045E+03</pdfrwt>
<totfact> 0.11869559E+04</totfact>
</mgrwt>
</event>
<event>
 4    1  0.6853809E-004  0.2729019E+03  0.7818608E-02  0.1099630E+00
          2   -1    0    0  501    0  0.00000000000E+00  0.00000000000E+00  0.65816498227E+03  0.65816498227E+03  0.25500000000E-02 0.  1.
         -2   -1    0    0    0  501 -0.00000000000E+00 -0.00000000000E+00 -0.28289039422E+02  0.28289039537E+02  0.25500000000E-02 0. -1.
    5000001    1    1    2    0    0 -0.77677608360E+02  0.57575372671E+02  0.46033350306E+03  0.47663892877E+03  0.77000000000E+02 0.  0.
   -5000001    1    1    2    0    0  0.77677608360E+02 -0.57575372671E+02  0.16954243978E+03  0.20981509304E+03  0.77000000000E+02 0.  0.
<mgrwt>
<rscale>  0 0.27290185E+03</rscale>
<asrwt>0</asrwt>
<pdfrwt beam="1">  1        2 0.94023564E-01 0.27290185E+03</pdfrwt>
<pdfrwt beam="2">  1       -2 0.40412916E-02 0.27290185E+03</pdfrwt>
<totfact> 0.13290890E+04</totfact>
</mgrwt>
</event>
<event>
 4    1  0.6853809E-004  0.2977018E+03  0.7818608E-02  0.1086395E+00
          2   -1    0    0  501    0  0.00000000000E+00  0.00000000000E+00  0.72572303889E+03  0.72572303889E+03  0.25500000000E-02 0.  1.
         -2   -1    0    0    0  501 -0.00000000000E+00 -0.00000000000E+00 -0.30530356966E+02  0.30530357073E+02  0.25500000000E-02 0. -1.
    5000001    1    1    2    0    0  0.11729878677E+03  0.48189584955E+02  0.31686578334E+03  0.34987735869E+03  0.77000000000E+02 0.  0.
   -5000001    1    1    2    0    0 -0.11729878677E+03 -0.48189584955E+02  0.37832689858E+03  0.40637603727E+03  0.77000000000E+02 0.  0.
<mgrwt>
<rscale>  0 0.29770175E+03</rscale>
<asrwt>0</asrwt>
<pdfrwt beam="1">  1        2 0.10367471E+00 0.29770175E+03</pdfrwt>
<pdfrwt beam="2">  1       -2 0.43614799E-02 0.29770175E+03</pdfrwt>
<totfact> 0.10587457E+04</totfact>
</mgrwt>
</event>
<event>
 4    1  0.6853809E-004  0.2117404E+03  0.7818608E-02  0.1140195E+00
          2   -1    0    0  501    0  0.00000000000E+00  0.00000000000E+00  0.16017593079E+04  0.16017593079E+04  0.25500000000E-02 0.  1.
         -2   -1    0    0    0  501 -0.00000000000E+00 -0.00000000000E+00 -0.69976193743E+01  0.69976198389E+01  0.25500000000E-02 0. -1.
    5000001    1    1    2    0    0  0.71932809138E+02  0.39250342941E+01  0.86936650645E+03  0.87573789312E+03  0.77000000000E+02 0.  0.
   -5000001    1    1    2    0    0 -0.71932809138E+02 -0.39250342941E+01  0.72539518205E+03  0.73301903459E+03  0.77000000000E+02 0.  0.
<mgrwt>
<rscale>  0 0.21174043E+03</rscale>
<asrwt>0</asrwt>
<pdfrwt beam="1">  1        2 0.22882273E+00 0.21174043E+03</pdfrwt>
<pdfrwt beam="2">  1       -2 0.99966007E-03 0.21174043E+03</pdfrwt>
<totfact> 0.29156381E+04</totfact>
</mgrwt>
</event>
<event>
 4    1  0.6853809E-004  0.3413312E+03  0.7818608E-02  0.1066230E+00
         -2   -1    0    0    0  501 -0.00000000000E+00  0.00000000000E+00  0.45309735023E+02  0.45309735094E+02  0.25500000000E-02 0. -1.
          2   -1    0    0  501    0  0.00000000000E+00 -0.00000000000E+00 -0.64283643002E+03  0.64283643002E+03  0.25500000000E-02 0.  1.
    5000001    1    1    2    0    0 -0.29685457230E+02  0.15709888681E+02  0.74099368406E+00  0.84009380696E+02  0.77000000000E+02 0.  0.
   -5000001    1    1    2    0    0  0.29685457230E+02 -0.15709888681E+02 -0.59826768868E+03  0.60413678442E+03  0.77000000000E+02 0.  0.
<mgrwt>
<rscale>  0 0.34133121E+03</rscale>
<asrwt>0</asrwt>
<pdfrwt beam="1">  1        2 0.91833770E-01 0.34133121E+03</pdfrwt>
<pdfrwt beam="2">  1       -2 0.64728197E-02 0.34133121E+03</pdfrwt>
<totfact> 0.67090431E+03</totfact>
</mgrwt>
</event>
<event>
 4    1  0.6853809E-004  0.4661301E+03  0.7818608E-02  0.1023018E+00
         -2   -1    0    0    0  501 -0.00000000000E+00  0.00000000000E+00  0.80297298185E+02  0.80297298225E+02  0.25500000000E-02 0. -1.
          2   -1    0    0  501    0  0.00000000000E+00 -0.00000000000E+00 -0.67647754883E+03  0.67647754884E+03  0.25500000000E-02 0.  1.
    5000001    1    1    2    0    0  0.14376317293E+03  0.76189290449E+02 -0.53844705176E+03  0.56773839523E+03  0.77000000000E+02 0.  0.
   -5000001    1    1    2    0    0 -0.14376317293E+03 -0.76189290449E+02 -0.57733198891E+02  0.18903645184E+03  0.77000000000E+02 0.  0.
<mgrwt>
<rscale>  0 0.46613011E+03</rscale>
<asrwt>0</asrwt>
<pdfrwt beam="1">  1        2 0.96639647E-01 0.46613011E+03</pdfrwt>
<pdfrwt beam="2">  1       -2 0.11471043E-01 0.46613011E+03</pdfrwt>
<totfact> 0.25593838E+03</totfact>
</mgrwt>
</event>
<event>
 4    1  0.6853809E-004  0.2784706E+03  0.7818608E-02  0.1096527E+00
          2   -1    0    0  501    0  0.00000000000E+00  0.00000000000E+00  0.92739299238E+02  0.92739299274E+02  0.25500000000E-02 0.  1.
         -2   -1    0    0    0  501 -0.00000000000E+00 -0.00000000000E+00 -0.20904271703E+03  0.20904271705E+03  0.25500000000E-02 0. -1.
    5000001    1    1    2    0    0  0.59665067074E+02 -0.83334836636E+02  0.73745025467E+00  0.12819578409E+03  0.77000000000E+02 0.  0.
   -5000001    1    1    2    0    0 -0.59665067074E+02  0.83334836636E+02 -0.11704086805E+03  0.17358623223E+03  0.77000000000E+02 0.  0.
<mgrwt>
<rscale>  0 0.27847065E+03</rscale>
<asrwt>0</asrwt>
<pdfrwt beam="1">  1        2 0.13248471E-01 0.27847065E+03</pdfrwt>
<pdfrwt beam="2">  1       -2 0.29863245E-01 0.27847065E+03</pdfrwt>
<totfact> 0.46427317E+03</totfact>
</mgrwt>
</event>
<event>
 4    1  0.6853809E-004  0.3427754E+03  0.7818608E-02  0.1065620E+00
         -2   -1    0    0    0  501 -0.00000000000E+00  0.00000000000E+00  0.17620182060E+02  0.17620182244E+02  0.25500000000E-02 0. -1.
          2   -1    0    0  501    0  0.00000000000E+00 -0.00000000000E+00 -0.16670510161E+04  0.16670510162E+04  0.25500000000E-02 0.  1.
    5000001    1    1    2    0    0  0.75500366676E+02  0.10475708118E+03 -0.12291165774E+04  0.12382773971E+04  0.77000000000E+02 0.  0.
   -5000001    1    1    2    0    0 -0.75500366676E+02 -0.10475708118E+03 -0.42031425674E+03  0.44639380131E+03  0.77000000000E+02 0.  0.
<mgrwt>
<rscale>  0 0.34277539E+03</rscale>
<asrwt>0</asrwt>
<pdfrwt beam="1">  1        2 0.23815005E+00 0.34277539E+03</pdfrwt>
<pdfrwt beam="2">  1       -2 0.25171699E-02 0.34277539E+03</pdfrwt>
<totfact> 0.70996605E+03</totfact>
</mgrwt>
</event>
<event>
 4    1  0.6853809E-004  0.2055731E+03  0.7818608E-02  0.1145120E+00
          2   -1    0    0  501    0  0.00000000000E+00  0.00000000000E+00  0.14296885934E+04  0.14296885934E+04  0.25500000000E-02 0.  1.
         -2   -1    0    0    0  501 -0.00000000000E+00 -0.00000000000E+00 -0.73897761238E+01  0.73897765637E+01  0.25500000000E-02 0. -1.
    5000001    1    1    2    0    0 -0.18082687255E+02  0.31974641620E+02  0.31037933615E+03  0.32189081005E+03  0.77000000000E+02 0.  0.
   -5000001    1    1    2    0    0  0.18082687255E+02 -0.31974641620E+02  0.11119194811E+04  0.11151875599E+04  0.77000000000E+02 0.  0.
<mgrwt>
<rscale>  0 0.20557314E+03</rscale>
<asrwt>0</asrwt>
<pdfrwt beam="1">  1        2 0.20424107E+00 0.20557314E+03</pdfrwt>
<pdfrwt beam="2">  1       -2 0.10556832E-02 0.20557314E+03</pdfrwt>
<totfact> 0.32785039E+04</totfact>
</mgrwt>
</event>
<event>
 4    1  0.6853809E-004  0.1636257E+03  0.7818608E-02  0.1184663E+00
         -2   -1    0    0    0  501 -0.00000000000E+00  0.00000000000E+00  0.56826018503E+01  0.56826024225E+01  0.25500000000E-02 0. -1.
          2   -1    0    0  501    0  0.00000000000E+00 -0.00000000000E+00 -0.11778662062E+04  0.11778662062E+04  0.25500000000E-02 0.  1.
    5000001    1    1    2    0    0  0.12702769177E+02 -0.21652324320E+02 -0.50231021725E+03  0.50879734458E+03  0.77000000000E+02 0.  0.
   -5000001    1    1    2    0    0 -0.12702769177E+02  0.21652324320E+02 -0.66987338711E+03  0.67475146406E+03  0.77000000000E+02 0.  0.
<mgrwt>
<rscale>  0 0.16362573E+03</rscale>
<asrwt>0</asrwt>
<pdfrwt beam="1">  1        2 0.16826644E+00 0.16362573E+03</pdfrwt>
<pdfrwt beam="2">  1       -2 0.81180106E-03 0.16362573E+03</pdfrwt>
<totfact> 0.63529021E+04</totfact>
</mgrwt>
</event>
<event>
 4    1  0.6853809E-004  0.2665714E+03  0.7818608E-02  0.1103258E+00
         -2   -1    0    0    0  501 -0.00000000000E+00  0.00000000000E+00  0.21712106269E+02  0.21712106419E+02  0.25500000000E-02 0. -1.
          2   -1    0    0  501    0  0.00000000000E+00 -0.00000000000E+00 -0.81821074823E+03  0.81821074824E+03  0.25500000000E-02 0.  1.
    5000001    1    1    2    0    0  0.50740446774E+02 -0.93245220999E+02 -0.32323462572E+03  0.34882500977E+03  0.77000000000E+02 0.  0.
   -5000001    1    1    2    0    0 -0.50740446774E+02  0.93245220999E+02 -0.47326401624E+03  0.49109784488E+03  0.77000000000E+02 0.  0.
<mgrwt>
<rscale>  0 0.26657141E+03</rscale>
<asrwt>0</asrwt>
<pdfrwt beam="1">  1        2 0.11688723E+00 0.26657141E+03</pdfrwt>
<pdfrwt beam="2">  1       -2 0.31017300E-02 0.26657141E+03</pdfrwt>
<totfact> 0.15179489E+04</totfact>
</mgrwt>
</event>
<event>
 4    1  0.6853809E-004  0.2972917E+03  0.7818608E-02  0.1086602E+00
          2   -1    0    0  501    0  0.00000000000E+00  0.00000000000E+00  0.23502247892E+02  0.23502248030E+02  0.25500000000E-02 0.  1.
         -2   -1    0    0    0  501 -0.00000000000E+00 -0.00000000000E+00 -0.94014764346E+03  0.94014764346E+03  0.25500000000E-02 0. -1.
    5000001    1    1    2    0    0  0.12155226748E+03  0.37304458071E+02 -0.45805702067E+03  0.48157222772E+03  0.77000000000E+02 0.  0.
   -5000001    1    1    2    0    0 -0.12155226748E+03 -0.37304458071E+02 -0.45858837489E+03  0.48207766377E+03  0.77000000000E+02 0.  0.
<mgrwt>
<rscale>  0 0.29729166E+03</rscale>
<asrwt>0</asrwt>
<pdfrwt beam="1">  1        2 0.33574646E-02 0.29729166E+03</pdfrwt>
<pdfrwt beam="2">  1       -2 0.13430678E+00 0.29729166E+03</pdfrwt>
<totfact> 0.11329365E+03</totfact>
</mgrwt>
</event>
<event>
 4    1  0.6853809E-004  0.1978731E+03  0.7818608E-02  0.1151546E+00
          2   -1    0    0  501    0  0.00000000000E+00  0.00000000000E+00  0.44353527803E+01  0.44353535133E+01  0.25500000000E-02 0.  1.
         -2   -1    0    0    0  501 -0.00000000000E+00 -0.00000000000E+00 -0.22069135999E+04  0.22069135999E+04  0.25500000000E-02 0. -1.
    5000001    1    1    2    0    0 -0.17536943800E+02  0.52782993195E+02 -0.79196537393E+03  0.79764136194E+03  0.77000000000E+02 0.  0.
   -5000001    1    1    2    0    0  0.17536943800E+02 -0.52782993195E+02 -0.14105128732E+04  0.14137075915E+04  0.77000000000E+02 0.  0.
<mgrwt>
<rscale>  0 0.19787310E+03</rscale>
<asrwt>0</asrwt>
<pdfrwt beam="1">  1        2 0.63362329E-03 0.19787310E+03</pdfrwt>
<pdfrwt beam="2">  1       -2 0.31527267E+00 0.19787310E+03</pdfrwt>
<totfact> 0.81161194E+02</totfact>
</mgrwt>
</event>
<event>
 4    1  0.6853809E-004  0.4801669E+03  0.7818608E-02  0.1019089E+00
         -2   -1    0    0    0  501 -0.00000000000E+00  0.00000000000E+00  0.86530619570E+02  0.86530619607E+02  0.25500000000E-02 0. -1.
          2   -1    0    0  501    0  0.00000000000E+00 -0.00000000000E+00 -0.66612340404E+03  0.66612340404E+03  0.25500000000E-02 0.  1.
    5000001    1    1    2    0    0 -0.21534603327E+03  0.64076262556E+02 -0.23479155982E+03  0.33396969628E+03  0.77000000000E+02 0.  0.
   -5000001    1    1    2    0    0  0.21534603327E+03 -0.64076262556E+02 -0.34480122465E+03  0.41868432738E+03  0.77000000000E+02 0.  0.
<mgrwt>
<rscale>  0 0.48016693E+03</rscale>
<asrwt>0</asrwt>
<pdfrwt beam="1">  1        2 0.95160483E-01 0.48016693E+03</pdfrwt>
<pdfrwt beam="2">  1       -2 0.12361517E-01 0.48016693E+03</pdfrwt>
<totfact> 0.23074656E+03</totfact>
</mgrwt>
</event>
<event>
 4    1  0.6853809E-004  0.2539502E+03  0.7818608E-02  0.1110834E+00
          2   -1    0    0  501    0  0.00000000000E+00  0.00000000000E+00  0.25480321256E+03  0.25480321258E+03  0.25500000000E-02 0.  1.
         -2   -1    0    0    0  501 -0.00000000000E+00 -0.00000000000E+00 -0.63275009376E+02  0.63275009427E+02  0.25500000000E-02 0. -1.
    5000001    1    1    2    0    0  0.18939173364E+02  0.98496189216E+02  0.11023515490E+03  0.16775273755E+03  0.77000000000E+02 0.  0.
   -5000001    1    1    2    0    0 -0.18939173364E+02 -0.98496189216E+02  0.81293048285E+02  0.15032548446E+03  0.77000000000E+02 0.  0.
<mgrwt>
<rscale>  0 0.25395020E+03</rscale>
<asrwt>0</asrwt>
<pdfrwt beam="1">  1        2 0.36400460E-01 0.25395020E+03</pdfrwt>
<pdfrwt beam="2">  1       -2 0.90392868E-02 0.25395020E+03</pdfrwt>
<totfact> 0.10888391E+04</totfact>
</mgrwt>
</event>
<event>
 4    1  0.6853809E-004  0.2730980E+03  0.7818608E-02  0.1099520E+00
         -2   -1    0    0    0  501 -0.00000000000E+00  0.00000000000E+00  0.89477464675E+01  0.89477468309E+01  0.25500000000E-02 0. -1.
          2   -1    0    0  501    0  0.00000000000E+00 -0.00000000000E+00 -0.20838350810E+04  0.20838350810E+04  0.25500000000E-02 0.  1.
    5000001    1    1    2    0    0 -0.96291669503E+02  0.47320112891E+02 -0.77139432987E+03  0.78261707805E+03  0.77000000000E+02 0.  0.
   -5000001    1    1    2    0    0  0.96291669503E+02 -0.47320112891E+02 -0.13034930047E+04  0.13101657498E+04  0.77000000000E+02 0.  0.
<mgrwt>
<rscale>  0 0.27309799E+03</rscale>
<asrwt>0</asrwt>
<pdfrwt beam="1">  1        2 0.29769042E+00 0.27309799E+03</pdfrwt>
<pdfrwt beam="2">  1       -2 0.12782509E-02 0.27309799E+03</pdfrwt>
<totfact> 0.11983343E+04</totfact>
</mgrwt>
</event>
<event>
 4    1  0.6853809E-004  0.2160991E+03  0.7818608E-02  0.1136825E+00
         -2   -1    0    0    0  501 -0.00000000000E+00  0.00000000000E+00  0.23427699211E+03  0.23427699213E+03  0.25500000000E-02 0. -1.
          2   -1    0    0  501    0  0.00000000000E+00 -0.00000000000E+00 -0.49832927272E+02  0.49832927337E+02  0.25500000000E-02 0.  1.
    5000001    1    1    2    0    0 -0.55087831643E+02  0.23967772511E+02  0.31451440004E+02  0.10260271143E+03  0.77000000000E+02 0.  0.
   -5000001    1    1    2    0    0  0.55087831643E+02 -0.23967772511E+02  0.15299262484E+03  0.18150720803E+03  0.77000000000E+02 0.  0.
<mgrwt>
<rscale>  0 0.21609913E+03</rscale>
<asrwt>0</asrwt>
<pdfrwt beam="1">  1        2 0.71189898E-02 0.21609913E+03</pdfrwt>
<pdfrwt beam="2">  1       -2 0.33468141E-01 0.21609913E+03</pdfrwt>
<totfact> 0.80609738E+03</totfact>
</mgrwt>
</event>
<event>
 4    1  0.6853809E-004  0.2207995E+03  0.7818608E-02  0.1133288E+00
         -2   -1    0    0    0  501 -0.00000000000E+00  0.00000000000E+00  0.40907950778E+01  0.40907958726E+01  0.25500000000E-02 0. -1.
          2   -1    0    0  501    0  0.00000000000E+00 -0.00000000000E+00 -0.29793965814E+04  0.29793965814E+04  0.25500000000E-02 0.  1.
    5000001    1    1    2    0    0 -0.46177982098E+02 -0.23696056169E+02 -0.22944562333E+04  0.22963345391E+04  0.77000000000E+02 0.  0.
   -5000001    1    1    2    0    0  0.46177982098E+02  0.23696056169E+02 -0.68084955311E+03  0.68715283822E+03  0.77000000000E+02 0.  0.
<mgrwt>
<rscale>  0 0.22079948E+03</rscale>
<asrwt>0</asrwt>
<pdfrwt beam="1">  1        2 0.42562669E+00 0.22079948E+03</pdfrwt>
<pdfrwt beam="2">  1       -2 0.58440126E-03 0.22079948E+03</pdfrwt>
<totfact> 0.13179550E+04</totfact>
</mgrwt>
</event>
<event>
 4    1  0.6853809E-004  0.1983850E+03  0.7818608E-02  0.1151109E+00
          2   -1    0    0  501    0  0.00000000000E+00  0.00000000000E+00  0.11682241634E+04  0.11682241634E+04  0.25500000000E-02 0.  1.
         -2   -1    0    0    0  501 -0.00000000000E+00 -0.00000000000E+00 -0.84223154356E+01  0.84223158216E+01  0.25500000000E-02 0. -1.
    5000001    1    1    2    0    0 -0.37470034123E+02  0.48218254558E+02  0.65972892390E+03  0.66700843815E+03  0.77000000000E+02 0.  0.
   -5000001    1    1    2    0    0  0.37470034123E+02 -0.48218254558E+02  0.50007292403E+03  0.50963804105E+03  0.77000000000E+02 0.  0.
<mgrwt>
<rscale>  0 0.19838501E+03</rscale>
<asrwt>0</asrwt>
<pdfrwt beam="1">  1        2 0.16688904E+00 0.19838501E+03</pdfrwt>
<pdfrwt beam="2">  1       -2 0.12031889E-02 0.19838501E+03</pdfrwt>
<totfact> 0.37077996E+04</totfact>
</mgrwt>
</event>
<event>
 4    1  0.6853809E-004  0.4809475E+03  0.7818608E-02  0.1018875E+00
         -2   -1    0    0    0  501 -0.00000000000E+00  0.00000000000E+00  0.11417148796E+03  0.11417148799E+03  0.25500000000E-02 0. -1.
          2   -1    0    0  501    0  0.00000000000E+00 -0.00000000000E+00 -0.50649802023E+03  0.50649802024E+03  0.25500000000E-02 0.  1.
    5000001    1    1    2    0    0  0.21787693596E+03 -0.49916970425E+00 -0.11028807779E+03  0.25605286270E+03  0.77000000000E+02 0.  0.
   -5000001    1    1    2    0    0 -0.21787693596E+03  0.49916970425E+00 -0.28203845447E+03  0.36461664553E+03  0.77000000000E+02 0.  0.
<mgrwt>
<rscale>  0 0.48094753E+03</rscale>
<asrwt>0</asrwt>
<pdfrwt beam="1">  1        2 0.72356859E-01 0.48094753E+03</pdfrwt>
<pdfrwt beam="2">  1       -2 0.16310213E-01 0.48094753E+03</pdfrwt>
<totfact> 0.19987591E+03</totfact>
</mgrwt>
</event>
<event>
 4    1  0.6853809E-004  0.3687534E+03  0.7818608E-02  0.1055171E+00
         -2   -1    0    0    0  501 -0.00000000000E+00  0.00000000000E+00  0.48817255045E+03  0.48817255045E+03  0.25500000000E-02 0. -1.
          2   -1    0    0  501    0  0.00000000000E+00 -0.00000000000E+00 -0.69636781164E+02  0.69636781211E+02  0.25500000000E-02 0.  1.
    5000001    1    1    2    0    0  0.14870604728E+03 -0.23144703011E+02  0.97937653086E+02  0.19537131230E+03  0.77000000000E+02 0.  0.
   -5000001    1    1    2    0    0 -0.14870604728E+03  0.23144703011E+02  0.32059811620E+03  0.36243801937E+03  0.77000000000E+02 0.  0.
<mgrwt>
<rscale>  0 0.36875339E+03</rscale>
<asrwt>0</asrwt>
<pdfrwt beam="1">  1        2 0.99481114E-02 0.36875339E+03</pdfrwt>
<pdfrwt beam="2">  1       -2 0.69738937E-01 0.36875339E+03</pdfrwt>
<totfact> 0.12487200E+03</totfact>
</mgrwt>
</event>
<event>
 4    1  0.6853809E-004  0.2124115E+03  0.7818608E-02  0.1139670E+00
         -2   -1    0    0    0  501 -0.00000000000E+00  0.00000000000E+00  0.31798679423E+02  0.31798679525E+02  0.25500000000E-02 0. -1.
          2   -1    0    0  501    0  0.00000000000E+00 -0.00000000000E+00 -0.35472117404E+03  0.35472117405E+03  0.25500000000E-02 0.  1.
    5000001    1    1    2    0    0  0.59759053955E+02  0.41206848223E+02 -0.17789040407E+03  0.20698585635E+03  0.77000000000E+02 0.  0.
   -5000001    1    1    2    0    0 -0.59759053955E+02 -0.41206848223E+02 -0.14503209055E+03  0.17953399723E+03  0.77000000000E+02 0.  0.
<mgrwt>
<rscale>  0 0.21241153E+03</rscale>
<asrwt>0</asrwt>
<pdfrwt beam="1">  1        2 0.50674451E-01 0.21241153E+03</pdfrwt>
<pdfrwt beam="2">  1       -2 0.45426687E-02 0.21241153E+03</pdfrwt>
<totfact> 0.21745549E+04</totfact>
</mgrwt>
</event>
<event>
 4    1  0.6853809E-004  0.3008002E+03  0.7818608E-02  0.1084841E+00
          2   -1    0    0  501    0  0.00000000000E+00  0.00000000000E+00  0.14011598266E+03  0.14011598268E+03  0.25500000000E-02 0.  1.
         -2   -1    0    0    0  501 -0.00000000000E+00 -0.00000000000E+00 -0.16143903830E+03  0.16143903832E+03  0.25500000000E-02 0. -1.
    5000001    1    1    2    0    0  0.11198678562E+03  0.63007202138E+02 -0.24120634475E+02  0.15172920840E+03  0.77000000000E+02 0.  0.
   -5000001    1    1    2    0    0 -0.11198678562E+03 -0.63007202138E+02  0.27975788331E+01  0.14982581260E+03  0.77000000000E+02 0.  0.
<mgrwt>
<rscale>  0 0.30080020E+03</rscale>
<asrwt>0</asrwt>
<pdfrwt beam="1">  1        2 0.20016569E-01 0.30080020E+03</pdfrwt>
<pdfrwt beam="2">  1       -2 0.23062720E-01 0.30080020E+03</pdfrwt>
<totfact> 0.45386515E+03</totfact>
</mgrwt>
</event>
<event>
 4    1  0.6853809E-004  0.1805112E+03  0.7818608E-02  0.1167309E+00
         -2   -1    0    0    0  501 -0.00000000000E+00  0.00000000000E+00  0.11904282875E+02  0.11904283148E+02  0.25500000000E-02 0. -1.
          2   -1    0    0  501    0  0.00000000000E+00 -0.00000000000E+00 -0.68429741812E+03  0.68429741813E+03  0.25500000000E-02 0.  1.
    5000001    1    1    2    0    0 -0.18171090675E+02 -0.43239316611E+02 -0.35221199852E+03  0.36356858904E+03  0.77000000000E+02 0.  0.
   -5000001    1    1    2    0    0  0.18171090675E+02  0.43239316611E+02 -0.32018113673E+03  0.33263311223E+03  0.77000000000E+02 0.  0.
<mgrwt>
<rscale>  0 0.18051116E+03</rscale>
<asrwt>0</asrwt>
<pdfrwt beam="1">  1        2 0.97756749E-01 0.18051116E+03</pdfrwt>
<pdfrwt beam="2">  1       -2 0.17006123E-02 0.18051116E+03</pdfrwt>
<totfact> 0.44394262E+04</totfact>
</mgrwt>
</event>
<event>
 4    1  0.6853809E-004  0.3007606E+03  0.7818608E-02  0.1084861E+00
          2   -1    0    0  501    0  0.00000000000E+00  0.00000000000E+00  0.16138155701E+04  0.16138155701E+04  0.25500000000E-02 0. -1.
         -2   -1    0    0    0  501 -0.00000000000E+00 -0.00000000000E+00 -0.14012901310E+02  0.14012901542E+02  0.25500000000E-02 0.  1.
    5000001    1    1    2    0    0 -0.21917424539E+02 -0.10287207612E+03  0.12057282460E+04  0.12127541552E+04  0.77000000000E+02 0.  0.
   -5000001    1    1    2    0    0  0.21917424539E+02  0.10287207612E+03  0.39407442273E+03  0.41507431647E+03  0.77000000000E+02 0.  0.
<mgrwt>
<rscale>  0 0.30076063E+03</rscale>
<asrwt>0</asrwt>
<pdfrwt beam="1">  1        2 0.23054516E+00 0.30076063E+03</pdfrwt>
<pdfrwt beam="2">  1       -2 0.20018424E-02 0.30076063E+03</pdfrwt>
<totfact> 0.10578763E+04</totfact>
</mgrwt>
</event>
<event>
 4    1  0.6853809E-004  0.2341714E+03  0.7818608E-02  0.1123738E+00
         -2   -1    0    0    0  501 -0.00000000000E+00  0.00000000000E+00  0.60784921324E+02  0.60784921378E+02  0.25500000000E-02 0. -1.
          2   -1    0    0  501    0  0.00000000000E+00 -0.00000000000E+00 -0.22553392457E+03  0.22553392459E+03  0.25500000000E-02 0.  1.
    5000001    1    1    2    0    0  0.82954574278E+02 -0.13835950126E+02 -0.11488899955E+03  0.16186839446E+03  0.77000000000E+02 0.  0.
   -5000001    1    1    2    0    0 -0.82954574278E+02  0.13835950126E+02 -0.49860003703E+02  0.12445045150E+03  0.77000000000E+02 0.  0.
<mgrwt>
<rscale>  0 0.23417141E+03</rscale>
<asrwt>0</asrwt>
<pdfrwt beam="1">  1        2 0.32219132E-01 0.23417141E+03</pdfrwt>
<pdfrwt beam="2">  1       -2 0.86835603E-02 0.23417141E+03</pdfrwt>
<totfact> 0.13181943E+04</totfact>
</mgrwt>
</event>
<event>
 4    1  0.6853809E-004  0.2479087E+03  0.7818608E-02  0.1114634E+00
         -2   -1    0    0    0  501 -0.00000000000E+00  0.00000000000E+00  0.81538992124E+02  0.81538992163E+02  0.25500000000E-02 0. -1.
          2   -1    0    0  501    0  0.00000000000E+00 -0.00000000000E+00 -0.18843352135E+03  0.18843352137E+03  0.25500000000E-02 0.  1.
    5000001    1    1    2    0    0 -0.68766901905E+02  0.36287668447E+02 -0.11685284863E+03  0.16009144235E+03  0.77000000000E+02 0.  0.
   -5000001    1    1    2    0    0  0.68766901905E+02 -0.36287668447E+02  0.99583194081E+01  0.10988107118E+03  0.77000000000E+02 0.  0.
<mgrwt>
<rscale>  0 0.24790869E+03</rscale>
<asrwt>0</asrwt>
<pdfrwt beam="1">  1        2 0.26919074E-01 0.24790869E+03</pdfrwt>
<pdfrwt beam="2">  1       -2 0.11648428E-01 0.24790869E+03</pdfrwt>
<totfact> 0.10103059E+04</totfact>
</mgrwt>
</event>
<event>
 4    1  0.6853809E-004  0.1810129E+03  0.7818608E-02  0.1166826E+00
          2   -1    0    0  501    0  0.00000000000E+00  0.00000000000E+00  0.22184405146E+02  0.22184405293E+02  0.25500000000E-02 0.  1.
         -2   -1    0    0    0  501 -0.00000000000E+00 -0.00000000000E+00 -0.36924206218E+03  0.36924206219E+03  0.25500000000E-02 0. -1.
    5000001    1    1    2    0    0 -0.29550983597E+02  0.24655734421E+02 -0.23397038445E+03  0.24930364351E+03  0.77000000000E+02 0.  0.
   -5000001    1    1    2    0    0  0.29550983597E+02 -0.24655734421E+02 -0.11308727259E+03  0.14212282397E+03  0.77000000000E+02 0.  0.
<mgrwt>
<rscale>  0 0.18101288E+03</rscale>
<asrwt>0</asrwt>
<pdfrwt beam="1">  1        2 0.31692010E-02 0.18101288E+03</pdfrwt>
<pdfrwt beam="2">  1       -2 0.52748862E-01 0.18101288E+03</pdfrwt>
<totfact> 0.96469340E+03</totfact>
</mgrwt>
</event>
<event>
 4    1  0.6853809E-004  0.3230138E+03  0.7818608E-02  0.1074271E+00
         -2   -1    0    0    0  501 -0.00000000000E+00  0.00000000000E+00  0.14863308034E+03  0.14863308037E+03  0.25500000000E-02 0. -1.
          2   -1    0    0  501    0  0.00000000000E+00 -0.00000000000E+00 -0.17549579365E+03  0.17549579367E+03  0.25500000000E-02 0.  1.
    5000001    1    1    2    0    0  0.82694432462E+02 -0.67663283277E+02  0.80372849976E+02  0.15429025918E+03  0.77000000000E+02 0.  0.
   -5000001    1    1    2    0    0 -0.82694432462E+02  0.67663283277E+02 -0.10723556328E+03  0.16983861486E+03  0.77000000000E+02 0.  0.
<mgrwt>
<rscale>  0 0.32301381E+03</rscale>
<asrwt>0</asrwt>
<pdfrwt beam="1">  1        2 0.25070827E-01 0.32301381E+03</pdfrwt>
<pdfrwt beam="2">  1       -2 0.21233297E-01 0.32301381E+03</pdfrwt>
<totfact> 0.40670855E+03</totfact>
</mgrwt>
</event>
<event>
 4    1  0.6853809E-004  0.1744468E+03  0.7818608E-02  0.1173288E+00
          2   -1    0    0  501    0  0.00000000000E+00  0.00000000000E+00  0.22482705475E+03  0.22482705477E+03  0.25500000000E-02 0.  1.
         -2   -1    0    0    0  501 -0.00000000000E+00 -0.00000000000E+00 -0.33838980478E+02  0.33838980574E+02  0.25500000000E-02 0. -1.
    5000001    1    1    2    0    0 -0.88015283507E+01 -0.39868176846E+02  0.10062623239E+03  0.13312241386E+03  0.77000000000E+02 0.  0.
   -5000001    1    1    2    0    0  0.88015283507E+01  0.39868176846E+02  0.90361841881E+02  0.12554362148E+03  0.77000000000E+02 0.  0.
<mgrwt>
<rscale>  0 0.17444676E+03</rscale>
<asrwt>0</asrwt>
<pdfrwt beam="1">  1        2 0.32118150E-01 0.17444676E+03</pdfrwt>
<pdfrwt beam="2">  1       -2 0.48341402E-02 0.17444676E+03</pdfrwt>
<totfact> 0.31777669E+04</totfact>
</mgrwt>
</event>
<event>
 4    1  0.6853809E-004  0.3006170E+03  0.7818608E-02  0.1084933E+00
          2   -1    0    0  501    0  0.00000000000E+00  0.00000000000E+00  0.39778298010E+03  0.39778298010E+03  0.25500000000E-02 0.  1.
         -2   -1    0    0    0  501 -0.00000000000E+00 -0.00000000000E+00 -0.56796425021E+02  0.56796425078E+02  0.25500000000E-02 0. -1.
    5000001    1    1    2    0    0  0.98664049876E+02 -0.49908863696E+02  0.69754256248E+02  0.15172391268E+03  0.77000000000E+02 0.  0.
   -5000001    1    1    2    0    0 -0.98664049876E+02  0.49908863696E+02  0.27123229883E+03  0.30285549250E+03  0.77000000000E+02 0.  0.
<mgrwt>
<rscale>  0 0.30061704E+03</rscale>
<asrwt>0</asrwt>
<pdfrwt beam="1">  1        2 0.56826137E-01 0.30061704E+03</pdfrwt>
<pdfrwt beam="2">  1       -2 0.81137754E-02 0.30061704E+03</pdfrwt>
<totfact> 0.80375607E+03</totfact>
</mgrwt>
</event>
<event>
 4    1  0.6853809E-004  0.2564738E+03  0.7818608E-02  0.1109281E+00
         -2   -1    0    0    0  501 -0.00000000000E+00  0.00000000000E+00  0.18725552734E+02  0.18725552907E+02  0.25500000000E-02 0. -1.
          2   -1    0    0  501    0  0.00000000000E+00 -0.00000000000E+00 -0.87819549852E+03  0.87819549852E+03  0.25500000000E-02 0.  1.
    5000001    1    1    2    0    0 -0.59886621838E+02  0.14316950109E+02 -0.71650600279E+03  0.72325737781E+03  0.77000000000E+02 0.  0.
   -5000001    1    1    2    0    0  0.59886621838E+02 -0.14316950109E+02 -0.14296394300E+03  0.17366367362E+03  0.77000000000E+02 0.  0.
<mgrwt>
<rscale>  0 0.25647375E+03</rscale>
<asrwt>0</asrwt>
<pdfrwt beam="1">  1        2 0.12545647E+00 0.25647375E+03</pdfrwt>
<pdfrwt beam="2">  1       -2 0.26750795E-02 0.25647375E+03</pdfrwt>
<totfact> 0.17262537E+04</totfact>
</mgrwt>
</event>
<event>
 4    1  0.6853809E-004  0.2317024E+03  0.7818608E-02  0.1125447E+00
         -2   -1    0    0    0  501 -0.00000000000E+00  0.00000000000E+00  0.75105348388E+02  0.75105348432E+02  0.25500000000E-02 0. -1.
          2   -1    0    0  501    0  0.00000000000E+00 -0.00000000000E+00 -0.17870231323E+03  0.17870231325E+03  0.25500000000E-02 0.  1.
    5000001    1    1    2    0    0  0.53249914115E+02 -0.34997478918E+02 -0.11597196527E+03  0.15309759506E+03  0.77000000000E+02 0.  0.
   -5000001    1    1    2    0    0 -0.53249914115E+02  0.34997478918E+02  0.12375000427E+02  0.10071006662E+03  0.77000000000E+02 0.  0.
<mgrwt>
<rscale>  0 0.23170239E+03</rscale>
<asrwt>0</asrwt>
<pdfrwt beam="1">  1        2 0.25528902E-01 0.23170239E+03</pdfrwt>
<pdfrwt beam="2">  1       -2 0.10729336E-01 0.23170239E+03</pdfrwt>
<totfact> 0.12177958E+04</totfact>
</mgrwt>
</event>
<event>
 4    1  0.6853809E-004  0.2614010E+03  0.7818608E-02  0.1106304E+00
          2   -1    0    0  501    0  0.00000000000E+00  0.00000000000E+00  0.41744774305E+03  0.41744774305E+03  0.25500000000E-02 0.  1.
         -2   -1    0    0    0  501 -0.00000000000E+00 -0.00000000000E+00 -0.40921572327E+02  0.40921572406E+02  0.25500000000E-02 0. -1.
    5000001    1    1    2    0    0 -0.67226658140E+02  0.79342616266E+02  0.15598021701E+03  0.20266598732E+03  0.77000000000E+02 0.  0.
   -5000001    1    1    2    0    0  0.67226658140E+02 -0.79342616266E+02  0.22054595371E+03  0.25570332814E+03  0.77000000000E+02 0.  0.
<mgrwt>
<rscale>  0 0.26140098E+03</rscale>
<asrwt>0</asrwt>
<pdfrwt beam="1">  1        2 0.59635392E-01 0.26140098E+03</pdfrwt>
<pdfrwt beam="2">  1       -2 0.58459389E-02 0.26140098E+03</pdfrwt>
<totfact> 0.12598126E+04</totfact>
</mgrwt>
</event>
<event>
 4    1  0.6853809E-004  0.3145452E+03  0.7818608E-02  0.1078188E+00
         -2   -1    0    0    0  501 -0.00000000000E+00  0.00000000000E+00  0.12182472920E+02  0.12182473187E+02  0.25500000000E-02 0. -1.
          2   -1    0    0  501    0  0.00000000000E+00 -0.00000000000E+00 -0.20303487794E+04  0.20303487794E+04  0.25500000000E-02 0.  1.
    5000001    1    1    2    0    0  0.76116170328E+02 -0.10724293829E+03 -0.75667073285E+03  0.77186418310E+03  0.77000000000E+02 0.  0.
   -5000001    1    1    2    0    0 -0.76116170328E+02  0.10724293829E+03 -0.12614955736E+04  0.12706670695E+04  0.77000000000E+02 0.  0.
<mgrwt>
<rscale>  0 0.31454519E+03</rscale>
<asrwt>0</asrwt>
<pdfrwt beam="1">  1        2 0.29004961E+00 0.31454519E+03</pdfrwt>
<pdfrwt beam="2">  1       -2 0.17403546E-02 0.31454519E+03</pdfrwt>
<totfact> 0.81121992E+03</totfact>
</mgrwt>
</event>
<event>
 4    1  0.6853809E-004  0.3548664E+03  0.7818608E-02  0.1060635E+00
         -2   -1    0    0    0  501 -0.00000000000E+00  0.00000000000E+00  0.73999246887E+02  0.73999246931E+02  0.25500000000E-02 0. -1.
          2   -1    0    0  501    0  0.00000000000E+00 -0.00000000000E+00 -0.42544407217E+03  0.42544407218E+03  0.25500000000E-02 0.  1.
    5000001    1    1    2    0    0  0.35280688101E+02  0.14452561456E+03 -0.93401900617E+02  0.19179493022E+03  0.77000000000E+02 0.  0.
   -5000001    1    1    2    0    0 -0.35280688101E+02 -0.14452561456E+03 -0.25804292467E+03  0.30764838889E+03  0.77000000000E+02 0.  0.
<mgrwt>
<rscale>  0 0.35486640E+03</rscale>
<asrwt>0</asrwt>
<pdfrwt beam="1">  1        2 0.60777723E-01 0.35486640E+03</pdfrwt>
<pdfrwt beam="2">  1       -2 0.10571321E-01 0.35486640E+03</pdfrwt>
<totfact> 0.49335509E+03</totfact>
</mgrwt>
</event>
<event>
 4    1  0.6853809E-004  0.1743603E+03  0.7818608E-02  0.1173376E+00
         -2   -1    0    0    0  501 -0.00000000000E+00  0.00000000000E+00  0.31977900484E+01  0.31977910652E+01  0.25500000000E-02 0. -1.
          2   -1    0    0  501    0  0.00000000000E+00 -0.00000000000E+00 -0.23767595450E+04  0.23767595450E+04  0.25500000000E-02 0.  1.
    5000001    1    1    2    0    0  0.38715150526E+02 -0.12949902013E+02 -0.12167367759E+04  0.12198540670E+04  0.77000000000E+02 0.  0.
   -5000001    1    1    2    0    0 -0.38715150526E+02  0.12949902013E+02 -0.11568249790E+04  0.11601032691E+04  0.77000000000E+02 0.  0.
<mgrwt>
<rscale>  0 0.17436031E+03</rscale>
<asrwt>0</asrwt>
<pdfrwt beam="1">  1        2 0.33953595E+00 0.17436031E+03</pdfrwt>
<pdfrwt beam="2">  1       -2 0.45682874E-03 0.17436031E+03</pdfrwt>
<totfact> 0.37376257E+04</totfact>
</mgrwt>
</event>
<event>
 4    1  0.6853809E-004  0.3079527E+03  0.7818608E-02  0.1081331E+00
         -2   -1    0    0    0  501 -0.00000000000E+00  0.00000000000E+00  0.28727070401E+02  0.28727070514E+02  0.25500000000E-02 0. -1.
          2   -1    0    0  501    0  0.00000000000E+00 -0.00000000000E+00 -0.82530945747E+03  0.82530945748E+03  0.25500000000E-02 0.  1.
    5000001    1    1    2    0    0 -0.79904489299E+02 -0.34739334399E+02 -0.11836692610E+03  0.16592551932E+03  0.77000000000E+02 0.  0.
   -5000001    1    1    2    0    0  0.79904489299E+02  0.34739334399E+02 -0.67821546097E+03  0.68811100868E+03  0.77000000000E+02 0.  0.
<mgrwt>
<rscale>  0 0.30795274E+03</rscale>
<asrwt>0</asrwt>
<pdfrwt beam="1">  1        2 0.11790134E+00 0.30795274E+03</pdfrwt>
<pdfrwt beam="2">  1       -2 0.41038677E-02 0.30795274E+03</pdfrwt>
<totfact> 0.99217903E+03</totfact>
</mgrwt>
</event>
<event>
 4    1  0.6853809E-004  0.1891656E+03  0.7818608E-02  0.1159216E+00
         -2   -1    0    0    0  501 -0.00000000000E+00  0.00000000000E+00  0.55025393207E+01  0.55025399116E+01  0.25500000000E-02 0. -1.
          2   -1    0    0  501    0  0.00000000000E+00 -0.00000000000E+00 -0.16257778918E+04  0.16257778918E+04  0.25500000000E-02 0.  1.
    5000001    1    1    2    0    0 -0.21676597742E+02  0.36179595172E+02 -0.50670740449E+03  0.51425697056E+03  0.77000000000E+02 0.  0.
   -5000001    1    1    2    0    0  0.21676597742E+02 -0.36179595172E+02 -0.11135679480E+04  0.11170234612E+04  0.77000000000E+02 0.  0.
<mgrwt>
<rscale>  0 0.18916561E+03</rscale>
<asrwt>0</asrwt>
<pdfrwt beam="1">  1        2 0.23225368E+00 0.18916561E+03</pdfrwt>
<pdfrwt beam="2">  1       -2 0.78607812E-03 0.18916561E+03</pdfrwt>
<totfact> 0.39834662E+04</totfact>
</mgrwt>
</event>
<event>
 4    1  0.6853809E-004  0.2992005E+03  0.7818608E-02  0.1085641E+00
         -2   -1    0    0    0  501 -0.00000000000E+00  0.00000000000E+00  0.96324812184E+01  0.96324815559E+01  0.25500000000E-02 0. -1.
          2   -1    0    0  501    0  0.00000000000E+00 -0.00000000000E+00 -0.23234125384E+04  0.23234125384E+04  0.25500000000E-02 0.  1.
    5000001    1    1    2    0    0  0.68233511586E+02 -0.83419530492E+02 -0.16991791094E+04  0.17043336751E+04  0.77000000000E+02 0.  0.
   -5000001    1    1    2    0    0 -0.68233511586E+02  0.83419530492E+02 -0.61460094779E+03  0.62871134489E+03  0.77000000000E+02 0.  0.
<mgrwt>
<rscale>  0 0.29920045E+03</rscale>
<asrwt>0</asrwt>
<pdfrwt beam="1">  1        2 0.33191572E+00 0.29920045E+03</pdfrwt>
<pdfrwt beam="2">  1       -2 0.13760703E-02 0.29920045E+03</pdfrwt>
<totfact> 0.82174536E+03</totfact>
</mgrwt>
</event>
<event>
 4    1  0.6853809E-004  0.2234330E+03  0.7818608E-02  0.1131349E+00
         -2   -1    0    0    0  501 -0.00000000000E+00  0.00000000000E+00  0.19557832341E+02  0.19557832507E+02  0.25500000000E-02 0. -1.
          2   -1    0    0  501    0  0.00000000000E+00 -0.00000000000E+00 -0.63813715873E+03  0.63813715874E+03  0.25500000000E-02 0.  1.
    5000001    1    1    2    0    0  0.34223951248E+02  0.59751039077E+02 -0.18405338928E+03  0.21105950729E+03  0.77000000000E+02 0.  0.
   -5000001    1    1    2    0    0 -0.34223951248E+02 -0.59751039077E+02 -0.43452593711E+03  0.44663548396E+03  0.77000000000E+02 0.  0.
<mgrwt>
<rscale>  0 0.22343303E+03</rscale>
<asrwt>0</asrwt>
<pdfrwt beam="1">  1        2 0.91162438E-01 0.22343303E+03</pdfrwt>
<pdfrwt beam="2">  1       -2 0.27939765E-02 0.22343303E+03</pdfrwt>
<totfact> 0.23633070E+04</totfact>
</mgrwt>
</event>
<event>
 4    1  0.6853809E-004  0.2911505E+03  0.7818608E-02  0.1089750E+00
         -2   -1    0    0    0  501 -0.00000000000E+00  0.00000000000E+00  0.43363192320E+02  0.43363192395E+02  0.25500000000E-02 0. -1.
          2   -1    0    0  501    0  0.00000000000E+00 -0.00000000000E+00 -0.48871306411E+03  0.48871306412E+03  0.25500000000E-02 0.  1.
    5000001    1    1    2    0    0  0.41763019770E+02 -0.11387969621E+03 -0.17979986987E+03  0.23015153320E+03  0.77000000000E+02 0.  0.
   -5000001    1    1    2    0    0 -0.41763019770E+02  0.11387969621E+03 -0.26555000192E+03  0.30192472332E+03  0.77000000000E+02 0.  0.
<mgrwt>
<rscale>  0 0.29115054E+03</rscale>
<asrwt>0</asrwt>
<pdfrwt beam="1">  1        2 0.69816149E-01 0.29115054E+03</pdfrwt>
<pdfrwt beam="2">  1       -2 0.61947420E-02 0.29115054E+03</pdfrwt>
<totfact> 0.97475357E+03</totfact>
</mgrwt>
</event>
<event>
 4    1  0.6853809E-004  0.4590015E+03  0.7818608E-02  0.1025071E+00
         -2   -1    0    0    0  501 -0.00000000000E+00  0.00000000000E+00  0.27348849198E+02  0.27348849317E+02  0.25500000000E-02 0. -1.
          2   -1    0    0  501    0  0.00000000000E+00 -0.00000000000E+00 -0.19258800258E+04  0.19258800258E+04  0.25500000000E-02 0.  1.
    5000001    1    1    2    0    0 -0.35619934781E+02  0.20172130806E+03 -0.65501749458E+03  0.69060638868E+03  0.77000000000E+02 0.  0.
   -5000001    1    1    2    0    0  0.35619934781E+02 -0.20172130806E+03 -0.12435136820E+04  0.12626224864E+04  0.77000000000E+02 0.  0.
<mgrwt>
<rscale>  0 0.45900154E+03</rscale>
<asrwt>0</asrwt>
<pdfrwt beam="1">  1        2 0.27512563E+00 0.45900154E+03</pdfrwt>
<pdfrwt beam="2">  1       -2 0.39069797E-02 0.45900154E+03</pdfrwt>
<totfact> 0.27193687E+03</totfact>
</mgrwt>
</event>
<event>
 4    1  0.6853809E-004  0.2663534E+03  0.7818608E-02  0.1103385E+00
          2   -1    0    0  501    0  0.00000000000E+00  0.00000000000E+00  0.14186048631E+04  0.14186048631E+04  0.25500000000E-02 0.  1.
         -2   -1    0    0    0  501 -0.00000000000E+00 -0.00000000000E+00 -0.12502450992E+02  0.12502451252E+02  0.25500000000E-02 0. -1.
    5000001    1    1    2    0    0 -0.23688016993E+02 -0.84120901655E+02  0.10499961497E+04  0.10564366344E+04  0.77000000000E+02 0.  0.
   -5000001    1    1    2    0    0  0.23688016993E+02  0.84120901655E+02  0.35610626237E+03  0.37467067986E+03  0.77000000000E+02 0.  0.
<mgrwt>
<rscale>  0 0.26635343E+03</rscale>
<asrwt>0</asrwt>
<pdfrwt beam="1">  1        2 0.20265783E+00 0.26635343E+03</pdfrwt>
<pdfrwt beam="2">  1       -2 0.17860645E-02 0.26635343E+03</pdfrwt>
<totfact> 0.15646058E+04</totfact>
</mgrwt>
</event>
<event>
 4    1  0.6853809E-004  0.2581774E+03  0.7818608E-02  0.1108243E+00
          2   -1    0    0  501    0  0.00000000000E+00  0.00000000000E+00  0.57270011502E+03  0.57270011503E+03  0.25500000000E-02 0.  1.
         -2   -1    0    0    0  501 -0.00000000000E+00 -0.00000000000E+00 -0.29097055508E+02  0.29097055619E+02  0.25500000000E-02 0. -1.
    5000001    1    1    2    0    0  0.92749775873E+02  0.13917429292E+02  0.37443383423E+03  0.39360629057E+03  0.77000000000E+02 0.  0.
   -5000001    1    1    2    0    0 -0.92749775873E+02 -0.13917429292E+02  0.16916922528E+03  0.20819088007E+03  0.77000000000E+02 0.  0.
<mgrwt>
<rscale>  0 0.25817736E+03</rscale>
<asrwt>0</asrwt>
<pdfrwt beam="1">  1        2 0.81814305E-01 0.25817736E+03</pdfrwt>
<pdfrwt beam="2">  1       -2 0.41567221E-02 0.25817736E+03</pdfrwt>
<totfact> 0.14904552E+04</totfact>
</mgrwt>
</event>
<event>
 4    1  0.6853809E-004  0.2399130E+03  0.7818608E-02  0.1119851E+00
          2   -1    0    0  501    0  0.00000000000E+00  0.00000000000E+00  0.11263355977E+03  0.11263355980E+03  0.25500000000E-02 0.  1.
         -2   -1    0    0    0  501 -0.00000000000E+00 -0.00000000000E+00 -0.12775550213E+03  0.12775550215E+03  0.25500000000E-02 0. -1.
    5000001    1    1    2    0    0 -0.79177358483E+01 -0.91407482670E+02 -0.14096073587E+02  0.12060562889E+03  0.77000000000E+02 0.  0.
   -5000001    1    1    2    0    0  0.79177358483E+01  0.91407482670E+02 -0.10258687699E+01  0.11978343306E+03  0.77000000000E+02 0.  0.
<mgrwt>
<rscale>  0 0.23991296E+03</rscale>
<asrwt>0</asrwt>
<pdfrwt beam="1">  1        2 0.16090509E-01 0.23991296E+03</pdfrwt>
<pdfrwt beam="2">  1       -2 0.18250786E-01 0.23991296E+03</pdfrwt>
<totfact> 0.86567679E+03</totfact>
</mgrwt>
</event>
<event>
 4    1  0.6853809E-004  0.4639994E+03  0.7818608E-02  0.1023628E+00
         -2   -1    0    0    0  501 -0.00000000000E+00  0.00000000000E+00  0.23356147618E+02  0.23356147757E+02  0.25500000000E-02 0. -1.
          2   -1    0    0  501    0  0.00000000000E+00 -0.00000000000E+00 -0.23044832614E+04  0.23044832614E+04  0.25500000000E-02 0.  1.
    5000001    1    1    2    0    0  0.10331551592E+03 -0.19284017296E+03 -0.11115594122E+04  0.11354975803E+04  0.77000000000E+02 0.  0.
   -5000001    1    1    2    0    0 -0.10331551592E+03  0.19284017296E+03 -0.11695677016E+04  0.11923418288E+04  0.77000000000E+02 0.  0.
<mgrwt>
<rscale>  0 0.46399936E+03</rscale>
<asrwt>0</asrwt>
<pdfrwt beam="1">  1        2 0.32921175E+00 0.46399936E+03</pdfrwt>
<pdfrwt beam="2">  1       -2 0.33365940E-02 0.46399936E+03</pdfrwt>
<totfact> 0.22379271E+03</totfact>
</mgrwt>
</event>
<event>
 4    1  0.6853809E-004  0.2634944E+03  0.7818608E-02  0.1105062E+00
          2   -1    0    0  501    0  0.00000000000E+00  0.00000000000E+00  0.60858364650E+03  0.60858364650E+03  0.25500000000E-02 0.  1.
         -2   -1    0    0    0  501 -0.00000000000E+00 -0.00000000000E+00 -0.28520861207E+02  0.28520861321E+02  0.25500000000E-02 0. -1.
    5000001    1    1    2    0    0  0.87810356269E+02 -0.57442969520E+02  0.24059860831E+03  0.27354532300E+03  0.77000000000E+02 0.  0.
   -5000001    1    1    2    0    0 -0.87810356269E+02  0.57442969520E+02  0.33946417698E+03  0.36355918483E+03  0.77000000000E+02 0.  0.
<mgrwt>
<rscale>  0 0.26349444E+03</rscale>
<asrwt>0</asrwt>
<pdfrwt beam="1">  1        2 0.86940524E-01 0.26349444E+03</pdfrwt>
<pdfrwt beam="2">  1       -2 0.40744086E-02 0.26349444E+03</pdfrwt>
<totfact> 0.14348964E+04</totfact>
</mgrwt>
</event>
<event>
 4    1  0.6853809E-004  0.3853808E+03  0.7818608E-02  0.1048963E+00
         -2   -1    0    0    0  501 -0.00000000000E+00  0.00000000000E+00  0.10820066245E+03  0.10820066248E+03  0.25500000000E-02 0. -1.
          2   -1    0    0  501    0  0.00000000000E+00 -0.00000000000E+00 -0.34315500949E+03  0.34315500949E+03  0.25500000000E-02 0.  1.
    5000001    1    1    2    0    0 -0.11458409720E+03  0.12602255796E+01 -0.27491235719E+03  0.30763112267E+03  0.77000000000E+02 0.  0.
   -5000001    1    1    2    0    0  0.11458409720E+03 -0.12602255796E+01  0.39958010150E+02  0.14372454931E+03  0.77000000000E+02 0.  0.
<mgrwt>
<rscale>  0 0.38538085E+03</rscale>
<asrwt>0</asrwt>
<pdfrwt beam="1">  1        2 0.49022144E-01 0.38538085E+03</pdfrwt>
<pdfrwt beam="2">  1       -2 0.15457238E-01 0.38538085E+03</pdfrwt>
<totfact> 0.33545979E+03</totfact>
</mgrwt>
</event>
<event>
 4    1  0.6853809E-004  0.2197991E+03  0.7818608E-02  0.1134033E+00
         -2   -1    0    0    0  501 -0.00000000000E+00  0.00000000000E+00  0.38182241135E+01  0.38182249650E+01  0.25500000000E-02 0. -1.
          2   -1    0    0  501    0  0.00000000000E+00 -0.00000000000E+00 -0.31632257685E+04  0.31632257685E+04  0.25500000000E-02 0.  1.
    5000001    1    1    2    0    0 -0.32643201010E+02  0.63222991884E+02 -0.11048287025E+04  0.11097919567E+04  0.77000000000E+02 0.  0.
   -5000001    1    1    2    0    0  0.32643201010E+02 -0.63222991884E+02 -0.20545788419E+04  0.20572520368E+04  0.77000000000E+02 0.  0.
<mgrwt>
<rscale>  0 0.21979906E+03</rscale>
<asrwt>0</asrwt>
<pdfrwt beam="1">  1        2 0.45188772E+00 0.21979906E+03</pdfrwt>
<pdfrwt beam="2">  1       -2 0.54546267E-03 0.21979906E+03</pdfrwt>
<totfact> 0.11614479E+04</totfact>
</mgrwt>
</event>
<event>
 4    1  0.6853809E-004  0.2292071E+03  0.7818608E-02  0.1127199E+00
          2   -1    0    0  501    0  0.00000000000E+00  0.00000000000E+00  0.21895174215E+04  0.21895174215E+04  0.25500000000E-02 0.  1.
         -2   -1    0    0    0  501 -0.00000000000E+00 -0.00000000000E+00 -0.59985675849E+01  0.59985681269E+01  0.25500000000E-02 0. -1.
    5000001    1    1    2    0    0 -0.80562660738E+02 -0.15428561166E+02  0.13008715778E+04  0.13057274772E+04  0.77000000000E+02 0.  0.
   -5000001    1    1    2    0    0  0.80562660738E+02  0.15428561166E+02  0.88264727617E+03  0.88978851247E+03  0.77000000000E+02 0.  0.
<mgrwt>
<rscale>  0 0.22920706E+03</rscale>
<asrwt>0</asrwt>
<pdfrwt beam="1">  1        2 0.31278885E+00 0.22920706E+03</pdfrwt>
<pdfrwt beam="2">  1       -2 0.85693648E-03 0.22920706E+03</pdfrwt>
<totfact> 0.18930094E+04</totfact>
</mgrwt>
</event>
<event>
 4    1  0.6853809E-004  0.2786501E+03  0.7818608E-02  0.1096429E+00
         -2   -1    0    0    0  501 -0.00000000000E+00  0.00000000000E+00  0.27231874364E+02  0.27231874483E+02  0.25500000000E-02 0.  1.
          2   -1    0    0  501    0  0.00000000000E+00 -0.00000000000E+00 -0.71282159851E+03  0.71282159852E+03  0.25500000000E-02 0. -1.
    5000001    1    1    2    0    0 -0.73034205067E+02  0.38764855514E+02 -0.55930398991E+03  0.57060201740E+03  0.77000000000E+02 0.  0.
   -5000001    1    1    2    0    0  0.73034205067E+02 -0.38764855514E+02 -0.12628573424E+03  0.16945145560E+03  0.77000000000E+02 0.  0.
<mgrwt>
<rscale>  0 0.27865009E+03</rscale>
<asrwt>0</asrwt>
<pdfrwt beam="1">  1        2 0.10183165E+00 0.27865009E+03</pdfrwt>
<pdfrwt beam="2">  1       -2 0.38902682E-02 0.27865009E+03</pdfrwt>
<totfact> 0.12821309E+04</totfact>
</mgrwt>
</event>
<event>
 4    1  0.6853809E-004  0.2042099E+03  0.7818608E-02  0.1146235E+00
          2   -1    0    0  501    0  0.00000000000E+00  0.00000000000E+00  0.36787204070E+02  0.36787204159E+02  0.25500000000E-02 0.  1.
         -2   -1    0    0    0  501 -0.00000000000E+00 -0.00000000000E+00 -0.28339791735E+03  0.28339791736E+03  0.25500000000E-02 0. -1.
    5000001    1    1    2    0    0 -0.22958762043E+02 -0.54592191982E+02 -0.17261406710E+03  0.19807076599E+03  0.77000000000E+02 0.  0.
   -5000001    1    1    2    0    0  0.22958762043E+02  0.54592191982E+02 -0.73996646180E+02  0.12211435553E+03  0.77000000000E+02 0.  0.
<mgrwt>
<rscale>  0 0.20420986E+03</rscale>
<asrwt>0</asrwt>
<pdfrwt beam="1">  1        2 0.52553151E-02 0.20420986E+03</pdfrwt>
<pdfrwt beam="2">  1       -2 0.40485415E-01 0.20420986E+03</pdfrwt>
<totfact> 0.83307821E+03</totfact>
</mgrwt>
</event>
<event>
 4    1  0.6853809E-004  0.2852997E+03  0.7818608E-02  0.1092829E+00
          2   -1    0    0  501    0  0.00000000000E+00  0.00000000000E+00  0.23478065418E+03  0.23478065419E+03  0.25500000000E-02 0.  1.
         -2   -1    0    0    0  501 -0.00000000000E+00 -0.00000000000E+00 -0.86672292547E+02  0.86672292584E+02  0.25500000000E-02 0. -1.
    5000001    1    1    2    0    0  0.31301529724E+01 -0.93593476032E+02  0.15874908659E+03  0.19974936572E+03  0.77000000000E+02 0.  0.
   -5000001    1    1    2    0    0 -0.31301529724E+01  0.93593476032E+02 -0.10640724960E+02  0.12170358105E+03  0.77000000000E+02 0.  0.
<mgrwt>
<rscale>  0 0.28529968E+03</rscale>
<asrwt>0</asrwt>
<pdfrwt beam="1">  1        2 0.33540093E-01 0.28529968E+03</pdfrwt>
<pdfrwt beam="2">  1       -2 0.12381756E-01 0.28529968E+03</pdfrwt>
<totfact> 0.72373299E+03</totfact>
</mgrwt>
</event>
<event>
 4    1  0.6853809E-004  0.3707063E+03  0.7818608E-02  0.1054423E+00
         -2   -1    0    0    0  501 -0.00000000000E+00  0.00000000000E+00  0.34263345529E+02  0.34263345624E+02  0.25500000000E-02 0. -1.
          2   -1    0    0  501    0  0.00000000000E+00 -0.00000000000E+00 -0.10026978422E+04  0.10026978422E+04  0.25500000000E-02 0.  1.
    5000001    1    1    2    0    0  0.69880686748E+02  0.15341401615E+03 -0.47649968092E+03  0.51127303532E+03  0.77000000000E+02 0.  0.
   -5000001    1    1    2    0    0 -0.69880686748E+02 -0.15341401615E+03 -0.49193481573E+03  0.52568815248E+03  0.77000000000E+02 0.  0.
<mgrwt>
<rscale>  0 0.37070626E+03</rscale>
<asrwt>0</asrwt>
<pdfrwt beam="1">  1        2 0.14324253E+00 0.37070626E+03</pdfrwt>
<pdfrwt beam="2">  1       -2 0.48947643E-02 0.37070626E+03</pdfrwt>
<totfact> 0.59020118E+03</totfact>
</mgrwt>
</event>
<event>
 4    1  0.6853809E-004  0.1938474E+03  0.7818608E-02  0.1155036E+00
          2   -1    0    0  501    0  0.00000000000E+00  0.00000000000E+00  0.41484994889E+04  0.41484994889E+04  0.25500000000E-02 0.  1.
         -2   -1    0    0    0  501 -0.00000000000E+00 -0.00000000000E+00 -0.22644812439E+01  0.22644826796E+01  0.25500000000E-02 0. -1.
    5000001    1    1    2    0    0  0.34321294178E+01  0.54676525171E+02  0.16119269131E+04  0.16146946074E+04  0.77000000000E+02 0.  0.
   -5000001    1    1    2    0    0 -0.34321294178E+01 -0.54676525171E+02  0.25343080946E+04  0.25360693642E+04  0.77000000000E+02 0.  0.
<mgrwt>
<rscale>  0 0.19384739E+03</rscale>
<asrwt>0</asrwt>
<pdfrwt beam="1">  1        2 0.59263385E+00 0.19384739E+03</pdfrwt>
<pdfrwt beam="2">  1       -2 0.32350230E-03 0.19384739E+03</pdfrwt>
<totfact> 0.63075785E+03</totfact>
</mgrwt>
</event>
<event>
 4    1  0.6853809E-004  0.2156794E+03  0.7818608E-02  0.1137146E+00
         -2   -1    0    0    0  501 -0.00000000000E+00  0.00000000000E+00  0.45733567292E+02  0.45733567363E+02  0.25500000000E-02 0. -1.
          2   -1    0    0  501    0  0.00000000000E+00 -0.00000000000E+00 -0.25428580985E+03  0.25428580986E+03  0.25500000000E-02 0.  1.
    5000001    1    1    2    0    0  0.51442902783E+01  0.68731777293E+02 -0.14714816904E+03  0.17981130272E+03  0.77000000000E+02 0.  0.
   -5000001    1    1    2    0    0 -0.51442902783E+01 -0.68731777293E+02 -0.61404073511E+02  0.12020807450E+03  0.77000000000E+02 0.  0.
<mgrwt>
<rscale>  0 0.21567937E+03</rscale>
<asrwt>0</asrwt>
<pdfrwt beam="1">  1        2 0.36326544E-01 0.21567937E+03</pdfrwt>
<pdfrwt beam="2">  1       -2 0.65333669E-02 0.21567937E+03</pdfrwt>
<totfact> 0.17901736E+04</totfact>
</mgrwt>
</event>
<event>
 4    1  0.6853809E-004  0.4003424E+03  0.7818608E-02  0.1043661E+00
          2   -1    0    0  501    0  0.00000000000E+00  0.00000000000E+00  0.28543166704E+03  0.28543166705E+03  0.25500000000E-02 0.  1.
         -2   -1    0    0    0  501 -0.00000000000E+00 -0.00000000000E+00 -0.14037864740E+03  0.14037864742E+03  0.25500000000E-02 0. -1.
    5000001    1    1    2    0    0  0.63432112111E+02 -0.17138103286E+03  0.43506763117E+02  0.20301953036E+03  0.77000000000E+02 0.  0.
   -5000001    1    1    2    0    0 -0.63432112111E+02  0.17138103286E+03  0.10154625652E+03  0.22279078411E+03  0.77000000000E+02 0.  0.
<mgrwt>
<rscale>  0 0.40034241E+03</rscale>
<asrwt>0</asrwt>
<pdfrwt beam="1">  1        2 0.40775953E-01 0.40034241E+03</pdfrwt>
<pdfrwt beam="2">  1       -2 0.20054092E-01 0.40034241E+03</pdfrwt>
<totfact> 0.26368832E+03</totfact>
</mgrwt>
</event>
<event>
 4    1  0.6853809E-004  0.1808667E+03  0.7818608E-02  0.1166967E+00
          2   -1    0    0  501    0  0.00000000000E+00  0.00000000000E+00  0.10316141453E+03  0.10316141456E+03  0.25500000000E-02 0.  1.
         -2   -1    0    0    0  501 -0.00000000000E+00 -0.00000000000E+00 -0.79275670183E+02  0.79275670224E+02  0.25500000000E-02 0. -1.
    5000001    1    1    2    0    0  0.43103037306E+02  0.15203676077E+02  0.24708454227E+02  0.92889888048E+02  0.77000000000E+02 0.  0.
   -5000001    1    1    2    0    0 -0.43103037306E+02 -0.15203676077E+02 -0.82270988407E+00  0.89547196733E+02  0.77000000000E+02 0.  0.
<mgrwt>
<rscale>  0 0.18086669E+03</rscale>
<asrwt>0</asrwt>
<pdfrwt beam="1">  1        2 0.14737345E-01 0.18086669E+03</pdfrwt>
<pdfrwt beam="2">  1       -2 0.11325096E-01 0.18086669E+03</pdfrwt>
<totfact> 0.20581113E+04</totfact>
</mgrwt>
</event>
<event>
 4    1  0.6853809E-004  0.2087062E+03  0.7818608E-02  0.1142595E+00
          2   -1    0    0  501    0  0.00000000000E+00  0.00000000000E+00  0.45882504928E+03  0.45882504929E+03  0.25500000000E-02 0.  1.
         -2   -1    0    0    0  501 -0.00000000000E+00 -0.00000000000E+00 -0.23733588473E+02  0.23733588610E+02  0.25500000000E-02 0. -1.
    5000001    1    1    2    0    0 -0.32609952011E+02 -0.37175068145E+02  0.10158831423E+03  0.13672812531E+03  0.77000000000E+02 0.  0.
   -5000001    1    1    2    0    0  0.32609952011E+02  0.37175068145E+02  0.33350314658E+03  0.34583051259E+03  0.77000000000E+02 0.  0.
<mgrwt>
<rscale>  0 0.20870616E+03</rscale>
<asrwt>0</asrwt>
<pdfrwt beam="1">  1        2 0.65546440E-01 0.20870616E+03</pdfrwt>
<pdfrwt beam="2">  1       -2 0.33905124E-02 0.20870616E+03</pdfrwt>
<totfact> 0.25500422E+04</totfact>
</mgrwt>
</event>
<event>
 4    1  0.6853809E-004  0.4144933E+03  0.7818608E-02  0.1038874E+00
          2   -1    0    0  501    0  0.00000000000E+00  0.00000000000E+00  0.78992333226E+03  0.78992333226E+03  0.25500000000E-02 0.  1.
         -2   -1    0    0    0  501 -0.00000000000E+00 -0.00000000000E+00 -0.54373839289E+02  0.54373839349E+02  0.25500000000E-02 0. -1.
    5000001    1    1    2    0    0 -0.16633048764E+03  0.64313186152E+02  0.51494473214E+03  0.55036269332E+03  0.77000000000E+02 0.  0.
   -5000001    1    1    2    0    0  0.16633048764E+03 -0.64313186152E+02  0.22060476082E+03  0.29393447829E+03  0.77000000000E+02 0.  0.
<mgrwt>
<rscale>  0 0.41449325E+03</rscale>
<asrwt>0</asrwt>
<pdfrwt beam="1">  1        2 0.11284619E+00 0.41449325E+03</pdfrwt>
<pdfrwt beam="2">  1       -2 0.77676915E-02 0.41449325E+03</pdfrwt>
<totfact> 0.39473090E+03</totfact>
</mgrwt>
</event>
<event>
 4    1  0.6853809E-004  0.3521123E+03  0.7818608E-02  0.1061751E+00
          2   -1    0    0  501    0  0.00000000000E+00  0.00000000000E+00  0.96936870107E+03  0.96936870108E+03  0.25500000000E-02 0.  1.
         -2   -1    0    0    0  501 -0.00000000000E+00 -0.00000000000E+00 -0.31975205519E+02  0.31975205621E+02  0.25500000000E-02 0. -1.
    5000001    1    1    2    0    0 -0.93602793610E+02 -0.84521910100E+02  0.19650102748E+03  0.24585989925E+03  0.77000000000E+02 0.  0.
   -5000001    1    1    2    0    0  0.93602793610E+02  0.84521910100E+02  0.74089246808E+03  0.75548400745E+03  0.77000000000E+02 0.  0.
<mgrwt>
<rscale>  0 0.35211227E+03</rscale>
<asrwt>0</asrwt>
<pdfrwt beam="1">  1        2 0.13848124E+00 0.35211227E+03</pdfrwt>
<pdfrwt beam="2">  1       -2 0.45678866E-02 0.35211227E+03</pdfrwt>
<totfact> 0.68622964E+03</totfact>
</mgrwt>
</event>
<event>
 4    1  0.6853809E-004  0.2748996E+03  0.7818608E-02  0.1098508E+00
         -2   -1    0    0    0  501 -0.00000000000E+00  0.00000000000E+00  0.19262026478E+02  0.19262026647E+02  0.25500000000E-02 0. -1.
          2   -1    0    0  501    0  0.00000000000E+00 -0.00000000000E+00 -0.98081330334E+03  0.98081330334E+03  0.25500000000E-02 0.  1.
    5000001    1    1    2    0    0  0.64611325699E+02  0.51176029732E+02 -0.76653179367E+03  0.77478616413E+03  0.77000000000E+02 0.  0.
   -5000001    1    1    2    0    0 -0.64611325699E+02 -0.51176029732E+02 -0.19501948319E+03  0.22528916586E+03  0.77000000000E+02 0.  0.
<mgrwt>
<rscale>  0 0.27489963E+03</rscale>
<asrwt>0</asrwt>
<pdfrwt beam="1">  1        2 0.14011616E+00 0.27489963E+03</pdfrwt>
<pdfrwt beam="2">  1       -2 0.27517187E-02 0.27489963E+03</pdfrwt>
<totfact> 0.14362505E+04</totfact>
</mgrwt>
</event>
<event>
 4    1  0.6853809E-004  0.1802680E+03  0.7818608E-02  0.1167544E+00
         -2   -1    0    0    0  501 -0.00000000000E+00  0.00000000000E+00  0.30049355672E+03  0.30049355673E+03  0.25500000000E-02 0. -1.
          2   -1    0    0  501    0  0.00000000000E+00 -0.00000000000E+00 -0.27035967724E+02  0.27035967845E+02  0.25500000000E-02 0.  1.
    5000001    1    1    2    0    0  0.11345768146E+02 -0.45030776127E+02  0.12543518209E+03  0.15433561533E+03  0.77000000000E+02 0.  0.
   -5000001    1    1    2    0    0 -0.11345768146E+02  0.45030776127E+02  0.14802240690E+03  0.17319390924E+03  0.77000000000E+02 0.  0.
<mgrwt>
<rscale>  0 0.18026796E+03</rscale>
<asrwt>0</asrwt>
<pdfrwt beam="1">  1        2 0.38622813E-02 0.18026796E+03</pdfrwt>
<pdfrwt beam="2">  1       -2 0.42927648E-01 0.18026796E+03</pdfrwt>
<totfact> 0.11088780E+04</totfact>
</mgrwt>
</event>
<event>
 4    1  0.6853809E-004  0.3213331E+03  0.7818608E-02  0.1075037E+00
          2   -1    0    0  501    0  0.00000000000E+00  0.00000000000E+00  0.59965069552E+03  0.59965069552E+03  0.25500000000E-02 0.  1.
         -2   -1    0    0    0  501 -0.00000000000E+00 -0.00000000000E+00 -0.43047954781E+02  0.43047954857E+02  0.25500000000E-02 0. -1.
    5000001    1    1    2    0    0  0.26798736539E+02  0.10951577732E+03  0.44769539445E+03  0.46805132622E+03  0.77000000000E+02 0.  0.
   -5000001    1    1    2    0    0 -0.26798736539E+02 -0.10951577732E+03  0.10890734628E+03  0.17464732416E+03  0.77000000000E+02 0.  0.
<mgrwt>
<rscale>  0 0.32133307E+03</rscale>
<asrwt>0</asrwt>
<pdfrwt beam="1">  1        2 0.85664380E-01 0.32133307E+03</pdfrwt>
<pdfrwt beam="2">  1       -2 0.61497082E-02 0.32133307E+03</pdfrwt>
<totfact> 0.78576639E+03</totfact>
</mgrwt>
</event>
<event>
 4    1  0.6853809E-004  0.3658379E+03  0.7818608E-02  0.1056296E+00
         -2   -1    0    0    0  501 -0.00000000000E+00  0.00000000000E+00  0.25924799753E+03  0.25924799754E+03  0.25500000000E-02 0. -1.
          2   -1    0    0  501    0  0.00000000000E+00 -0.00000000000E+00 -0.12906309481E+03  0.12906309483E+03  0.25500000000E-02 0.  1.
    5000001    1    1    2    0    0 -0.64467851119E+02  0.12312516118E+03  0.16129355015E+03  0.22640785866E+03  0.77000000000E+02 0.  0.
   -5000001    1    1    2    0    0  0.64467851119E+02 -0.12312516118E+03 -0.31108647426E+02  0.16190323372E+03  0.77000000000E+02 0.  0.
<mgrwt>
<rscale>  0 0.36583794E+03</rscale>
<asrwt>0</asrwt>
<pdfrwt beam="1">  1        2 0.18437585E-01 0.36583794E+03</pdfrwt>
<pdfrwt beam="2">  1       -2 0.37035428E-01 0.36583794E+03</pdfrwt>
<totfact> 0.21202077E+03</totfact>
</mgrwt>
</event>
<event>
 4    1  0.6853809E-004  0.1823830E+03  0.7818608E-02  0.1165517E+00
          2   -1    0    0  501    0  0.00000000000E+00  0.00000000000E+00  0.45326794662E+03  0.45326794663E+03  0.25500000000E-02 0.  1.
         -2   -1    0    0    0  501 -0.00000000000E+00 -0.00000000000E+00 -0.18346518603E+02  0.18346518781E+02  0.25500000000E-02 0. -1.
    5000001    1    1    2    0    0 -0.91327896688E+01  0.44760633639E+02  0.26224640686E+03  0.27710846267E+03  0.77000000000E+02 0.  0.
   -5000001    1    1    2    0    0  0.91327896688E+01 -0.44760633639E+02  0.17267502116E+03  0.19450600274E+03  0.77000000000E+02 0.  0.
<mgrwt>
<rscale>  0 0.18238299E+03</rscale>
<asrwt>0</asrwt>
<pdfrwt beam="1">  1        2 0.64752580E-01 0.18238299E+03</pdfrwt>
<pdfrwt beam="2">  1       -2 0.26209306E-02 0.18238299E+03</pdfrwt>
<totfact> 0.37400913E+04</totfact>
</mgrwt>
</event>
<event>
 4    1  0.6853809E-004  0.2018965E+03  0.7818608E-02  0.1148149E+00
         -2   -1    0    0    0  501 -0.00000000000E+00  0.00000000000E+00  0.22282101484E+02  0.22282101630E+02  0.25500000000E-02 0. -1.
          2   -1    0    0  501    0  0.00000000000E+00 -0.00000000000E+00 -0.45734254474E+03  0.45734254474E+03  0.25500000000E-02 0.  1.
    5000001    1    1    2    0    0 -0.41968954452E+02 -0.17720880008E+01 -0.33623920757E+03  0.34749149362E+03  0.77000000000E+02 0.  0.
   -5000001    1    1    2    0    0  0.41968954452E+02  0.17720880008E+01 -0.98821235683E+02  0.13213315275E+03  0.77000000000E+02 0.  0.
<mgrwt>
<rscale>  0 0.20189654E+03</rscale>
<asrwt>0</asrwt>
<pdfrwt beam="1">  1        2 0.65334644E-01 0.20189654E+03</pdfrwt>
<pdfrwt beam="2">  1       -2 0.31831576E-02 0.20189654E+03</pdfrwt>
<totfact> 0.28035097E+04</totfact>
</mgrwt>
</event>
<event>
 4    1  0.6853809E-004  0.2319420E+03  0.7818608E-02  0.1125280E+00
         -2   -1    0    0    0  501 -0.00000000000E+00  0.00000000000E+00  0.14054751090E+02  0.14054751321E+02  0.25500000000E-02 0. -1.
          2   -1    0    0  501    0  0.00000000000E+00 -0.00000000000E+00 -0.95691995041E+03  0.95691995041E+03  0.25500000000E-02 0.  1.
    5000001    1    1    2    0    0  0.83165473843E+02 -0.24445199490E+02 -0.48186309232E+03  0.49561588308E+03  0.77000000000E+02 0.  0.
   -5000001    1    1    2    0    0 -0.83165473843E+02  0.24445199490E+02 -0.46100210700E+03  0.47535881866E+03  0.77000000000E+02 0.  0.
<mgrwt>
<rscale>  0 0.23194199E+03</rscale>
<asrwt>0</asrwt>
<pdfrwt beam="1">  1        2 0.13670281E+00 0.23194199E+03</pdfrwt>
<pdfrwt beam="2">  1       -2 0.20078222E-02 0.23194199E+03</pdfrwt>
<totfact> 0.23439004E+04</totfact>
</mgrwt>
</event>
<event>
 4    1  0.6853809E-004  0.2643462E+03  0.7818608E-02  0.1104560E+00
          2   -1    0    0  501    0  0.00000000000E+00  0.00000000000E+00  0.40333379368E+03  0.40333379369E+03  0.25500000000E-02 0.  1.
         -2   -1    0    0    0  501 -0.00000000000E+00 -0.00000000000E+00 -0.43313337244E+02  0.43313337319E+02  0.25500000000E-02 0. -1.
    5000001    1    1    2    0    0 -0.60525879746E+02 -0.86668136211E+02  0.14768639296E+03  0.19726889927E+03  0.77000000000E+02 0.  0.
   -5000001    1    1    2    0    0  0.60525879746E+02  0.86668136211E+02  0.21233406348E+03  0.24937823175E+03  0.77000000000E+02 0.  0.
<mgrwt>
<rscale>  0 0.26434623E+03</rscale>
<asrwt>0</asrwt>
<pdfrwt beam="1">  1        2 0.57619115E-01 0.26434623E+03</pdfrwt>
<pdfrwt beam="2">  1       -2 0.61876194E-02 0.26434623E+03</pdfrwt>
<totfact> 0.11991566E+04</totfact>
</mgrwt>
</event>
<event>
 4    1  0.6853809E-004  0.1912315E+03  0.7818608E-02  0.1157355E+00
          2   -1    0    0  501    0  0.00000000000E+00  0.00000000000E+00  0.12872064051E+04  0.12872064051E+04  0.25500000000E-02 0.  1.
         -2   -1    0    0    0  501 -0.00000000000E+00 -0.00000000000E+00 -0.71024915036E+01  0.71024919613E+01  0.25500000000E-02 0. -1.
    5000001    1    1    2    0    0 -0.10343194695E+02 -0.50958756024E+02  0.79284079752E+03  0.79826643841E+03  0.77000000000E+02 0.  0.
   -5000001    1    1    2    0    0  0.10343194695E+02  0.50958756024E+02  0.48726311612E+03  0.49604245869E+03  0.77000000000E+02 0.  0.
<mgrwt>
<rscale>  0 0.19123151E+03</rscale>
<asrwt>0</asrwt>
<pdfrwt beam="1">  1        2 0.18388672E+00 0.19123151E+03</pdfrwt>
<pdfrwt beam="2">  1       -2 0.10146412E-02 0.19123151E+03</pdfrwt>
<totfact> 0.40886501E+04</totfact>
</mgrwt>
</event>
<event>
 4    1  0.6853809E-004  0.5697639E+03  0.7818608E-02  0.9970201E-01
          2   -1    0    0  501    0  0.00000000000E+00  0.00000000000E+00  0.28497742137E+04  0.28497742137E+04  0.25500000000E-02 0.  1.
         -2   -1    0    0    0  501 -0.00000000000E+00 -0.00000000000E+00 -0.28478651504E+02  0.28478651619E+02  0.25500000000E-02 0. -1.
    5000001    1    1    2    0    0  0.16856354946E+03 -0.13014009098E+03  0.22838487966E+04  0.22950478076E+04  0.77000000000E+02 0.  0.
   -5000001    1    1    2    0    0 -0.16856354946E+03  0.13014009098E+03  0.53744676559E+03  0.58320505771E+03  0.77000000000E+02 0.  0.
<mgrwt>
<rscale>  0 0.56976391E+03</rscale>
<asrwt>0</asrwt>
<pdfrwt beam="1">  1        2 0.40711067E+00 0.56976391E+03</pdfrwt>
<pdfrwt beam="2">  1       -2 0.40683782E-02 0.56976391E+03</pdfrwt>
<totfact> 0.85967339E+02</totfact>
</mgrwt>
</event>
<event>
 4    1  0.6853809E-004  0.4444252E+03  0.7818608E-02  0.1029398E+00
         -2   -1    0    0    0  501 -0.00000000000E+00  0.00000000000E+00  0.36959352641E+02  0.36959352729E+02  0.25500000000E-02 0.  1.
          2   -1    0    0  501    0  0.00000000000E+00 -0.00000000000E+00 -0.13360202852E+04  0.13360202852E+04  0.25500000000E-02 0. -1.
    5000001    1    1    2    0    0 -0.87911524303E+02  0.89157323779E+02 -0.13469456777E+03  0.19937174092E+03  0.77000000000E+02 0.  0.
   -5000001    1    1    2    0    0  0.87911524303E+02 -0.89157323779E+02 -0.11643663648E+04  0.11736078970E+04  0.77000000000E+02 0.  0.
<mgrwt>
<rscale>  0 0.44442522E+03</rscale>
<asrwt>0</asrwt>
<pdfrwt beam="1">  1        2 0.19086001E+00 0.44442522E+03</pdfrwt>
<pdfrwt beam="2">  1       -2 0.52799083E-02 0.44442522E+03</pdfrwt>
<totfact> 0.34231150E+03</totfact>
</mgrwt>
</event>
<event>
 4    1  0.6853809E-004  0.4058224E+03  0.7818608E-02  0.1041782E+00
          2   -1    0    0  501    0  0.00000000000E+00  0.00000000000E+00  0.53587023143E+03  0.53587023144E+03  0.25500000000E-02 0.  1.
         -2   -1    0    0    0  501 -0.00000000000E+00 -0.00000000000E+00 -0.76833816891E+02  0.76833816934E+02  0.25500000000E-02 0. -1.
    5000001    1    1    2    0    0  0.51086921647E+02 -0.16118403006E+03  0.10636399129E+03  0.21408517873E+03  0.77000000000E+02 0.  0.
   -5000001    1    1    2    0    0 -0.51086921647E+02  0.16118403006E+03  0.35267242325E+03  0.39861886964E+03  0.77000000000E+02 0.  0.
<mgrwt>
<rscale>  0 0.40582240E+03</rscale>
<asrwt>0</asrwt>
<pdfrwt beam="1">  1        2 0.76552892E-01 0.40582240E+03</pdfrwt>
<pdfrwt beam="2">  1       -2 0.10976259E-01 0.40582240E+03</pdfrwt>
<totfact> 0.36011925E+03</totfact>
</mgrwt>
</event>
<event>
 4    1  0.6853809E-004  0.2978822E+03  0.7818608E-02  0.1086304E+00
          2   -1    0    0  501    0  0.00000000000E+00  0.00000000000E+00  0.14775403605E+04  0.14775403605E+04  0.25500000000E-02 0.  1.
         -2   -1    0    0    0  501 -0.00000000000E+00 -0.00000000000E+00 -0.15013771406E+02  0.15013771623E+02  0.25500000000E-02 0. -1.
    5000001    1    1    2    0    0 -0.27302264596E+02 -0.62979604744E+02  0.19294701701E+03  0.21879075766E+03  0.77000000000E+02 0.  0.
   -5000001    1    1    2    0    0  0.27302264596E+02  0.62979604744E+02  0.12695795721E+04  0.12737633745E+04  0.77000000000E+02 0.  0.
<mgrwt>
<rscale>  0 0.29788221E+03</rscale>
<asrwt>0</asrwt>
<pdfrwt beam="1">  1        2 0.21107710E+00 0.29788221E+03</pdfrwt>
<pdfrwt beam="2">  1       -2 0.21448255E-02 0.29788221E+03</pdfrwt>
<totfact> 0.11187441E+04</totfact>
</mgrwt>
</event>
<event>
 4    1  0.6853809E-004  0.3405659E+03  0.7818608E-02  0.1066555E+00
         -2   -1    0    0    0  501 -0.00000000000E+00  0.00000000000E+00  0.52131997460E+03  0.52131997461E+03  0.25500000000E-02 0. -1.
          2   -1    0    0  501    0  0.00000000000E+00 -0.00000000000E+00 -0.55620905993E+02  0.55620906052E+02  0.25500000000E-02 0.  1.
    5000001    1    1    2    0    0 -0.85240567249E+02  0.70820344456E+02  0.56912784354E+02  0.14645661650E+03  0.77000000000E+02 0.  0.
   -5000001    1    1    2    0    0  0.85240567249E+02 -0.70820344456E+02  0.40878628425E+03  0.43048426416E+03  0.77000000000E+02 0.  0.
<mgrwt>
<rscale>  0 0.34056594E+03</rscale>
<asrwt>0</asrwt>
<pdfrwt beam="1">  1        2 0.79458434E-02 0.34056594E+03</pdfrwt>
<pdfrwt beam="2">  1       -2 0.74474285E-01 0.34056594E+03</pdfrwt>
<totfact> 0.14382588E+03</totfact>
</mgrwt>
</event>
<event>
 4    1  0.6853809E-004  0.2041337E+03  0.7818608E-02  0.1146298E+00
         -2   -1    0    0    0  501 -0.00000000000E+00  0.00000000000E+00  0.10152140949E+03  0.10152140952E+03  0.25500000000E-02 0. -1.
          2   -1    0    0  501    0  0.00000000000E+00 -0.00000000000E+00 -0.10261522743E+03  0.10261522746E+03  0.25500000000E-02 0.  1.
    5000001    1    1    2    0    0  0.46034936649E+02  0.10879042320E+02  0.46899252186E+02  0.10181408945E+03  0.77000000000E+02 0.  0.
   -5000001    1    1    2    0    0 -0.46034936649E+02 -0.10879042320E+02 -0.47993070126E+02  0.10232254754E+03  0.77000000000E+02 0.  0.
<mgrwt>
<rscale>  0 0.20413371E+03</rscale>
<asrwt>0</asrwt>
<pdfrwt beam="1">  1        2 0.14659318E-01 0.20413371E+03</pdfrwt>
<pdfrwt beam="2">  1       -2 0.14503058E-01 0.20413371E+03</pdfrwt>
<totfact> 0.14015693E+04</totfact>
</mgrwt>
</event>
<event>
 4    1  0.6853809E-004  0.2350882E+03  0.7818608E-02  0.1123109E+00
         -2   -1    0    0    0  501 -0.00000000000E+00  0.00000000000E+00  0.34370327006E+02  0.34370327101E+02  0.25500000000E-02 0. -1.
          2   -1    0    0  501    0  0.00000000000E+00 -0.00000000000E+00 -0.40199262589E+03  0.40199262590E+03  0.25500000000E-02 0.  1.
    5000001    1    1    2    0    0  0.69551384615E+02  0.55202613849E+02 -0.18065329155E+03  0.21552107885E+03  0.77000000000E+02 0.  0.
   -5000001    1    1    2    0    0 -0.69551384615E+02 -0.55202613849E+02 -0.18696900733E+03  0.22084187416E+03  0.77000000000E+02 0.  0.
<mgrwt>
<rscale>  0 0.23508822E+03</rscale>
<asrwt>0</asrwt>
<pdfrwt beam="1">  1        2 0.57427515E-01 0.23508822E+03</pdfrwt>
<pdfrwt beam="2">  1       -2 0.49100470E-02 0.23508822E+03</pdfrwt>
<totfact> 0.17016773E+04</totfact>
</mgrwt>
</event>
<event>
 4    1  0.6853809E-004  0.2106219E+03  0.7818608E-02  0.1141074E+00
          2   -1    0    0  501    0  0.00000000000E+00  0.00000000000E+00  0.10472305153E+04  0.10472305153E+04  0.25500000000E-02 0.  1.
         -2   -1    0    0    0  501 -0.00000000000E+00 -0.00000000000E+00 -0.10590214651E+02  0.10590214958E+02  0.25500000000E-02 0. -1.
    5000001    1    1    2    0    0 -0.48482731314E+02  0.47988433959E+02  0.40512939877E+03  0.41798599830E+03  0.77000000000E+02 0.  0.
   -5000001    1    1    2    0    0  0.48482731314E+02 -0.47988433959E+02  0.63151090189E+03  0.63983473197E+03  0.77000000000E+02 0.  0.
<mgrwt>
<rscale>  0 0.21062190E+03</rscale>
<asrwt>0</asrwt>
<pdfrwt beam="1">  1        2 0.14960435E+00 0.21062190E+03</pdfrwt>
<pdfrwt beam="2">  1       -2 0.15128879E-02 0.21062190E+03</pdfrwt>
<totfact> 0.31184721E+04</totfact>
</mgrwt>
</event>
<event>
 4    1  0.6853809E-004  0.1002213E+04  0.7818608E-02  0.9306121E-01
         -2   -1    0    0    0  501 -0.00000000000E+00  0.00000000000E+00  0.11121256933E+03  0.11121256936E+03  0.25500000000E-02 0. -1.
          2   -1    0    0  501    0  0.00000000000E+00 -0.00000000000E+00 -0.22579066195E+04  0.22579066195E+04  0.25500000000E-02 0.  1.
    5000001    1    1    2    0    0  0.10690019114E+03 -0.44505248985E+03 -0.62683340896E+03  0.77996698147E+03  0.77000000000E+02 0.  0.
   -5000001    1    1    2    0    0 -0.10690019114E+03  0.44505248985E+03 -0.15198606412E+04  0.15891522074E+04  0.77000000000E+02 0.  0.
<mgrwt>
<rscale>  0 0.10022127E+04</rscale>
<asrwt>0</asrwt>
<pdfrwt beam="1">  1        2 0.32255806E+00 0.10022127E+04</pdfrwt>
<pdfrwt beam="2">  1       -2 0.15887511E-01 0.10022127E+04</pdfrwt>
<totfact> 0.18862928E+02</totfact>
</mgrwt>
</event>
<event>
 4    1  0.6853809E-004  0.2370822E+03  0.7818608E-02  0.1121752E+00
         -2   -1    0    0    0  501 -0.00000000000E+00  0.00000000000E+00  0.45289655377E+01  0.45289662556E+01  0.25500000000E-02 0. -1.
          2   -1    0    0  501    0  0.00000000000E+00 -0.00000000000E+00 -0.31026925036E+04  0.31026925036E+04  0.25500000000E-02 0.  1.
    5000001    1    1    2    0    0 -0.54463623362E+02 -0.63105559856E+02 -0.10999439761E+04  0.11057822338E+04  0.77000000000E+02 0.  0.
   -5000001    1    1    2    0    0  0.54463623362E+02  0.63105559856E+02 -0.19982195620E+04  0.20014392361E+04  0.77000000000E+02 0.  0.
<mgrwt>
<rscale>  0 0.23708217E+03</rscale>
<asrwt>0</asrwt>
<pdfrwt beam="1">  1        2 0.44324042E+00 0.23708217E+03</pdfrwt>
<pdfrwt beam="2">  1       -2 0.64699712E-03 0.23708217E+03</pdfrwt>
<totfact> 0.98003172E+03</totfact>
</mgrwt>
</event>
<event>
 4    1  0.6853809E-004  0.2231670E+03  0.7818608E-02  0.1131544E+00
          2   -1    0    0  501    0  0.00000000000E+00  0.00000000000E+00  0.13176935800E+04  0.13176935800E+04  0.25500000000E-02 0.  1.
         -2   -1    0    0    0  501 -0.00000000000E+00 -0.00000000000E+00 -0.94489967762E+01  0.94489971203E+01  0.25500000000E-02 0. -1.
    5000001    1    1    2    0    0 -0.42246712440E+02 -0.47964523315E+02  0.36057982451E+03  0.37420875198E+03  0.77000000000E+02 0.  0.
   -5000001    1    1    2    0    0  0.42246712440E+02  0.47964523315E+02  0.94766475876E+03  0.95293382519E+03  0.77000000000E+02 0.  0.
<mgrwt>
<rscale>  0 0.22316705E+03</rscale>
<asrwt>0</asrwt>
<pdfrwt beam="1">  1        2 0.18824172E+00 0.22316705E+03</pdfrwt>
<pdfrwt beam="2">  1       -2 0.13498583E-02 0.22316705E+03</pdfrwt>
<totfact> 0.26337076E+04</totfact>
</mgrwt>
</event>
<event>
 4    1  0.6853809E-004  0.2763328E+03  0.7818608E-02  0.1097709E+00
         -2   -1    0    0    0  501 -0.00000000000E+00  0.00000000000E+00  0.62557193469E+03  0.62557193469E+03  0.25500000000E-02 0. -1.
          2   -1    0    0  501    0  0.00000000000E+00 -0.00000000000E+00 -0.30516009763E+02  0.30516009869E+02  0.25500000000E-02 0.  1.
    5000001    1    1    2    0    0 -0.11456811400E+03 -0.24629938435E+01  0.28473328017E+03  0.31643950436E+03  0.77000000000E+02 0.  0.
   -5000001    1    1    2    0    0  0.11456811400E+03  0.24629938435E+01  0.31032264475E+03  0.33964844020E+03  0.77000000000E+02 0.  0.
<mgrwt>
<rscale>  0 0.27633284E+03</rscale>
<asrwt>0</asrwt>
<pdfrwt beam="1">  1        2 0.43594305E-02 0.27633284E+03</pdfrwt>
<pdfrwt beam="2">  1       -2 0.89367409E-01 0.27633284E+03</pdfrwt>
<totfact> 0.20953636E+03</totfact>
</mgrwt>
</event>
<event>
 4    1  0.6853809E-004  0.3358912E+03  0.7818608E-02  0.1068560E+00
         -2   -1    0    0    0  501 -0.00000000000E+00  0.00000000000E+00  0.29716391885E+02  0.29716391994E+02  0.25500000000E-02 0. -1.
          2   -1    0    0  501    0  0.00000000000E+00 -0.00000000000E+00 -0.94916398905E+03  0.94916398906E+03  0.25500000000E-02 0.  1.
    5000001    1    1    2    0    0  0.58735524852E+02 -0.11680271815E+03 -0.66955165115E+03  0.68652833183E+03  0.77000000000E+02 0.  0.
   -5000001    1    1    2    0    0 -0.58735524852E+02  0.11680271815E+03 -0.24989594601E+03  0.29235204922E+03  0.77000000000E+02 0.  0.
<mgrwt>
<rscale>  0 0.33589123E+03</rscale>
<asrwt>0</asrwt>
<pdfrwt beam="1">  1        2 0.13559484E+00 0.33589123E+03</pdfrwt>
<pdfrwt beam="2">  1       -2 0.42451994E-02 0.33589123E+03</pdfrwt>
<totfact> 0.78829335E+03</totfact>
</mgrwt>
</event>
<event>
 4    1  0.6853809E-004  0.2367249E+03  0.7818608E-02  0.1121994E+00
          2   -1    0    0  501    0  0.00000000000E+00  0.00000000000E+00  0.21747243059E+02  0.21747243209E+02  0.25500000000E-02 0.  1.
         -2   -1    0    0    0  501 -0.00000000000E+00 -0.00000000000E+00 -0.64420424492E+03  0.64420424493E+03  0.25500000000E-02 0. -1.
    5000001    1    1    2    0    0 -0.89618709324E+02 -0.17392914714E+01 -0.29212197537E+03  0.31511709996E+03  0.77000000000E+02 0.  0.
   -5000001    1    1    2    0    0  0.89618709324E+02  0.17392914714E+01 -0.33033502649E+03  0.35083438817E+03  0.77000000000E+02 0.  0.
<mgrwt>
<rscale>  0 0.23672487E+03</rscale>
<asrwt>0</asrwt>
<pdfrwt beam="1">  1        2 0.31067494E-02 0.23672487E+03</pdfrwt>
<pdfrwt beam="2">  1       -2 0.92029166E-01 0.23672487E+03</pdfrwt>
<totfact> 0.30740290E+03</totfact>
</mgrwt>
</event>
<event>
 4    1  0.6853809E-004  0.2515431E+03  0.7818608E-02  0.1112334E+00
         -2   -1    0    0    0  501 -0.00000000000E+00  0.00000000000E+00  0.47179267490E+03  0.47179267491E+03  0.25500000000E-02 0. -1.
          2   -1    0    0  501    0  0.00000000000E+00 -0.00000000000E+00 -0.33528450743E+02  0.33528450840E+02  0.25500000000E-02 0.  1.
    5000001    1    1    2    0    0  0.73872037163E+01  0.98634494876E+02  0.19843541408E+03  0.23471034898E+03  0.77000000000E+02 0.  0.
   -5000001    1    1    2    0    0 -0.73872037163E+01 -0.98634494876E+02  0.23982881007E+03  0.27061077676E+03  0.77000000000E+02 0.  0.
<mgrwt>
<rscale>  0 0.25154306E+03</rscale>
<asrwt>0</asrwt>
<pdfrwt beam="1">  1        2 0.47897788E-02 0.25154306E+03</pdfrwt>
<pdfrwt beam="2">  1       -2 0.67398952E-01 0.25154306E+03</pdfrwt>
<totfact> 0.34177529E+03</totfact>
</mgrwt>
</event>
<event>
 4    1  0.6853809E-004  0.1809966E+03  0.7818608E-02  0.1166842E+00
          2   -1    0    0  501    0  0.00000000000E+00  0.00000000000E+00  0.13795458531E+04  0.13795458531E+04  0.25500000000E-02 0.  1.
         -2   -1    0    0    0  501 -0.00000000000E+00 -0.00000000000E+00 -0.59366963399E+01  0.59366968876E+01  0.25500000000E-02 0. -1.
    5000001    1    1    2    0    0  0.92030095210E+01  0.46638014487E+02  0.67861214989E+03  0.68461905448E+03  0.77000000000E+02 0.  0.
   -5000001    1    1    2    0    0 -0.92030095210E+01 -0.46638014487E+02  0.69499700690E+03  0.70086349554E+03  0.77000000000E+02 0.  0.
<mgrwt>
<rscale>  0 0.18099663E+03</rscale>
<asrwt>0</asrwt>
<pdfrwt beam="1">  1        2 0.19707786E+00 0.18099663E+03</pdfrwt>
<pdfrwt beam="2">  1       -2 0.84810003E-03 0.18099663E+03</pdfrwt>
<totfact> 0.47230734E+04</totfact>
</mgrwt>
</event>
<event>
 4    1  0.6853809E-004  0.1995467E+03  0.7818608E-02  0.1150122E+00
          2   -1    0    0  501    0  0.00000000000E+00  0.00000000000E+00  0.24247293502E+03  0.24247293503E+03  0.25500000000E-02 0.  1.
         -2   -1    0    0    0  501 -0.00000000000E+00 -0.00000000000E+00 -0.41054998376E+02  0.41054998455E+02  0.25500000000E-02 0. -1.
    5000001    1    1    2    0    0 -0.43221452236E+02 -0.19734864030E+02  0.40962413966E+02  0.99320079287E+02  0.77000000000E+02 0.  0.
   -5000001    1    1    2    0    0  0.43221452236E+02  0.19734864030E+02  0.16045552268E+03  0.18420785420E+03  0.77000000000E+02 0.  0.
<mgrwt>
<rscale>  0 0.19954675E+03</rscale>
<asrwt>0</asrwt>
<pdfrwt beam="1">  1        2 0.34638989E-01 0.19954675E+03</pdfrwt>
<pdfrwt beam="2">  1       -2 0.58650001E-02 0.19954675E+03</pdfrwt>
<totfact> 0.22103671E+04</totfact>
</mgrwt>
</event>
<event>
 4    1  0.6853809E-004  0.2670093E+03  0.7818608E-02  0.1103004E+00
         -2   -1    0    0    0  501 -0.00000000000E+00  0.00000000000E+00  0.79548827727E+01  0.79548831814E+01  0.25500000000E-02 0. -1.
          2   -1    0    0  501    0  0.00000000000E+00 -0.00000000000E+00 -0.22405732038E+04  0.22405732038E+04  0.25500000000E-02 0.  1.
    5000001    1    1    2    0    0 -0.84478764190E+02  0.10689794520E+02 -0.54246021473E+03  0.55447544389E+03  0.77000000000E+02 0.  0.
   -5000001    1    1    2    0    0  0.84478764190E+02 -0.10689794520E+02 -0.16901581063E+04  0.16940526431E+04  0.77000000000E+02 0.  0.
<mgrwt>
<rscale>  0 0.26700935E+03</rscale>
<asrwt>0</asrwt>
<pdfrwt beam="1">  1        2 0.32008148E+00 0.26700935E+03</pdfrwt>
<pdfrwt beam="2">  1       -2 0.11364133E-02 0.26700935E+03</pdfrwt>
<totfact> 0.11918684E+04</totfact>
</mgrwt>
</event>
<event>
 4    1  0.6853809E-004  0.1873625E+03  0.7818608E-02  0.1160862E+00
          2   -1    0    0  501    0  0.00000000000E+00  0.00000000000E+00  0.59965980740E+03  0.59965980741E+03  0.25500000000E-02 0.  1.
         -2   -1    0    0    0  501 -0.00000000000E+00 -0.00000000000E+00 -0.14635257923E+02  0.14635258146E+02  0.25500000000E-02 0. -1.
    5000001    1    1    2    0    0  0.41346491700E+00 -0.38842664344E+02  0.41245209643E+03  0.42137234766E+03  0.77000000000E+02 0.  0.
   -5000001    1    1    2    0    0 -0.41346491700E+00  0.38842664344E+02  0.17257245305E+03  0.19292271789E+03  0.77000000000E+02 0.  0.
<mgrwt>
<rscale>  0 0.18736249E+03</rscale>
<asrwt>0</asrwt>
<pdfrwt beam="1">  1        2 0.85665676E-01 0.18736249E+03</pdfrwt>
<pdfrwt beam="2">  1       -2 0.20907514E-02 0.18736249E+03</pdfrwt>
<totfact> 0.38347909E+04</totfact>
</mgrwt>
</event>
<event>
 4    1  0.6853809E-004  0.3932784E+03  0.7818608E-02  0.1046132E+00
         -2   -1    0    0    0  501 -0.00000000000E+00  0.00000000000E+00  0.37225560886E+02  0.37225560974E+02  0.25500000000E-02 0. -1.
          2   -1    0    0  501    0  0.00000000000E+00 -0.00000000000E+00 -0.10387209083E+04  0.10387209083E+04  0.25500000000E-02 0.  1.
    5000001    1    1    2    0    0 -0.10870300728E+03  0.12721058643E+03 -0.68908575785E+03  0.71327908897E+03  0.77000000000E+02 0.  0.
   -5000001    1    1    2    0    0  0.10870300728E+03 -0.12721058643E+03 -0.31240958960E+03  0.36266738034E+03  0.77000000000E+02 0.  0.
<mgrwt>
<rscale>  0 0.39327837E+03</rscale>
<asrwt>0</asrwt>
<pdfrwt beam="1">  1        2 0.14838868E+00 0.39327837E+03</pdfrwt>
<pdfrwt beam="2">  1       -2 0.53179379E-02 0.39327837E+03</pdfrwt>
<totfact> 0.49519145E+03</totfact>
</mgrwt>
</event>
<event>
 4    1  0.6853809E-004  0.2232874E+03  0.7818608E-02  0.1131456E+00
         -2   -1    0    0    0  501 -0.00000000000E+00  0.00000000000E+00  0.57605364838E+01  0.57605370482E+01  0.25500000000E-02 0. -1.
          2   -1    0    0  501    0  0.00000000000E+00 -0.00000000000E+00 -0.21637423684E+04  0.21637423684E+04  0.25500000000E-02 0.  1.
    5000001    1    1    2    0    0 -0.18884596677E+02 -0.78540750047E+02 -0.10482041461E+04  0.10541281750E+04  0.77000000000E+02 0.  0.
   -5000001    1    1    2    0    0  0.18884596677E+02  0.78540750047E+02 -0.11097776859E+04  0.11153747305E+04  0.77000000000E+02 0.  0.
<mgrwt>
<rscale>  0 0.22328742E+03</rscale>
<asrwt>0</asrwt>
<pdfrwt beam="1">  1        2 0.30910553E+00 0.22328742E+03</pdfrwt>
<pdfrwt beam="2">  1       -2 0.82293521E-03 0.22328742E+03</pdfrwt>
<totfact> 0.20637631E+04</totfact>
</mgrwt>
</event>
<event>
 4    1  0.6853809E-004  0.1698912E+03  0.7818608E-02  0.1177961E+00
          2   -1    0    0  501    0  0.00000000000E+00  0.00000000000E+00  0.15224426234E+04  0.15224426234E+04  0.25500000000E-02 0.  1.
         -2   -1    0    0    0  501 -0.00000000000E+00 -0.00000000000E+00 -0.47395876245E+01  0.47395883105E+01  0.25500000000E-02 0. -1.
    5000001    1    1    2    0    0  0.33855242496E+02  0.62204827764E+01  0.84958387769E+03  0.85376029252E+03  0.77000000000E+02 0.  0.
   -5000001    1    1    2    0    0 -0.33855242496E+02 -0.62204827764E+01  0.66811915810E+03  0.67342191921E+03  0.77000000000E+02 0.  0.
<mgrwt>
<rscale>  0 0.16989115E+03</rscale>
<asrwt>0</asrwt>
<pdfrwt beam="1">  1        2 0.21749149E+00 0.16989115E+03</pdfrwt>
<pdfrwt beam="2">  1       -2 0.67708497E-03 0.16989115E+03</pdfrwt>
<totfact> 0.55022518E+04</totfact>
</mgrwt>
</event>
<event>
 4    1  0.6853809E-004  0.2007608E+03  0.7818608E-02  0.1149099E+00
         -2   -1    0    0    0  501 -0.00000000000E+00  0.00000000000E+00  0.43009054224E+01  0.43009061784E+01  0.25500000000E-02 0. -1.
          2   -1    0    0  501    0  0.00000000000E+00 -0.00000000000E+00 -0.23428137242E+04  0.23428137242E+04  0.25500000000E-02 0.  1.
    5000001    1    1    2    0    0  0.44579139973E+02  0.33823044158E+02 -0.15418933263E+04  0.15448285755E+04  0.77000000000E+02 0.  0.
   -5000001    1    1    2    0    0 -0.44579139973E+02 -0.33823044158E+02 -0.79661949251E+03  0.80228605490E+03  0.77000000000E+02 0.  0.
<mgrwt>
<rscale>  0 0.20076076E+03</rscale>
<asrwt>0</asrwt>
<pdfrwt beam="1">  1        2 0.33468686E+00 0.20076076E+03</pdfrwt>
<pdfrwt beam="2">  1       -2 0.61441661E-03 0.20076076E+03</pdfrwt>
<totfact> 0.25599433E+04</totfact>
</mgrwt>
</event>
<event>
 4    1  0.6853809E-004  0.5588666E+03  0.7818608E-02  0.9994623E-01
          2   -1    0    0  501    0  0.00000000000E+00  0.00000000000E+00  0.14231460513E+04  0.14231460513E+04  0.25500000000E-02 0.  1.
         -2   -1    0    0    0  501 -0.00000000000E+00 -0.00000000000E+00 -0.54866438794E+02  0.54866438853E+02  0.25500000000E-02 0. -1.
    5000001    1    1    2    0    0  0.23099042467E+03 -0.13155099810E+03  0.58199581504E+03  0.64444578523E+03  0.77000000000E+02 0.  0.
   -5000001    1    1    2    0    0 -0.23099042467E+03  0.13155099810E+03  0.78628379747E+03  0.83356670492E+03  0.77000000000E+02 0.  0.
<mgrwt>
<rscale>  0 0.55886655E+03</rscale>
<asrwt>0</asrwt>
<pdfrwt beam="1">  1        2 0.20330657E+00 0.55886655E+03</pdfrwt>
<pdfrwt beam="2">  1       -2 0.78380631E-02 0.55886655E+03</pdfrwt>
<totfact> 0.16551620E+03</totfact>
</mgrwt>
</event>
<event>
 4    1  0.6853809E-004  0.2829558E+03  0.7818608E-02  0.1094085E+00
          2   -1    0    0  501    0  0.00000000000E+00  0.00000000000E+00  0.31224613309E+02  0.31224613413E+02  0.25500000000E-02 0.  1.
         -2   -1    0    0    0  501 -0.00000000000E+00 -0.00000000000E+00 -0.64103265531E+03  0.64103265532E+03  0.25500000000E-02 0. -1.
    5000001    1    1    2    0    0 -0.94005547849E+02  0.68805476636E+02 -0.25094788981E+03  0.28718474897E+03  0.77000000000E+02 0.  0.
   -5000001    1    1    2    0    0  0.94005547849E+02 -0.68805476636E+02 -0.35886015219E+03  0.38507251975E+03  0.77000000000E+02 0.  0.
<mgrwt>
<rscale>  0 0.28295580E+03</rscale>
<asrwt>0</asrwt>
<pdfrwt beam="1">  1        2 0.44606595E-02 0.28295580E+03</pdfrwt>
<pdfrwt beam="2">  1       -2 0.91576085E-01 0.28295580E+03</pdfrwt>
<totfact> 0.19241509E+03</totfact>
</mgrwt>
</event>
<event>
 4    1  0.6853809E-004  0.2034456E+03  0.7818608E-02  0.1146864E+00
         -2   -1    0    0    0  501 -0.00000000000E+00  0.00000000000E+00  0.10801518712E+02  0.10801519013E+02  0.25500000000E-02 0. -1.
          2   -1    0    0  501    0  0.00000000000E+00 -0.00000000000E+00 -0.95796988520E+03  0.95796988520E+03  0.25500000000E-02 0.  1.
    5000001    1    1    2    0    0 -0.55304676589E+01  0.46563311307E+02 -0.24923211993E+03  0.26503655906E+03  0.77000000000E+02 0.  0.
   -5000001    1    1    2    0    0  0.55304676589E+01 -0.46563311307E+02 -0.69793624656E+03  0.70373484516E+03  0.77000000000E+02 0.  0.
<mgrwt>
<rscale>  0 0.20344562E+03</rscale>
<asrwt>0</asrwt>
<pdfrwt beam="1">  1        2 0.13685279E+00 0.20344562E+03</pdfrwt>
<pdfrwt beam="2">  1       -2 0.15430747E-02 0.20344562E+03</pdfrwt>
<totfact> 0.34086535E+04</totfact>
</mgrwt>
</event>
<event>
 4    1  0.6853809E-004  0.1712797E+03  0.7818608E-02  0.1176520E+00
          2   -1    0    0  501    0  0.00000000000E+00  0.00000000000E+00  0.10408636710E+03  0.10408636713E+03  0.25500000000E-02 0.  1.
         -2   -1    0    0    0  501 -0.00000000000E+00 -0.00000000000E+00 -0.70462448512E+02  0.70462448558E+02  0.25500000000E-02 0. -1.
    5000001    1    1    2    0    0  0.34219097117E+02 -0.13613486628E+02  0.96851499691E+01  0.85901546875E+02  0.77000000000E+02 0.  0.
   -5000001    1    1    2    0    0 -0.34219097117E+02  0.13613486628E+02  0.23938768622E+02  0.88647268818E+02  0.77000000000E+02 0.  0.
<mgrwt>
<rscale>  0 0.17127966E+03</rscale>
<asrwt>0</asrwt>
<pdfrwt beam="1">  1        2 0.14869481E-01 0.17127966E+03</pdfrwt>
<pdfrwt beam="2">  1       -2 0.10066064E-01 0.17127966E+03</pdfrwt>
<totfact> 0.24436543E+04</totfact>
</mgrwt>
</event>
<event>
 4    1  0.6853809E-004  0.1653358E+03  0.7818608E-02  0.1182801E+00
         -2   -1    0    0    0  501 -0.00000000000E+00  0.00000000000E+00  0.21630257045E+02  0.21630257195E+02  0.25500000000E-02 0. -1.
          2   -1    0    0  501    0  0.00000000000E+00 -0.00000000000E+00 -0.31594541712E+03  0.31594541713E+03  0.25500000000E-02 0.  1.
    5000001    1    1    2    0    0  0.64349720188E+01 -0.29346002840E+02 -0.14400515323E+03  0.16603939564E+03  0.77000000000E+02 0.  0.
   -5000001    1    1    2    0    0 -0.64349720188E+01  0.29346002840E+02 -0.15031000685E+03  0.17153627869E+03  0.77000000000E+02 0.  0.
<mgrwt>
<rscale>  0 0.16533579E+03</rscale>
<asrwt>0</asrwt>
<pdfrwt beam="1">  1        2 0.45135057E-01 0.16533579E+03</pdfrwt>
<pdfrwt beam="2">  1       -2 0.30900369E-02 0.16533579E+03</pdfrwt>
<totfact> 0.42772211E+04</totfact>
</mgrwt>
</event>
<event>
 4    1  0.6853809E-004  0.2698987E+03  0.7818608E-02  0.1101338E+00
          2   -1    0    0  501    0  0.00000000000E+00  0.00000000000E+00  0.93427714899E+03  0.93427714899E+03  0.25500000000E-02 0.  1.
         -2   -1    0    0    0  501 -0.00000000000E+00 -0.00000000000E+00 -0.19492421363E+02  0.19492421530E+02  0.25500000000E-02 0. -1.
    5000001    1    1    2    0    0 -0.85533074284E+02 -0.70447367051E+02  0.45070084476E+03  0.47046677862E+03  0.77000000000E+02 0.  0.
   -5000001    1    1    2    0    0  0.85533074284E+02  0.70447367051E+02  0.46408388287E+03  0.48330279190E+03  0.77000000000E+02 0.  0.
<mgrwt>
<rscale>  0 0.26989868E+03</rscale>
<asrwt>0</asrwt>
<pdfrwt beam="1">  1        2 0.13346816E+00 0.26989868E+03</pdfrwt>
<pdfrwt beam="2">  1       -2 0.27846316E-02 0.26989868E+03</pdfrwt>
<totfact> 0.15043516E+04</totfact>
</mgrwt>
</event>
<event>
 4    1  0.6853809E-004  0.2398463E+03  0.7818608E-02  0.1119895E+00
         -2   -1    0    0    0  501 -0.00000000000E+00  0.00000000000E+00  0.18296675794E+02  0.18296675971E+02  0.25500000000E-02 0. -1.
          2   -1    0    0  501    0  0.00000000000E+00 -0.00000000000E+00 -0.78602018318E+03  0.78602018318E+03  0.25500000000E-02 0.  1.
    5000001    1    1    2    0    0  0.30794514129E+02 -0.84115390729E+02 -0.45330814912E+03  0.46844527868E+03  0.77000000000E+02 0.  0.
   -5000001    1    1    2    0    0 -0.30794514129E+02  0.84115390729E+02 -0.31441535827E+03  0.33587158048E+03  0.77000000000E+02 0.  0.
<mgrwt>
<rscale>  0 0.23984626E+03</rscale>
<asrwt>0</asrwt>
<pdfrwt beam="1">  1        2 0.11228858E+00 0.23984626E+03</pdfrwt>
<pdfrwt beam="2">  1       -2 0.26138113E-02 0.23984626E+03</pdfrwt>
<totfact> 0.20455238E+04</totfact>
</mgrwt>
</event>
<event>
 4    1  0.6853809E-004  0.2051959E+03  0.7818608E-02  0.1145428E+00
          2   -1    0    0  501    0  0.00000000000E+00  0.00000000000E+00  0.64793914616E+02  0.64793914666E+02  0.25500000000E-02 0.  1.
         -2   -1    0    0    0  501 -0.00000000000E+00 -0.00000000000E+00 -0.16245882756E+03  0.16245882758E+03  0.25500000000E-02 0. -1.
    5000001    1    1    2    0    0 -0.50403942535E+02  0.21727984968E+02 -0.47453853423E+01  0.94679361193E+02  0.77000000000E+02 0.  0.
   -5000001    1    1    2    0    0  0.50403942535E+02 -0.21727984968E+02 -0.92919527602E+02  0.13257338105E+03  0.77000000000E+02 0.  0.
<mgrwt>
<rscale>  0 0.20519594E+03</rscale>
<asrwt>0</asrwt>
<pdfrwt beam="1">  1        2 0.92562736E-02 0.20519594E+03</pdfrwt>
<pdfrwt beam="2">  1       -2 0.23208404E-01 0.20519594E+03</pdfrwt>
<totfact> 0.11098551E+04</totfact>
</mgrwt>
</event>
<event>
 4    1  0.6853809E-004  0.3278146E+03  0.7818608E-02  0.1072108E+00
          2   -1    0    0  501    0  0.00000000000E+00  0.00000000000E+00  0.10327897712E+04  0.10327897712E+04  0.25500000000E-02 0.  1.
         -2   -1    0    0    0  501 -0.00000000000E+00 -0.00000000000E+00 -0.26012651036E+02  0.26012651161E+02  0.25500000000E-02 0. -1.
    5000001    1    1    2    0    0 -0.11951305871E+03 -0.59277694019E+02  0.68435950870E+03  0.70147997360E+03  0.77000000000E+02 0.  0.
   -5000001    1    1    2    0    0  0.11951305871E+03  0.59277694019E+02  0.32241761146E+03  0.35732244876E+03  0.77000000000E+02 0.  0.
<mgrwt>
<rscale>  0 0.32781458E+03</rscale>
<asrwt>0</asrwt>
<pdfrwt beam="1">  1        2 0.14754138E+00 0.32781458E+03</pdfrwt>
<pdfrwt beam="2">  1       -2 0.37160935E-02 0.32781458E+03</pdfrwt>
<totfact> 0.85863310E+03</totfact>
</mgrwt>
</event>
<event>
 4    1  0.6853809E-004  0.2239117E+03  0.7818608E-02  0.1131000E+00
         -2   -1    0    0    0  501 -0.00000000000E+00  0.00000000000E+00  0.96110059408E+02  0.96110059442E+02  0.25500000000E-02 0. -1.
          2   -1    0    0  501    0  0.00000000000E+00 -0.00000000000E+00 -0.13041410300E+03  0.13041410303E+03  0.25500000000E-02 0.  1.
    5000001    1    1    2    0    0 -0.68467889320E+01 -0.80925801993E+02 -0.20227765323E+02  0.11372786130E+03  0.77000000000E+02 0.  0.
   -5000001    1    1    2    0    0  0.68467889320E+01  0.80925801993E+02 -0.14076278272E+02  0.11279630117E+03  0.77000000000E+02 0.  0.
<mgrwt>
<rscale>  0 0.22391165E+03</rscale>
<asrwt>0</asrwt>
<pdfrwt beam="1">  1        2 0.18630586E-01 0.22391165E+03</pdfrwt>
<pdfrwt beam="2">  1       -2 0.13730009E-01 0.22391165E+03</pdfrwt>
<totfact> 0.11658793E+04</totfact>
</mgrwt>
</event>
<event>
 4    1  0.6853809E-004  0.2535301E+03  0.7818608E-02  0.1111094E+00
         -2   -1    0    0    0  501 -0.00000000000E+00  0.00000000000E+00  0.13091865410E+02  0.13091865659E+02  0.25500000000E-02 0. -1.
          2   -1    0    0  501    0  0.00000000000E+00 -0.00000000000E+00 -0.12274319071E+04  0.12274319071E+04  0.25500000000E-02 0.  1.
    5000001    1    1    2    0    0 -0.49062189199E+02  0.74265554036E+02 -0.83760417774E+03  0.84583227030E+03  0.77000000000E+02 0.  0.
   -5000001    1    1    2    0    0  0.49062189199E+02 -0.74265554036E+02 -0.37673586400E+03  0.39469150250E+03  0.77000000000E+02 0.  0.
<mgrwt>
<rscale>  0 0.25353007E+03</rscale>
<asrwt>0</asrwt>
<pdfrwt beam="1">  1        2 0.17534734E+00 0.25353007E+03</pdfrwt>
<pdfrwt beam="2">  1       -2 0.18702673E-02 0.25353007E+03</pdfrwt>
<totfact> 0.18375926E+04</totfact>
</mgrwt>
</event>
<event>
 4    1  0.6853809E-004  0.2327619E+03  0.7818608E-02  0.1124711E+00
          2   -1    0    0  501    0  0.00000000000E+00  0.00000000000E+00  0.51917196085E+03  0.51917196086E+03  0.25500000000E-02 0.  1.
         -2   -1    0    0    0  501 -0.00000000000E+00 -0.00000000000E+00 -0.26088708179E+02  0.26088708303E+02  0.25500000000E-02 0. -1.
    5000001    1    1    2    0    0 -0.57776770260E+02  0.64698935397E+02  0.26893961739E+03  0.29288500341E+03  0.77000000000E+02 0.  0.
   -5000001    1    1    2    0    0  0.57776770260E+02 -0.64698935397E+02  0.22414363529E+03  0.25237566575E+03  0.77000000000E+02 0.  0.
<mgrwt>
<rscale>  0 0.23276190E+03</rscale>
<asrwt>0</asrwt>
<pdfrwt beam="1">  1        2 0.74167422E-01 0.23276190E+03</pdfrwt>
<pdfrwt beam="2">  1       -2 0.37269584E-02 0.23276190E+03</pdfrwt>
<totfact> 0.19481602E+04</totfact>
</mgrwt>
</event>
<event>
 4    1  0.6853809E-004  0.2512733E+03  0.7818608E-02  0.1112503E+00
         -2   -1    0    0    0  501 -0.00000000000E+00  0.00000000000E+00  0.13794139290E+02  0.13794139525E+02  0.25500000000E-02 0. -1.
          2   -1    0    0  501    0  0.00000000000E+00 -0.00000000000E+00 -0.11442952585E+04  0.11442952585E+04  0.25500000000E-02 0.  1.
    5000001    1    1    2    0    0 -0.79614430151E+02  0.20016298808E+02 -0.82254263940E+03  0.83020750620E+03  0.77000000000E+02 0.  0.
   -5000001    1    1    2    0    0  0.79614430151E+02 -0.20016298808E+02 -0.30795847979E+03  0.32788189182E+03  0.77000000000E+02 0.  0.
<mgrwt>
<rscale>  0 0.25127330E+03</rscale>
<asrwt>0</asrwt>
<pdfrwt beam="1">  1        2 0.16347069E+00 0.25127330E+03</pdfrwt>
<pdfrwt beam="2">  1       -2 0.19705921E-02 0.25127330E+03</pdfrwt>
<totfact> 0.18880022E+04</totfact>
</mgrwt>
</event>
<event>
 4    1  0.6853809E-004  0.3871056E+03  0.7818608E-02  0.1048338E+00
         -2   -1    0    0    0  501 -0.00000000000E+00  0.00000000000E+00  0.12726632794E+02  0.12726633050E+02  0.25500000000E-02 0. -1.
          2   -1    0    0  501    0  0.00000000000E+00 -0.00000000000E+00 -0.29436448518E+04  0.29436448518E+04  0.25500000000E-02 0.  1.
    5000001    1    1    2    0    0  0.42013736841E+02 -0.13282503283E+03 -0.23064457855E+04  0.23119318340E+04  0.77000000000E+02 0.  0.
   -5000001    1    1    2    0    0 -0.42013736841E+02  0.13282503283E+03 -0.62447243347E+03  0.64443965086E+03  0.77000000000E+02 0.  0.
<mgrwt>
<rscale>  0 0.38710561E+03</rscale>
<asrwt>0</asrwt>
<pdfrwt beam="1">  1        2 0.42052026E+00 0.38710561E+03</pdfrwt>
<pdfrwt beam="2">  1       -2 0.18180923E-02 0.38710561E+03</pdfrwt>
<totfact> 0.26202257E+03</totfact>
</mgrwt>
</event>
<event>
 4    1  0.6853809E-004  0.2080819E+03  0.7818608E-02  0.1143094E+00
         -2   -1    0    0    0  501 -0.00000000000E+00  0.00000000000E+00  0.22968543535E+02  0.22968543676E+02  0.25500000000E-02 0. -1.
          2   -1    0    0  501    0  0.00000000000E+00 -0.00000000000E+00 -0.47127589148E+03  0.47127589149E+03  0.25500000000E-02 0.  1.
    5000001    1    1    2    0    0  0.51230612106E+02  0.45839649104E+02 -0.25509310417E+03  0.27518601135E+03  0.77000000000E+02 0.  0.
   -5000001    1    1    2    0    0 -0.51230612106E+02 -0.45839649104E+02 -0.19321424377E+03  0.21905842381E+03  0.77000000000E+02 0.  0.
<mgrwt>
<rscale>  0 0.20808192E+03</rscale>
<asrwt>0</asrwt>
<pdfrwt beam="1">  1        2 0.67325121E-01 0.20808192E+03</pdfrwt>
<pdfrwt beam="2">  1       -2 0.32812208E-02 0.20808192E+03</pdfrwt>
<totfact> 0.25998451E+04</totfact>
</mgrwt>
</event>
<event>
 4    1  0.6853809E-004  0.2123899E+03  0.7818608E-02  0.1139687E+00
          2   -1    0    0  501    0  0.00000000000E+00  0.00000000000E+00  0.50104004502E+02  0.50104004567E+02  0.25500000000E-02 0.  1.
         -2   -1    0    0    0  501 -0.00000000000E+00 -0.00000000000E+00 -0.22507923358E+03  0.22507923359E+03  0.25500000000E-02 0. -1.
    5000001    1    1    2    0    0 -0.36308137151E+02 -0.57148824419E+02 -0.12330251207E+03  0.16036451739E+03  0.77000000000E+02 0.  0.
   -5000001    1    1    2    0    0  0.36308137151E+02  0.57148824419E+02 -0.51672717010E+02  0.11481872077E+03  0.77000000000E+02 0.  0.
<mgrwt>
<rscale>  0 0.21238993E+03</rscale>
<asrwt>0</asrwt>
<pdfrwt beam="1">  1        2 0.71577151E-02 0.21238993E+03</pdfrwt>
<pdfrwt beam="2">  1       -2 0.32154176E-01 0.21238993E+03</pdfrwt>
<totfact> 0.86072573E+03</totfact>
</mgrwt>
</event>
<event>
 4    1  0.6853809E-004  0.7848072E+03  0.7818608E-02  0.9582272E-01
         -2   -1    0    0    0  501 -0.00000000000E+00  0.00000000000E+00  0.16768493644E+03  0.16768493646E+03  0.25500000000E-02 0. -1.
          2   -1    0    0  501    0  0.00000000000E+00 -0.00000000000E+00 -0.91827313973E+03  0.91827313974E+03  0.25500000000E-02 0.  1.
    5000001    1    1    2    0    0  0.33545435505E+03 -0.16552508408E+03 -0.25057904405E+03  0.45677897839E+03  0.77000000000E+02 0.  0.
   -5000001    1    1    2    0    0 -0.33545435505E+03  0.16552508408E+03 -0.50000915924E+03  0.62917909780E+03  0.77000000000E+02 0.  0.
<mgrwt>
<rscale>  0 0.78480717E+03</rscale>
<asrwt>0</asrwt>
<pdfrwt beam="1">  1        2 0.13118187E+00 0.78480717E+03</pdfrwt>
<pdfrwt beam="2">  1       -2 0.23954991E-01 0.78480717E+03</pdfrwt>
<totfact> 0.49116571E+02</totfact>
</mgrwt>
</event>
<event>
 4    1  0.6853809E-004  0.3854539E+03  0.7818608E-02  0.1048936E+00
         -2   -1    0    0    0  501 -0.00000000000E+00  0.00000000000E+00  0.20816055301E+02  0.20816055458E+02  0.25500000000E-02 0. -1.
          2   -1    0    0  501    0  0.00000000000E+00 -0.00000000000E+00 -0.17843767176E+04  0.17843767177E+04  0.25500000000E-02 0.  1.
    5000001    1    1    2    0    0 -0.16967585459E+03  0.50089882877E+01 -0.65236127810E+03  0.67846829164E+03  0.77000000000E+02 0.  0.
   -5000001    1    1    2    0    0  0.16967585459E+03 -0.50089882877E+01 -0.11111993843E+04  0.11267244815E+04  0.77000000000E+02 0.  0.
<mgrwt>
<rscale>  0 0.38545394E+03</rscale>
<asrwt>0</asrwt>
<pdfrwt beam="1">  1        2 0.25491086E+00 0.38545394E+03</pdfrwt>
<pdfrwt beam="2">  1       -2 0.29737233E-02 0.38545394E+03</pdfrwt>
<totfact> 0.48391728E+03</totfact>
</mgrwt>
</event>
<event>
 4    1  0.6853809E-004  0.2563015E+03  0.7818608E-02  0.1109386E+00
         -2   -1    0    0    0  501 -0.00000000000E+00  0.00000000000E+00  0.26080186566E+03  0.26080186568E+03  0.25500000000E-02 0. -1.
          2   -1    0    0  501    0  0.00000000000E+00 -0.00000000000E+00 -0.62969721140E+02  0.62969721192E+02  0.25500000000E-02 0.  1.
    5000001    1    1    2    0    0 -0.56075680991E+02  0.66949944434E+02  0.31278265835E+02  0.12055748410E+03  0.77000000000E+02 0.  0.
   -5000001    1    1    2    0    0  0.56075680991E+02 -0.66949944434E+02  0.16655387869E+03  0.20321410277E+03  0.77000000000E+02 0.  0.
<mgrwt>
<rscale>  0 0.25630155E+03</rscale>
<asrwt>0</asrwt>
<pdfrwt beam="1">  1        2 0.89956744E-02 0.25630155E+03</pdfrwt>
<pdfrwt beam="2">  1       -2 0.37257410E-01 0.25630155E+03</pdfrwt>
<totfact> 0.49493105E+03</totfact>
</mgrwt>
</event>
<event>
 4    1  0.6853809E-004  0.2372192E+03  0.7818608E-02  0.1121659E+00
         -2   -1    0    0    0  501 -0.00000000000E+00  0.00000000000E+00  0.75700613910E+02  0.75700613953E+02  0.25500000000E-02 0. -1.
          2   -1    0    0  501    0  0.00000000000E+00 -0.00000000000E+00 -0.18584041254E+03  0.18584041255E+03  0.25500000000E-02 0.  1.
    5000001    1    1    2    0    0 -0.62708260077E+02 -0.64860474004E+02 -0.54890908750E+02  0.13069513699E+03  0.77000000000E+02 0.  0.
   -5000001    1    1    2    0    0  0.62708260077E+02  0.64860474004E+02 -0.55248889876E+02  0.13084588951E+03  0.77000000000E+02 0.  0.
<mgrwt>
<rscale>  0 0.23721917E+03</rscale>
<asrwt>0</asrwt>
<pdfrwt beam="1">  1        2 0.26548630E-01 0.23721917E+03</pdfrwt>
<pdfrwt beam="2">  1       -2 0.10814374E-01 0.23721917E+03</pdfrwt>
<totfact> 0.11529266E+04</totfact>
</mgrwt>
</event>
<event>
 4    1  0.6853809E-004  0.1782879E+03  0.7818608E-02  0.1169470E+00
         -2   -1    0    0    0  501 -0.00000000000E+00  0.00000000000E+00  0.34279565401E+02  0.34279565496E+02  0.25500000000E-02 0. -1.
          2   -1    0    0  501    0  0.00000000000E+00 -0.00000000000E+00 -0.23181859158E+03  0.23181859160E+03  0.25500000000E-02 0.  1.
    5000001    1    1    2    0    0  0.29114884350E+02 -0.33486225077E+02 -0.88360664404E+02  0.12532202829E+03  0.77000000000E+02 0.  0.
   -5000001    1    1    2    0    0 -0.29114884350E+02  0.33486225077E+02 -0.10917836178E+03  0.14077612880E+03  0.77000000000E+02 0.  0.
<mgrwt>
<rscale>  0 0.17828786E+03</rscale>
<asrwt>0</asrwt>
<pdfrwt beam="1">  1        2 0.33116941E-01 0.17828786E+03</pdfrwt>
<pdfrwt beam="2">  1       -2 0.48970809E-02 0.17828786E+03</pdfrwt>
<totfact> 0.30209281E+04</totfact>
</mgrwt>
</event>
<event>
 4    1  0.6853809E-004  0.3566571E+03  0.7818608E-02  0.1059915E+00
         -2   -1    0    0    0  501 -0.00000000000E+00  0.00000000000E+00  0.26015922994E+02  0.26015923119E+02  0.25500000000E-02 0. -1.
          2   -1    0    0  501    0  0.00000000000E+00 -0.00000000000E+00 -0.12223696573E+04  0.12223696573E+04  0.25500000000E-02 0.  1.
    5000001    1    1    2    0    0 -0.14081075511E+03 -0.77056455411E+02 -0.63433434470E+03  0.65884324914E+03  0.77000000000E+02 0.  0.
   -5000001    1    1    2    0    0  0.14081075511E+03  0.77056455411E+02 -0.56201938962E+03  0.58954233130E+03  0.77000000000E+02 0.  0.
<mgrwt>
<rscale>  0 0.35665712E+03</rscale>
<asrwt>0</asrwt>
<pdfrwt beam="1">  1        2 0.17462420E+00 0.35665712E+03</pdfrwt>
<pdfrwt beam="2">  1       -2 0.37165612E-02 0.35665712E+03</pdfrwt>
<totfact> 0.67249769E+03</totfact>
</mgrwt>
</event>
<event>
 4    1  0.6853809E-004  0.2381240E+03  0.7818608E-02  0.1121049E+00
         -2   -1    0    0    0  501 -0.00000000000E+00  0.00000000000E+00  0.76405166374E+02  0.76405166416E+02  0.25500000000E-02 0. -1.
          2   -1    0    0  501    0  0.00000000000E+00 -0.00000000000E+00 -0.18553398939E+03  0.18553398941E+03  0.25500000000E-02 0.  1.
    5000001    1    1    2    0    0 -0.87813618622E+02 -0.17589551637E+02 -0.71106020559E+02  0.13786112615E+03  0.77000000000E+02 0.  0.
   -5000001    1    1    2    0    0  0.87813618622E+02  0.17589551637E+02 -0.38022802458E+02  0.12407802968E+03  0.77000000000E+02 0.  0.
<mgrwt>
<rscale>  0 0.23812396E+03</rscale>
<asrwt>0</asrwt>
<pdfrwt beam="1">  1        2 0.26504855E-01 0.23812396E+03</pdfrwt>
<pdfrwt beam="2">  1       -2 0.10915024E-01 0.23812396E+03</pdfrwt>
<totfact> 0.11383110E+04</totfact>
</mgrwt>
</event>
<event>
 4    1  0.6853809E-004  0.4554585E+03  0.7818608E-02  0.1026107E+00
         -2   -1    0    0    0  501 -0.00000000000E+00  0.00000000000E+00  0.64854382750E+02  0.64854382800E+02  0.25500000000E-02 0. -1.
          2   -1    0    0  501    0  0.00000000000E+00 -0.00000000000E+00 -0.79964688096E+03  0.79964688097E+03  0.25500000000E-02 0.  1.
    5000001    1    1    2    0    0  0.16101969941E+03 -0.88276714982E+02 -0.15764669292E+03  0.25397165549E+03  0.77000000000E+02 0.  0.
   -5000001    1    1    2    0    0 -0.16101969941E+03  0.88276714982E+02 -0.57714580529E+03  0.61052960827E+03  0.77000000000E+02 0.  0.
<mgrwt>
<rscale>  0 0.45545847E+03</rscale>
<asrwt>0</asrwt>
<pdfrwt beam="1">  1        2 0.11423526E+00 0.45545847E+03</pdfrwt>
<pdfrwt beam="2">  1       -2 0.92649123E-02 0.45545847E+03</pdfrwt>
<totfact> 0.29406737E+03</totfact>
</mgrwt>
</event>
<event>
 4    1  0.6853809E-004  0.1944535E+03  0.7818608E-02  0.1154505E+00
         -2   -1    0    0    0  501 -0.00000000000E+00  0.00000000000E+00  0.53559433820E+02  0.53559433880E+02  0.25500000000E-02 0. -1.
          2   -1    0    0  501    0  0.00000000000E+00 -0.00000000000E+00 -0.17649620195E+03  0.17649620197E+03  0.25500000000E-02 0.  1.
    5000001    1    1    2    0    0 -0.51268647607E+02 -0.29877239025E+02 -0.59449140184E+02  0.11394877756E+03  0.77000000000E+02 0.  0.
   -5000001    1    1    2    0    0  0.51268647607E+02  0.29877239025E+02 -0.63487627948E+02  0.11610685829E+03  0.77000000000E+02 0.  0.
<mgrwt>
<rscale>  0 0.19445346E+03</rscale>
<asrwt>0</asrwt>
<pdfrwt beam="1">  1        2 0.25213743E-01 0.19445346E+03</pdfrwt>
<pdfrwt beam="2">  1       -2 0.76513478E-02 0.19445346E+03</pdfrwt>
<totfact> 0.20749625E+04</totfact>
</mgrwt>
</event>
<event>
 4    1  0.6853809E-004  0.2672286E+03  0.7818608E-02  0.1102876E+00
         -2   -1    0    0    0  501 -0.00000000000E+00  0.00000000000E+00  0.62744366852E+01  0.62744372034E+01  0.25500000000E-02 0. -1.
          2   -1    0    0  501    0  0.00000000000E+00 -0.00000000000E+00 -0.28453209553E+04  0.28453209553E+04  0.25500000000E-02 0.  1.
    5000001    1    1    2    0    0  0.75196970598E+02  0.74406640188E+02 -0.11306457325E+04  0.11381914184E+04  0.77000000000E+02 0.  0.
   -5000001    1    1    2    0    0 -0.75196970598E+02 -0.74406640188E+02 -0.17084007860E+04  0.17134039740E+04  0.77000000000E+02 0.  0.
<mgrwt>
<rscale>  0 0.26722864E+03</rscale>
<asrwt>0</asrwt>
<pdfrwt beam="1">  1        2 0.40647360E+00 0.26722864E+03</pdfrwt>
<pdfrwt beam="2">  1       -2 0.89634996E-03 0.26722864E+03</pdfrwt>
<totfact> 0.83646559E+03</totfact>
</mgrwt>
</event>
<event>
 4    1  0.6853809E-004  0.5012743E+03  0.7818608E-02  0.1013447E+00
          2   -1    0    0  501    0  0.00000000000E+00  0.00000000000E+00  0.14186305913E+04  0.14186305913E+04  0.25500000000E-02 0.  1.
         -2   -1    0    0    0  501 -0.00000000000E+00 -0.00000000000E+00 -0.44281415535E+02  0.44281415609E+02  0.25500000000E-02 0. -1.
    5000001    1    1    2    0    0 -0.81532513585E+02 -0.17850015243E+03  0.10828298257E+04  0.11031587767E+04  0.77000000000E+02 0.  0.
   -5000001    1    1    2    0    0  0.81532513585E+02  0.17850015243E+03  0.29151935010E+03  0.35975323024E+03  0.77000000000E+02 0.  0.
<mgrwt>
<rscale>  0 0.50127426E+03</rscale>
<asrwt>0</asrwt>
<pdfrwt beam="1">  1        2 0.20266148E+00 0.50127426E+03</pdfrwt>
<pdfrwt beam="2">  1       -2 0.63259175E-02 0.50127426E+03</pdfrwt>
<totfact> 0.23363605E+03</totfact>
</mgrwt>
</event>
<event>
 4    1  0.6853809E-004  0.5356890E+03  0.7818608E-02  0.1004862E+00
          2   -1    0    0  501    0  0.00000000000E+00  0.00000000000E+00  0.23761729664E+04  0.23761729664E+04  0.25500000000E-02 0.  1.
         -2   -1    0    0    0  501 -0.00000000000E+00 -0.00000000000E+00 -0.30191691581E+02  0.30191691688E+02  0.25500000000E-02 0. -1.
    5000001    1    1    2    0    0  0.23579892327E+03  0.98208679520E+00  0.71909842068E+03  0.76067971929E+03  0.77000000000E+02 0.  0.
   -5000001    1    1    2    0    0 -0.23579892327E+03 -0.98208679520E+00  0.16268828541E+04  0.16456849388E+04  0.77000000000E+02 0.  0.
<mgrwt>
<rscale>  0 0.53568902E+03</rscale>
<asrwt>0</asrwt>
<pdfrwt beam="1">  1        2 0.33945334E+00 0.53568902E+03</pdfrwt>
<pdfrwt beam="2">  1       -2 0.43130980E-02 0.53568902E+03</pdfrwt>
<totfact> 0.13859273E+03</totfact>
</mgrwt>
</event>
<event>
 4    1  0.6853809E-004  0.5863314E+03  0.7818608E-02  0.9934177E-01
         -2   -1    0    0    0  501 -0.00000000000E+00  0.00000000000E+00  0.40730419358E+02  0.40730419438E+02  0.25500000000E-02 0. -1.
          2   -1    0    0  501    0  0.00000000000E+00 -0.00000000000E+00 -0.21101210173E+04  0.21101210173E+04  0.25500000000E-02 0.  1.
    5000001    1    1    2    0    0  0.23017160098E+03  0.74501728911E+02 -0.49696852567E+03  0.55806468174E+03  0.77000000000E+02 0.  0.
   -5000001    1    1    2    0    0 -0.23017160098E+03 -0.74501728911E+02 -0.15724220723E+04  0.15927867550E+04  0.77000000000E+02 0.  0.
<mgrwt>
<rscale>  0 0.58633135E+03</rscale>
<asrwt>0</asrwt>
<pdfrwt beam="1">  1        2 0.30144579E+00 0.58633135E+03</pdfrwt>
<pdfrwt beam="2">  1       -2 0.58186327E-02 0.58633135E+03</pdfrwt>
<totfact> 0.11829274E+03</totfact>
</mgrwt>
</event>
<event>
 4    1  0.6853809E-004  0.2628220E+03  0.7818608E-02  0.1105459E+00
          2   -1    0    0  501    0  0.00000000000E+00  0.00000000000E+00  0.29191341707E+03  0.29191341708E+03  0.25500000000E-02 0.  1.
         -2   -1    0    0    0  501 -0.00000000000E+00 -0.00000000000E+00 -0.59157454069E+02  0.59157454124E+02  0.25500000000E-02 0. -1.
    5000001    1    1    2    0    0  0.18779225719E+02 -0.68171464523E+02  0.10019430289E+02  0.10502093542E+03  0.77000000000E+02 0.  0.
   -5000001    1    1    2    0    0 -0.18779225719E+02  0.68171464523E+02  0.22273653272E+03  0.24604993579E+03  0.77000000000E+02 0.  0.
<mgrwt>
<rscale>  0 0.26282203E+03</rscale>
<asrwt>0</asrwt>
<pdfrwt beam="1">  1        2 0.41701917E-01 0.26282203E+03</pdfrwt>
<pdfrwt beam="2">  1       -2 0.84510648E-02 0.26282203E+03</pdfrwt>
<totfact> 0.10468958E+04</totfact>
</mgrwt>
</event>
<event>
 4    1  0.6853809E-004  0.1838934E+03  0.7818608E-02  0.1164087E+00
          2   -1    0    0  501    0  0.00000000000E+00  0.00000000000E+00  0.48084365260E+03  0.48084365261E+03  0.25500000000E-02 0.  1.
         -2   -1    0    0    0  501 -0.00000000000E+00 -0.00000000000E+00 -0.17582012428E+02  0.17582012613E+02  0.25500000000E-02 0. -1.
    5000001    1    1    2    0    0  0.21607784282E+02  0.44824972231E+02  0.21265321514E+03  0.23157410129E+03  0.77000000000E+02 0.  0.
   -5000001    1    1    2    0    0 -0.21607784282E+02 -0.44824972231E+02  0.25060842503E+03  0.26685156393E+03  0.77000000000E+02 0.  0.
<mgrwt>
<rscale>  0 0.18389344E+03</rscale>
<asrwt>0</asrwt>
<pdfrwt beam="1">  1        2 0.68691956E-01 0.18389344E+03</pdfrwt>
<pdfrwt beam="2">  1       -2 0.25117159E-02 0.18389344E+03</pdfrwt>
<totfact> 0.37370773E+04</totfact>
</mgrwt>
</event>
<event>
 4    1  0.6853809E-004  0.2722988E+03  0.7818608E-02  0.1099971E+00
          2   -1    0    0  501    0  0.00000000000E+00  0.00000000000E+00  0.84325438640E+03  0.84325438640E+03  0.25500000000E-02 0.  1.
         -2   -1    0    0    0  501 -0.00000000000E+00 -0.00000000000E+00 -0.21982287000E+02  0.21982287148E+02  0.25500000000E-02 0. -1.
    5000001    1    1    2    0    0  0.63190200253E+02 -0.91650511472E+02  0.36406145135E+03  0.38841029598E+03  0.77000000000E+02 0.  0.
   -5000001    1    1    2    0    0 -0.63190200253E+02  0.91650511472E+02  0.45721064805E+03  0.47682637757E+03  0.77000000000E+02 0.  0.
<mgrwt>
<rscale>  0 0.27229881E+03</rscale>
<asrwt>0</asrwt>
<pdfrwt beam="1">  1        2 0.12046492E+00 0.27229881E+03</pdfrwt>
<pdfrwt beam="2">  1       -2 0.31403266E-02 0.27229881E+03</pdfrwt>
<totfact> 0.14362309E+04</totfact>
</mgrwt>
</event>
<event>
 4    1  0.6853809E-004  0.7795958E+03  0.7818608E-02  0.9590030E-01
         -2   -1    0    0    0  501 -0.00000000000E+00  0.00000000000E+00  0.75447704809E+02  0.75447704852E+02  0.25500000000E-02 0. -1.
          2   -1    0    0  501    0  0.00000000000E+00 -0.00000000000E+00 -0.20138773199E+04  0.20138773199E+04  0.25500000000E-02 0.  1.
    5000001    1    1    2    0    0  0.33538655682E+03 -0.16880640553E+03 -0.11593572820E+04  0.12210725009E+04  0.77000000000E+02 0.  0.
   -5000001    1    1    2    0    0 -0.33538655682E+03  0.16880640553E+03 -0.77907233303E+03  0.86825252383E+03  0.77000000000E+02 0.  0.
<mgrwt>
<rscale>  0 0.77959585E+03</rscale>
<asrwt>0</asrwt>
<pdfrwt beam="1">  1        2 0.28769673E+00 0.77959585E+03</pdfrwt>
<pdfrwt beam="2">  1       -2 0.10778245E-01 0.77959585E+03</pdfrwt>
<totfact> 0.48802553E+02</totfact>
</mgrwt>
</event>
<event>
 4    1  0.6853809E-004  0.2462390E+03  0.7818608E-02  0.1115705E+00
         -2   -1    0    0    0  501 -0.00000000000E+00  0.00000000000E+00  0.12116761673E+02  0.12116761941E+02  0.25500000000E-02 0. -1.
          2   -1    0    0  501    0  0.00000000000E+00 -0.00000000000E+00 -0.12510284228E+04  0.12510284228E+04  0.25500000000E-02 0.  1.
    5000001    1    1    2    0    0 -0.83263816536E+02 -0.30772094200E+02 -0.80790903224E+03  0.81641030695E+03  0.77000000000E+02 0.  0.
   -5000001    1    1    2    0    0  0.83263816536E+02  0.30772094200E+02 -0.43100262886E+03  0.44673487776E+03  0.77000000000E+02 0.  0.
<mgrwt>
<rscale>  0 0.24623902E+03</rscale>
<asrwt>0</asrwt>
<pdfrwt beam="1">  1        2 0.17871826E+00 0.24623902E+03</pdfrwt>
<pdfrwt beam="2">  1       -2 0.17309668E-02 0.24623902E+03</pdfrwt>
<totfact> 0.19967542E+04</totfact>
</mgrwt>
</event>
<event>
 4    1  0.6853809E-004  0.2809301E+03  0.7818608E-02  0.1095182E+00
          2   -1    0    0  501    0  0.00000000000E+00  0.00000000000E+00  0.31900059742E+04  0.31900059742E+04  0.25500000000E-02 0.  1.
         -2   -1    0    0    0  501 -0.00000000000E+00 -0.00000000000E+00 -0.61850770025E+01  0.61850775281E+01  0.25500000000E-02 0. -1.
    5000001    1    1    2    0    0  0.68012911016E+02 -0.76812118478E+02  0.94076463748E+03  0.94946983140E+03  0.77000000000E+02 0.  0.
   -5000001    1    1    2    0    0 -0.68012911016E+02  0.76812118478E+02  0.22430562597E+04  0.22467212203E+04  0.77000000000E+02 0.  0.
<mgrwt>
<rscale>  0 0.28093012E+03</rscale>
<asrwt>0</asrwt>
<pdfrwt beam="1">  1        2 0.45571543E+00 0.28093012E+03</pdfrwt>
<pdfrwt beam="2">  1       -2 0.88358191E-03 0.28093012E+03</pdfrwt>
<totfact> 0.55968680E+03</totfact>
</mgrwt>
</event>
<event>
 4    1  0.6853809E-004  0.6396419E+03  0.7818608E-02  0.9826412E-01
         -2   -1    0    0    0  501 -0.00000000000E+00  0.00000000000E+00  0.16847311386E+03  0.16847311388E+03  0.25500000000E-02 0. -1.
          2   -1    0    0  501    0  0.00000000000E+00 -0.00000000000E+00 -0.60713221562E+03  0.60713221562E+03  0.25500000000E-02 0.  1.
    5000001    1    1    2    0    0  0.18246403570E+03 -0.20502467425E+03 -0.39516443423E+03  0.48724959872E+03  0.77000000000E+02 0.  0.
   -5000001    1    1    2    0    0 -0.18246403570E+03  0.20502467425E+03 -0.43494667537E+02  0.28835573078E+03  0.77000000000E+02 0.  0.
<mgrwt>
<rscale>  0 0.63964195E+03</rscale>
<asrwt>0</asrwt>
<pdfrwt beam="1">  1        2 0.86733173E-01 0.63964195E+03</pdfrwt>
<pdfrwt beam="2">  1       -2 0.24067588E-01 0.63964195E+03</pdfrwt>
<totfact> 0.82391852E+02</totfact>
</mgrwt>
</event>
<event>
 4    1  0.6853809E-004  0.2486618E+03  0.7818608E-02  0.1114153E+00
         -2   -1    0    0    0  501 -0.00000000000E+00  0.00000000000E+00  0.62468094798E+02  0.62468094850E+02  0.25500000000E-02 0. -1.
          2   -1    0    0  501    0  0.00000000000E+00 -0.00000000000E+00 -0.24745708116E+03  0.24745708117E+03  0.25500000000E-02 0.  1.
    5000001    1    1    2    0    0 -0.82701322505E+02 -0.45527751119E+02 -0.12345091739E+03  0.17343994313E+03  0.77000000000E+02 0.  0.
   -5000001    1    1    2    0    0  0.82701322505E+02  0.45527751119E+02 -0.61538068963E+02  0.13648523289E+03  0.77000000000E+02 0.  0.
<mgrwt>
<rscale>  0 0.24866180E+03</rscale>
<asrwt>0</asrwt>
<pdfrwt beam="1">  1        2 0.35351011E-01 0.24866180E+03</pdfrwt>
<pdfrwt beam="2">  1       -2 0.89240137E-02 0.24866180E+03</pdfrwt>
<totfact> 0.11455848E+04</totfact>
</mgrwt>
</event>
<event>
 4    1  0.6853809E-004  0.1823639E+03  0.7818608E-02  0.1165535E+00
         -2   -1    0    0    0  501 -0.00000000000E+00  0.00000000000E+00  0.77141542393E+01  0.77141546607E+01  0.25500000000E-02 0. -1.
          2   -1    0    0  501    0  0.00000000000E+00 -0.00000000000E+00 -0.10777781713E+04  0.10777781713E+04  0.25500000000E-02 0.  1.
    5000001    1    1    2    0    0 -0.10996232549E+01 -0.35081840118E+02 -0.73716663299E+03  0.74200780958E+03  0.77000000000E+02 0.  0.
   -5000001    1    1    2    0    0  0.10996232549E+01  0.35081840118E+02 -0.33289738407E+03  0.34348451639E+03  0.77000000000E+02 0.  0.
<mgrwt>
<rscale>  0 0.18236389E+03</rscale>
<asrwt>0</asrwt>
<pdfrwt beam="1">  1        2 0.15396821E+00 0.18236389E+03</pdfrwt>
<pdfrwt beam="2">  1       -2 0.11020228E-02 0.18236389E+03</pdfrwt>
<totfact> 0.46910678E+04</totfact>
</mgrwt>
</event>
<event>
 4    1  0.6853809E-004  0.1951996E+03  0.7818608E-02  0.1153853E+00
          2   -1    0    0  501    0  0.00000000000E+00  0.00000000000E+00  0.23900226186E+02  0.23900226322E+02  0.25500000000E-02 0.  1.
         -2   -1    0    0    0  501 -0.00000000000E+00 -0.00000000000E+00 -0.39856201747E+03  0.39856201748E+03  0.25500000000E-02 0. -1.
    5000001    1    1    2    0    0  0.48796313928E+02 -0.34511059458E+02 -0.19807157184E+03  0.22075651983E+03  0.77000000000E+02 0.  0.
   -5000001    1    1    2    0    0 -0.48796313928E+02  0.34511059458E+02 -0.17659021945E+03  0.20170572397E+03  0.77000000000E+02 0.  0.
<mgrwt>
<rscale>  0 0.19519961E+03</rscale>
<asrwt>0</asrwt>
<pdfrwt beam="1">  1        2 0.34143183E-02 0.19519961E+03</pdfrwt>
<pdfrwt beam="2">  1       -2 0.56937427E-01 0.19519961E+03</pdfrwt>
<totfact> 0.75195700E+03</totfact>
</mgrwt>
</event>
<event>
 4    1  0.6853809E-004  0.1615673E+03  0.7818608E-02  0.1186939E+00
         -2   -1    0    0    0  501 -0.00000000000E+00  0.00000000000E+00  0.17026351252E+03  0.17026351254E+03  0.25500000000E-02 0. -1.
          2   -1    0    0  501    0  0.00000000000E+00 -0.00000000000E+00 -0.38328832545E+02  0.38328832629E+02  0.25500000000E-02 0.  1.
    5000001    1    1    2    0    0  0.17759266217E+02 -0.11025542552E+01  0.87586037888E+02  0.11797000125E+03  0.77000000000E+02 0.  0.
   -5000001    1    1    2    0    0 -0.17759266217E+02  0.11025542552E+01  0.44348642093E+02  0.90622343922E+02  0.77000000000E+02 0.  0.
<mgrwt>
<rscale>  0 0.16156734E+03</rscale>
<asrwt>0</asrwt>
<pdfrwt beam="1">  1        2 0.54755474E-02 0.16156734E+03</pdfrwt>
<pdfrwt beam="2">  1       -2 0.24323359E-01 0.16156734E+03</pdfrwt>
<totfact> 0.19595784E+04</totfact>
</mgrwt>
</event>
<event>
 4    1  0.6853809E-004  0.2415221E+03  0.7818608E-02  0.1118783E+00
         -2   -1    0    0    0  501 -0.00000000000E+00  0.00000000000E+00  0.22430534301E+02  0.22430534446E+02  0.25500000000E-02 0. -1.
          2   -1    0    0  501    0  0.00000000000E+00 -0.00000000000E+00 -0.65015060699E+03  0.65015060699E+03  0.25500000000E-02 0.  1.
    5000001    1    1    2    0    0  0.77386084257E+02 -0.49043007282E+02 -0.35879773598E+03  0.37823093203E+03  0.77000000000E+02 0.  0.
   -5000001    1    1    2    0    0 -0.77386084257E+02  0.49043007282E+02 -0.26892233671E+03  0.29435020941E+03  0.77000000000E+02 0.  0.
<mgrwt>
<rscale>  0 0.24152205E+03</rscale>
<asrwt>0</asrwt>
<pdfrwt beam="1">  1        2 0.92878646E-01 0.24152205E+03</pdfrwt>
<pdfrwt beam="2">  1       -2 0.32043625E-02 0.24152205E+03</pdfrwt>
<totfact> 0.18962867E+04</totfact>
</mgrwt>
</event>
<event>
 4    1  0.6853809E-004  0.2505452E+03  0.7818608E-02  0.1112961E+00
          2   -1    0    0  501    0  0.00000000000E+00  0.00000000000E+00  0.49543769287E+03  0.49543769288E+03  0.25500000000E-02 0.  1.
         -2   -1    0    0    0  501 -0.00000000000E+00 -0.00000000000E+00 -0.31675475451E+02  0.31675475553E+02  0.25500000000E-02 0. -1.
    5000001    1    1    2    0    0  0.78531023496E+02 -0.44162543848E+02  0.14650534739E+03  0.18844168526E+03  0.77000000000E+02 0.  0.
   -5000001    1    1    2    0    0 -0.78531023496E+02  0.44162543848E+02  0.31725687003E+03  0.33867148317E+03  0.77000000000E+02 0.  0.
<mgrwt>
<rscale>  0 0.25054520E+03</rscale>
<asrwt>0</asrwt>
<pdfrwt beam="1">  1        2 0.70776810E-01 0.25054520E+03</pdfrwt>
<pdfrwt beam="2">  1       -2 0.45250681E-02 0.25054520E+03</pdfrwt>
<totfact> 0.15390241E+04</totfact>
</mgrwt>
</event>
<event>
 4    1  0.6853809E-004  0.2623202E+03  0.7818608E-02  0.1105757E+00
          2   -1    0    0  501    0  0.00000000000E+00  0.00000000000E+00  0.23355407115E+02  0.23355407255E+02  0.25500000000E-02 0.  1.
         -2   -1    0    0    0  501 -0.00000000000E+00 -0.00000000000E+00 -0.73657361410E+03  0.73657361411E+03  0.25500000000E-02 0. -1.
    5000001    1    1    2    0    0 -0.34067863683E+01  0.97169172432E+02 -0.23300318961E+03  0.26395632334E+03  0.77000000000E+02 0.  0.
   -5000001    1    1    2    0    0  0.34067863683E+01 -0.97169172432E+02 -0.48021501738E+03  0.49597269802E+03  0.77000000000E+02 0.  0.
<mgrwt>
<rscale>  0 0.26232024E+03</rscale>
<asrwt>0</asrwt>
<pdfrwt beam="1">  1        2 0.33364872E-02 0.26232024E+03</pdfrwt>
<pdfrwt beam="2">  1       -2 0.10522479E+00 0.26232024E+03</pdfrwt>
<totfact> 0.20562036E+03</totfact>
</mgrwt>
</event>
<event>
 4    1  0.6853809E-004  0.2183135E+03  0.7818608E-02  0.1135147E+00
          2   -1    0    0  501    0  0.00000000000E+00  0.00000000000E+00  0.15550931909E+03  0.15550931911E+03  0.25500000000E-02 0.  1.
         -2   -1    0    0    0  501 -0.00000000000E+00 -0.00000000000E+00 -0.76620487440E+02  0.76620487483E+02  0.25500000000E-02 0. -1.
    5000001    1    1    2    0    0  0.52092360133E+02 -0.55162989326E+02  0.23331839103E+02  0.11058907763E+03  0.77000000000E+02 0.  0.
   -5000001    1    1    2    0    0 -0.52092360133E+02  0.55162989326E+02  0.55556992547E+02  0.12154072896E+03  0.77000000000E+02 0.  0.
<mgrwt>
<rscale>  0 0.21831353E+03</rscale>
<asrwt>0</asrwt>
<pdfrwt beam="1">  1        2 0.22215617E-01 0.21831353E+03</pdfrwt>
<pdfrwt beam="2">  1       -2 0.10945784E-01 0.21831353E+03</pdfrwt>
<totfact> 0.13730772E+04</totfact>
</mgrwt>
</event>
<event>
 4    1  0.6853809E-004  0.2385147E+03  0.7818608E-02  0.1120786E+00
         -2   -1    0    0    0  501 -0.00000000000E+00  0.00000000000E+00  0.54576066083E+02  0.54576066143E+02  0.25500000000E-02 0. -1.
          2   -1    0    0  501    0  0.00000000000E+00 -0.00000000000E+00 -0.26059623818E+03  0.26059623819E+03  0.25500000000E-02 0.  1.
    5000001    1    1    2    0    0 -0.61079248928E+02 -0.66674898222E+02 -0.11730932234E+03  0.16693320164E+03  0.77000000000E+02 0.  0.
   -5000001    1    1    2    0    0  0.61079248928E+02  0.66674898222E+02 -0.88710849757E+02  0.14823910269E+03  0.77000000000E+02 0.  0.
<mgrwt>
<rscale>  0 0.23851472E+03</rscale>
<asrwt>0</asrwt>
<pdfrwt beam="1">  1        2 0.37228033E-01 0.23851472E+03</pdfrwt>
<pdfrwt beam="2">  1       -2 0.77965810E-02 0.23851472E+03</pdfrwt>
<totfact> 0.13350416E+04</totfact>
</mgrwt>
</event>
<event>
 4    1  0.6853809E-004  0.4427235E+03  0.7818608E-02  0.1029914E+00
          2   -1    0    0  501    0  0.00000000000E+00  0.00000000000E+00  0.16989017702E+03  0.16989017704E+03  0.25500000000E-02 0.  1.
         -2   -1    0    0    0  501 -0.00000000000E+00 -0.00000000000E+00 -0.28842768563E+03  0.28842768564E+03  0.25500000000E-02 0. -1.
    5000001    1    1    2    0    0 -0.12438190112E+03 -0.14322811106E+03 -0.14641762531E+03  0.25169876862E+03  0.77000000000E+02 0.  0.
   -5000001    1    1    2    0    0  0.12438190112E+03  0.14322811106E+03  0.27880116705E+02  0.20661909406E+03  0.77000000000E+02 0.  0.
<mgrwt>
<rscale>  0 0.44272353E+03</rscale>
<asrwt>0</asrwt>
<pdfrwt beam="1">  1        2 0.24270025E-01 0.44272353E+03</pdfrwt>
<pdfrwt beam="2">  1       -2 0.41203955E-01 0.44272353E+03</pdfrwt>
<totfact> 0.12622394E+03</totfact>
</mgrwt>
</event>
<event>
 4    1  0.6853809E-004  0.2372141E+03  0.7818608E-02  0.1121663E+00
         -2   -1    0    0    0  501 -0.00000000000E+00  0.00000000000E+00  0.30577751424E+03  0.30577751425E+03  0.25500000000E-02 0. -1.
          2   -1    0    0  501    0  0.00000000000E+00 -0.00000000000E+00 -0.46006088865E+02  0.46006088936E+02  0.25500000000E-02 0.  1.
    5000001    1    1    2    0    0 -0.66578696132E+02 -0.58287102380E+02  0.10383763252E+03  0.15665683199E+03  0.77000000000E+02 0.  0.
   -5000001    1    1    2    0    0  0.66578696132E+02  0.58287102380E+02  0.15593379286E+03  0.19512677119E+03  0.77000000000E+02 0.  0.
<mgrwt>
<rscale>  0 0.23721406E+03</rscale>
<asrwt>0</asrwt>
<pdfrwt beam="1">  1        2 0.65722986E-02 0.23721406E+03</pdfrwt>
<pdfrwt beam="2">  1       -2 0.43682501E-01 0.23721406E+03</pdfrwt>
<totfact> 0.54279195E+03</totfact>
</mgrwt>
</event>
<event>
 4    1  0.6853809E-004  0.2453770E+03  0.7818608E-02  0.1116262E+00
          2   -1    0    0  501    0  0.00000000000E+00  0.00000000000E+00  0.20031861929E+02  0.20031862091E+02  0.25500000000E-02 0.  1.
         -2   -1    0    0    0  501 -0.00000000000E+00 -0.00000000000E+00 -0.75142604819E+03  0.75142604820E+03  0.25500000000E-02 0. -1.
    5000001    1    1    2    0    0 -0.75043034828E+02 -0.59088850264E+02 -0.36795026870E+03  0.38786511771E+03  0.77000000000E+02 0.  0.
   -5000001    1    1    2    0    0  0.75043034828E+02  0.59088850264E+02 -0.36344391756E+03  0.38359279258E+03  0.77000000000E+02 0.  0.
<mgrwt>
<rscale>  0 0.24537696E+03</rscale>
<asrwt>0</asrwt>
<pdfrwt beam="1">  1        2 0.28616950E-02 0.24537696E+03</pdfrwt>
<pdfrwt beam="2">  1       -2 0.10734656E+00 0.24537696E+03</pdfrwt>
<totfact> 0.24099172E+03</totfact>
</mgrwt>
</event>
<event>
 4    1  0.6853809E-004  0.2218925E+03  0.7818608E-02  0.1132480E+00
          2   -1    0    0  501    0  0.00000000000E+00  0.00000000000E+00  0.16532699504E+04  0.16532699504E+04  0.25500000000E-02 0.  1.
         -2   -1    0    0    0  501 -0.00000000000E+00 -0.00000000000E+00 -0.74452888147E+01  0.74452892513E+01  0.25500000000E-02 0. -1.
    5000001    1    1    2    0    0  0.19783794025E+02 -0.15188238795E+02  0.25499121163E+03  0.26752868839E+03  0.77000000000E+02 0.  0.
   -5000001    1    1    2    0    0 -0.19783794025E+02  0.15188238795E+02  0.13908334500E+04  0.13931865513E+04  0.77000000000E+02 0.  0.
<mgrwt>
<rscale>  0 0.22189252E+03</rscale>
<asrwt>0</asrwt>
<pdfrwt beam="1">  1        2 0.23618161E+00 0.22189252E+03</pdfrwt>
<pdfrwt beam="2">  1       -2 0.10636119E-02 0.22189252E+03</pdfrwt>
<totfact> 0.25205221E+04</totfact>
</mgrwt>
</event>
<event>
 4    1  0.6853809E-004  0.2141152E+03  0.7818608E-02  0.1138348E+00
          2   -1    0    0  501    0  0.00000000000E+00  0.00000000000E+00  0.53598937993E+03  0.53598937993E+03  0.25500000000E-02 0.  1.
         -2   -1    0    0    0  501 -0.00000000000E+00 -0.00000000000E+00 -0.21383506932E+02  0.21383507084E+02  0.25500000000E-02 0. -1.
    5000001    1    1    2    0    0  0.68328596550E+01 -0.66864158994E+02  0.34022969796E+03  0.35525026545E+03  0.77000000000E+02 0.  0.
   -5000001    1    1    2    0    0 -0.68328596550E+01  0.66864158994E+02  0.17437617503E+03  0.20212262156E+03  0.77000000000E+02 0.  0.
<mgrwt>
<rscale>  0 0.21411523E+03</rscale>
<asrwt>0</asrwt>
<pdfrwt beam="1">  1        2 0.76569893E-01 0.21411523E+03</pdfrwt>
<pdfrwt beam="2">  1       -2 0.30547874E-02 0.21411523E+03</pdfrwt>
<totfact> 0.25145564E+04</totfact>
</mgrwt>
</event>
<event>
 4    1  0.6853809E-004  0.3282452E+03  0.7818608E-02  0.1071916E+00
         -2   -1    0    0    0  501 -0.00000000000E+00  0.00000000000E+00  0.28219421262E+03  0.28219421263E+03  0.25500000000E-02 0. -1.
          2   -1    0    0  501    0  0.00000000000E+00 -0.00000000000E+00 -0.95452825288E+02  0.95452825322E+02  0.25500000000E-02 0.  1.
    5000001    1    1    2    0    0  0.78547831602E+02 -0.99275464810E+02  0.17457577180E+03  0.22897833929E+03  0.77000000000E+02 0.  0.
   -5000001    1    1    2    0    0 -0.78547831602E+02  0.99275464810E+02  0.12165615533E+02  0.14866869867E+03  0.77000000000E+02 0.  0.
<mgrwt>
<rscale>  0 0.32824524E+03</rscale>
<asrwt>0</asrwt>
<pdfrwt beam="1">  1        2 0.13636118E-01 0.32824524E+03</pdfrwt>
<pdfrwt beam="2">  1       -2 0.40313459E-01 0.32824524E+03</pdfrwt>
<totfact> 0.25736959E+03</totfact>
</mgrwt>
</event>
<event>
 4    1  0.6853809E-004  0.2162177E+03  0.7818608E-02  0.1136735E+00
          2   -1    0    0  501    0  0.00000000000E+00  0.00000000000E+00  0.22148435559E+04  0.22148435559E+04  0.25500000000E-02 0.  1.
         -2   -1    0    0    0  501 -0.00000000000E+00 -0.00000000000E+00 -0.52769088096E+01  0.52769094257E+01  0.25500000000E-02 0. -1.
    5000001    1    1    2    0    0  0.75638418178E+02  0.40455210463E+00  0.10421619245E+04  0.10477365179E+04  0.77000000000E+02 0.  0.
   -5000001    1    1    2    0    0 -0.75638418178E+02 -0.40455210463E+00  0.11674047226E+04  0.11723839475E+04  0.77000000000E+02 0.  0.
<mgrwt>
<rscale>  0 0.21621774E+03</rscale>
<asrwt>0</asrwt>
<pdfrwt beam="1">  1        2 0.31640518E+00 0.21621774E+03</pdfrwt>
<pdfrwt beam="2">  1       -2 0.75384664E-03 0.21621774E+03</pdfrwt>
<totfact> 0.22090803E+04</totfact>
</mgrwt>
</event>
<event>
 4    1  0.6853809E-004  0.3039903E+03  0.7818608E-02  0.1083263E+00
         -2   -1    0    0    0  501 -0.00000000000E+00  0.00000000000E+00  0.16232991467E+03  0.16232991469E+03  0.25500000000E-02 0. -1.
          2   -1    0    0  501    0  0.00000000000E+00 -0.00000000000E+00 -0.14231835711E+03  0.14231835713E+03  0.25500000000E-02 0.  1.
    5000001    1    1    2    0    0  0.71181792858E+02 -0.10841053176E+03  0.28857014835E+02  0.15356242488E+03  0.77000000000E+02 0.  0.
   -5000001    1    1    2    0    0 -0.71181792858E+02  0.10841053176E+03 -0.88454572720E+01  0.15108584694E+03  0.77000000000E+02 0.  0.
<mgrwt>
<rscale>  0 0.30399031E+03</rscale>
<asrwt>0</asrwt>
<pdfrwt beam="1">  1        2 0.20331194E-01 0.30399031E+03</pdfrwt>
<pdfrwt beam="2">  1       -2 0.23189988E-01 0.30399031E+03</pdfrwt>
<totfact> 0.44169146E+03</totfact>
</mgrwt>
</event>
<event>
 4    1  0.6853809E-004  0.3611412E+03  0.7818608E-02  0.1058133E+00
          2   -1    0    0  501    0  0.00000000000E+00  0.00000000000E+00  0.33287134211E+03  0.33287134212E+03  0.25500000000E-02 0.  1.
         -2   -1    0    0    0  501 -0.00000000000E+00 -0.00000000000E+00 -0.97952975015E+02  0.97952975048E+02  0.25500000000E-02 0. -1.
    5000001    1    1    2    0    0  0.46370758400E+02 -0.15648249505E+03  0.12497760333E+03  0.21951177605E+03  0.77000000000E+02 0.  0.
   -5000001    1    1    2    0    0 -0.46370758400E+02  0.15648249505E+03  0.10994076377E+03  0.21131254111E+03  0.77000000000E+02 0.  0.
<mgrwt>
<rscale>  0 0.36114118E+03</rscale>
<asrwt>0</asrwt>
<pdfrwt beam="1">  1        2 0.47553049E-01 0.36114118E+03</pdfrwt>
<pdfrwt beam="2">  1       -2 0.13993282E-01 0.36114118E+03</pdfrwt>
<totfact> 0.40850185E+03</totfact>
</mgrwt>
</event>
<event>
 4    1  0.6853809E-004  0.5010163E+03  0.7818608E-02  0.1013514E+00
          2   -1    0    0  501    0  0.00000000000E+00  0.00000000000E+00  0.10680115010E+04  0.10680115010E+04  0.25500000000E-02 0.  1.
         -2   -1    0    0    0  501 -0.00000000000E+00 -0.00000000000E+00 -0.58758095998E+02  0.58758096053E+02  0.25500000000E-02 0. -1.
    5000001    1    1    2    0    0 -0.11735195259E+03  0.20670538885E+03  0.54527793083E+03  0.59979631576E+03  0.77000000000E+02 0.  0.
   -5000001    1    1    2    0    0  0.11735195259E+03 -0.20670538885E+03  0.46397547413E+03  0.52697328125E+03  0.77000000000E+02 0.  0.
<mgrwt>
<rscale>  0 0.50101626E+03</rscale>
<asrwt>0</asrwt>
<pdfrwt beam="1">  1        2 0.15257307E+00 0.50101626E+03</pdfrwt>
<pdfrwt beam="2">  1       -2 0.83940136E-02 0.50101626E+03</pdfrwt>
<totfact> 0.23332405E+03</totfact>
</mgrwt>
</event>
<event>
 4    1  0.6853809E-004  0.2988173E+03  0.7818608E-02  0.1085833E+00
         -2   -1    0    0    0  501 -0.00000000000E+00  0.00000000000E+00  0.17684792260E+02  0.17684792444E+02  0.25500000000E-02 0. -1.
          2   -1    0    0  501    0  0.00000000000E+00 -0.00000000000E+00 -0.12622675298E+04  0.12622675298E+04  0.25500000000E-02 0.  1.
    5000001    1    1    2    0    0  0.53526405517E+02 -0.77873426217E+02 -0.99236757472E+03  0.99982585982E+03  0.77000000000E+02 0.  0.
   -5000001    1    1    2    0    0 -0.53526405517E+02  0.77873426217E+02 -0.25221516282E+03  0.28012646243E+03  0.77000000000E+02 0.  0.
<mgrwt>
<rscale>  0 0.29881726E+03</rscale>
<asrwt>0</asrwt>
<pdfrwt beam="1">  1        2 0.18032388E+00 0.29881726E+03</pdfrwt>
<pdfrwt beam="2">  1       -2 0.25263997E-02 0.29881726E+03</pdfrwt>
<totfact> 0.11362220E+04</totfact>
</mgrwt>
</event>
<event>
 4    1  0.6853809E-004  0.3447138E+03  0.7818608E-02  0.1064806E+00
          2   -1    0    0  501    0  0.00000000000E+00  0.00000000000E+00  0.10600112054E+03  0.10600112057E+03  0.25500000000E-02 0.  1.
         -2   -1    0    0    0  501 -0.00000000000E+00 -0.00000000000E+00 -0.28025075944E+03  0.28025075945E+03  0.25500000000E-02 0. -1.
    5000001    1    1    2    0    0 -0.73786636633E+02  0.80452735048E+02  0.34905763470E+02  0.13807433739E+03  0.77000000000E+02 0.  0.
   -5000001    1    1    2    0    0  0.73786636633E+02 -0.80452735048E+02 -0.20915540237E+03  0.24817754262E+03  0.77000000000E+02 0.  0.
<mgrwt>
<rscale>  0 0.34471376E+03</rscale>
<asrwt>0</asrwt>
<pdfrwt beam="1">  1        2 0.15143017E-01 0.34471376E+03</pdfrwt>
<pdfrwt beam="2">  1       -2 0.40035822E-01 0.34471376E+03</pdfrwt>
<totfact> 0.23025918E+03</totfact>
</mgrwt>
</event>
<event>
 4    1  0.6853809E-004  0.1957062E+03  0.7818608E-02  0.1153413E+00
          2   -1    0    0  501    0  0.00000000000E+00  0.00000000000E+00  0.23979835985E+03  0.23979835987E+03  0.25500000000E-02 0.  1.
         -2   -1    0    0    0  501 -0.00000000000E+00 -0.00000000000E+00 -0.39930348547E+02  0.39930348628E+02  0.25500000000E-02 0. -1.
    5000001    1    1    2    0    0  0.28935631757E+02 -0.29075373671E+02  0.16327095300E+03  0.18511902180E+03  0.77000000000E+02 0.  0.
   -5000001    1    1    2    0    0 -0.28935631757E+02  0.29075373671E+02  0.36597058304E+02  0.94609686691E+02  0.77000000000E+02 0.  0.
<mgrwt>
<rscale>  0 0.19570623E+03</rscale>
<asrwt>0</asrwt>
<pdfrwt beam="1">  1        2 0.34256910E-01 0.19570623E+03</pdfrwt>
<pdfrwt beam="2">  1       -2 0.57043353E-02 0.19570623E+03</pdfrwt>
<totfact> 0.23301684E+04</totfact>
</mgrwt>
</event>
<event>
 4    1  0.6853809E-004  0.1993222E+03  0.7818608E-02  0.1150312E+00
         -2   -1    0    0    0  501 -0.00000000000E+00  0.00000000000E+00  0.38753640581E+02  0.38753640665E+02  0.25500000000E-02 0. -1.
          2   -1    0    0  501    0  0.00000000000E+00 -0.00000000000E+00 -0.25629425800E+03  0.25629425801E+03  0.25500000000E-02 0.  1.
    5000001    1    1    2    0    0  0.45604238143E+02  0.27796364392E+02 -0.58551629524E+02  0.11049741051E+03  0.77000000000E+02 0.  0.
   -5000001    1    1    2    0    0 -0.45604238143E+02 -0.27796364392E+02 -0.15898898790E+03  0.18455048817E+03  0.77000000000E+02 0.  0.
<mgrwt>
<rscale>  0 0.19932221E+03</rscale>
<asrwt>0</asrwt>
<pdfrwt beam="1">  1        2 0.36613465E-01 0.19932221E+03</pdfrwt>
<pdfrwt beam="2">  1       -2 0.55362345E-02 0.19932221E+03</pdfrwt>
<totfact> 0.22729419E+04</totfact>
</mgrwt>
</event>
<event>
 4    1  0.6853809E-004  0.2458141E+03  0.7818608E-02  0.1115979E+00
          2   -1    0    0  501    0  0.00000000000E+00  0.00000000000E+00  0.35478631158E+04  0.35478631158E+04  0.25500000000E-02 0.  1.
         -2   -1    0    0    0  501 -0.00000000000E+00 -0.00000000000E+00 -0.42578124098E+01  0.42578131734E+01  0.25500000000E-02 0. -1.
    5000001    1    1    2    0    0 -0.31383329648E+02 -0.90473913849E+02  0.17344139916E+04  0.17387614376E+04  0.77000000000E+02 0.  0.
   -5000001    1    1    2    0    0  0.31383329648E+02  0.90473913849E+02  0.18091913117E+04  0.18133594913E+04  0.77000000000E+02 0.  0.
<mgrwt>
<rscale>  0 0.24581405E+03</rscale>
<asrwt>0</asrwt>
<pdfrwt beam="1">  1        2 0.50683936E+00 0.24581405E+03</pdfrwt>
<pdfrwt beam="2">  1       -2 0.60825684E-03 0.24581405E+03</pdfrwt>
<totfact> 0.60417818E+03</totfact>
</mgrwt>
</event>
<event>
 4    1  0.6853809E-004  0.6797696E+03  0.7818608E-02  0.9752468E-01
          2   -1    0    0  501    0  0.00000000000E+00  0.00000000000E+00  0.22073051357E+04  0.22073051357E+04  0.25500000000E-02 0.  1.
         -2   -1    0    0    0  501 -0.00000000000E+00 -0.00000000000E+00 -0.52336073774E+02  0.52336073836E+02  0.25500000000E-02 0. -1.
    5000001    1    1    2    0    0  0.32669540158E+03  0.20411843371E+02  0.91307772747E+03  0.97302952944E+03  0.77000000000E+02 0.  0.
   -5000001    1    1    2    0    0 -0.32669540158E+03 -0.20411843371E+02  0.12418913344E+04  0.12866116801E+04  0.77000000000E+02 0.  0.
<mgrwt>
<rscale>  0 0.67976962E+03</rscale>
<asrwt>0</asrwt>
<pdfrwt beam="1">  1        2 0.31532936E+00 0.67976962E+03</pdfrwt>
<pdfrwt beam="2">  1       -2 0.74765806E-02 0.67976962E+03</pdfrwt>
<totfact> 0.70761071E+02</totfact>
</mgrwt>
</event>
<event>
 4    1  0.6853809E-004  0.2142805E+03  0.7818608E-02  0.1138220E+00
          2   -1    0    0  501    0  0.00000000000E+00  0.00000000000E+00  0.13055001373E+04  0.13055001373E+04  0.25500000000E-02 0.  1.
         -2   -1    0    0    0  501 -0.00000000000E+00 -0.00000000000E+00 -0.87928270533E+01  0.87928274230E+01  0.25500000000E-02 0. -1.
    5000001    1    1    2    0    0  0.45384588586E+02 -0.47334174260E+02  0.43152263270E+03  0.44321672742E+03  0.77000000000E+02 0.  0.
   -5000001    1    1    2    0    0 -0.45384588586E+02  0.47334174260E+02  0.86518467755E+03  0.87107623731E+03  0.77000000000E+02 0.  0.
<mgrwt>
<rscale>  0 0.21428054E+03</rscale>
<asrwt>0</asrwt>
<pdfrwt beam="1">  1        2 0.18649994E+00 0.21428054E+03</pdfrwt>
<pdfrwt beam="2">  1       -2 0.12561187E-02 0.21428054E+03</pdfrwt>
<totfact> 0.29598619E+04</totfact>
</mgrwt>
</event>
<event>
 4    1  0.6853809E-004  0.4743960E+03  0.7818608E-02  0.1020687E+00
          2   -1    0    0  501    0  0.00000000000E+00  0.00000000000E+00  0.10540469864E+04  0.10540469864E+04  0.25500000000E-02 0.  1.
         -2   -1    0    0    0  501 -0.00000000000E+00 -0.00000000000E+00 -0.53377972339E+02  0.53377972400E+02  0.25500000000E-02 0. -1.
    5000001    1    1    2    0    0 -0.49894735168E+02 -0.20781808195E+03  0.34104683667E+03  0.40978016617E+03  0.77000000000E+02 0.  0.
   -5000001    1    1    2    0    0  0.49894735168E+02  0.20781808195E+03  0.65962217734E+03  0.69764479258E+03  0.77000000000E+02 0.  0.
<mgrwt>
<rscale>  0 0.47439600E+03</rscale>
<asrwt>0</asrwt>
<pdfrwt beam="1">  1        2 0.15057814E+00 0.47439600E+03</pdfrwt>
<pdfrwt beam="2">  1       -2 0.76254247E-02 0.47439600E+03</pdfrwt>
<totfact> 0.27689662E+03</totfact>
</mgrwt>
</event>
<event>
 4    1  0.6853809E-004  0.2001581E+03  0.7818608E-02  0.1149606E+00
         -2   -1    0    0    0  501 -0.00000000000E+00  0.00000000000E+00  0.30352991203E+01  0.30353001914E+01  0.25500000000E-02 0. -1.
          2   -1    0    0  501    0  0.00000000000E+00 -0.00000000000E+00 -0.32997779253E+04  0.32997779253E+04  0.25500000000E-02 0.  1.
    5000001    1    1    2    0    0 -0.56495906402E+02 -0.28773248406E+02 -0.15131761222E+04  0.15164599118E+04  0.77000000000E+02 0.  0.
   -5000001    1    1    2    0    0  0.56495906402E+02  0.28773248406E+02 -0.17835665040E+04  0.17863533137E+04  0.77000000000E+02 0.  0.
<mgrwt>
<rscale>  0 0.20015809E+03</rscale>
<asrwt>0</asrwt>
<pdfrwt beam="1">  1        2 0.47139455E+00 0.20015809E+03</pdfrwt>
<pdfrwt beam="2">  1       -2 0.43361635E-03 0.20015809E+03</pdfrwt>
<totfact> 0.13570263E+04</totfact>
</mgrwt>
</event>
<event>
 4    1  0.6853809E-004  0.2569440E+03  0.7818608E-02  0.1108993E+00
         -2   -1    0    0    0  501 -0.00000000000E+00  0.00000000000E+00  0.15398948893E+02  0.15398949104E+02  0.25500000000E-02 0. -1.
          2   -1    0    0  501    0  0.00000000000E+00 -0.00000000000E+00 -0.10718299701E+04  0.10718299701E+04  0.25500000000E-02 0.  1.
    5000001    1    1    2    0    0  0.89387771743E+02  0.50115142108E+02 -0.56470217966E+03  0.57906757198E+03  0.77000000000E+02 0.  0.
   -5000001    1    1    2    0    0 -0.89387771743E+02 -0.50115142108E+02 -0.49172884150E+03  0.50816134718E+03  0.77000000000E+02 0.  0.
<mgrwt>
<rscale>  0 0.25694400E+03</rscale>
<asrwt>0</asrwt>
<pdfrwt beam="1">  1        2 0.15311852E+00 0.25694400E+03</pdfrwt>
<pdfrwt beam="2">  1       -2 0.21998505E-02 0.25694400E+03</pdfrwt>
<totfact> 0.17650004E+04</totfact>
</mgrwt>
</event>
<event>
 4    1  0.6853809E-004  0.1680107E+03  0.7818608E-02  0.1179938E+00
          2   -1    0    0  501    0  0.00000000000E+00  0.00000000000E+00  0.37663057365E+03  0.37663057365E+03  0.25500000000E-02 0.  1.
         -2   -1    0    0    0  501 -0.00000000000E+00 -0.00000000000E+00 -0.18736915603E+02  0.18736915777E+02  0.25500000000E-02 0. -1.
    5000001    1    1    2    0    0  0.32138839417E+02 -0.33863114783E+01  0.20045322776E+03  0.21715171799E+03  0.77000000000E+02 0.  0.
   -5000001    1    1    2    0    0 -0.32138839417E+02  0.33863114783E+01  0.15744043028E+03  0.17821577144E+03  0.77000000000E+02 0.  0.
<mgrwt>
<rscale>  0 0.16801066E+03</rscale>
<asrwt>0</asrwt>
<pdfrwt beam="1">  1        2 0.53804365E-01 0.16801066E+03</pdfrwt>
<pdfrwt beam="2">  1       -2 0.26767024E-02 0.16801066E+03</pdfrwt>
<totfact> 0.43896413E+04</totfact>
</mgrwt>
</event>
<event>
 4    1  0.6853809E-004  0.5800158E+03  0.7818608E-02  0.9947757E-01
          2   -1    0    0  501    0  0.00000000000E+00  0.00000000000E+00  0.10217667009E+04  0.10217667009E+04  0.25500000000E-02 0.  1.
         -2   -1    0    0    0  501 -0.00000000000E+00 -0.00000000000E+00 -0.82312891517E+02  0.82312891557E+02  0.25500000000E-02 0. -1.
    5000001    1    1    2    0    0 -0.26978478068E+03  0.16707885109E+01  0.32998947472E+03  0.43313816831E+03  0.77000000000E+02 0.  0.
   -5000001    1    1    2    0    0  0.26978478068E+03 -0.16707885109E+01  0.60946433466E+03  0.67094142415E+03  0.77000000000E+02 0.  0.
<mgrwt>
<rscale>  0 0.58001576E+03</rscale>
<asrwt>0</asrwt>
<pdfrwt beam="1">  1        2 0.14596668E+00 0.58001576E+03</pdfrwt>
<pdfrwt beam="2">  1       -2 0.11758984E-01 0.58001576E+03</pdfrwt>
<totfact> 0.14399621E+03</totfact>
</mgrwt>
</event>
<event>
 4    1  0.6853809E-004  0.1759857E+03  0.7818608E-02  0.1171746E+00
         -2   -1    0    0    0  501 -0.00000000000E+00  0.00000000000E+00  0.36625912219E+01  0.36625921096E+01  0.25500000000E-02 0. -1.
          2   -1    0    0  501    0  0.00000000000E+00 -0.00000000000E+00 -0.21140062690E+04  0.21140062690E+04  0.25500000000E-02 0.  1.
    5000001    1    1    2    0    0  0.33476665535E+02  0.22739217453E+02 -0.89554146435E+03  0.89975623005E+03  0.77000000000E+02 0.  0.
   -5000001    1    1    2    0    0 -0.33476665535E+02 -0.22739217453E+02 -0.12148022134E+04  0.12179126311E+04  0.77000000000E+02 0.  0.
<mgrwt>
<rscale>  0 0.17598570E+03</rscale>
<asrwt>0</asrwt>
<pdfrwt beam="1">  1        2 0.30200011E+00 0.17598570E+03</pdfrwt>
<pdfrwt beam="2">  1       -2 0.52322873E-03 0.17598570E+03</pdfrwt>
<totfact> 0.41273171E+04</totfact>
</mgrwt>
</event>
<event>
 4    1  0.6853809E-004  0.2657423E+03  0.7818608E-02  0.1103741E+00
         -2   -1    0    0    0  501 -0.00000000000E+00  0.00000000000E+00  0.71630293125E+02  0.71630293170E+02  0.25500000000E-02 0. -1.
          2   -1    0    0  501    0  0.00000000000E+00 -0.00000000000E+00 -0.24647037620E+03  0.24647037622E+03  0.25500000000E-02 0.  1.
    5000001    1    1    2    0    0 -0.46613139844E+01 -0.10142608865E+03 -0.42364011629E+02  0.13428584731E+03  0.77000000000E+02 0.  0.
   -5000001    1    1    2    0    0  0.46613139844E+01  0.10142608865E+03 -0.13247607145E+03  0.18381482207E+03  0.77000000000E+02 0.  0.
<mgrwt>
<rscale>  0 0.26574232E+03</rscale>
<asrwt>0</asrwt>
<pdfrwt beam="1">  1        2 0.35210053E-01 0.26574232E+03</pdfrwt>
<pdfrwt beam="2">  1       -2 0.10232899E-01 0.26574232E+03</pdfrwt>
<totfact> 0.92956172E+03</totfact>
</mgrwt>
</event>
<event>
 4    1  0.6853809E-004  0.2715697E+03  0.7818608E-02  0.1100385E+00
          2   -1    0    0  501    0  0.00000000000E+00  0.00000000000E+00  0.10799925422E+04  0.10799925422E+04  0.25500000000E-02 0.  1.
         -2   -1    0    0    0  501 -0.00000000000E+00 -0.00000000000E+00 -0.17071898014E+02  0.17071898204E+02  0.25500000000E-02 0. -1.
    5000001    1    1    2    0    0 -0.92282856464E+02  0.61016931425E+02  0.59775736092E+03  0.61276590478E+03  0.77000000000E+02 0.  0.
   -5000001    1    1    2    0    0  0.92282856464E+02 -0.61016931425E+02  0.46516328323E+03  0.48429853559E+03  0.77000000000E+02 0.  0.
<mgrwt>
<rscale>  0 0.27156968E+03</rscale>
<asrwt>0</asrwt>
<pdfrwt beam="1">  1        2 0.15428469E+00 0.27156968E+03</pdfrwt>
<pdfrwt beam="2">  1       -2 0.24388420E-02 0.27156968E+03</pdfrwt>
<totfact> 0.15031401E+04</totfact>
</mgrwt>
</event>
<event>
 4    1  0.6853809E-004  0.3153759E+03  0.7818608E-02  0.1077797E+00
         -2   -1    0    0    0  501 -0.00000000000E+00  0.00000000000E+00  0.10944064048E+02  0.10944064345E+02  0.25500000000E-02 0.  1.
          2   -1    0    0  501    0  0.00000000000E+00 -0.00000000000E+00 -0.22720530302E+04  0.22720530302E+04  0.25500000000E-02 0. -1.
    5000001    1    1    2    0    0 -0.13467001329E+03 -0.24216726616E+02 -0.10246495809E+04  0.10366090034E+04  0.77000000000E+02 0.  0.
   -5000001    1    1    2    0    0  0.13467001329E+03  0.24216726616E+02 -0.12364593853E+04  0.12463880911E+04  0.77000000000E+02 0.  0.
<mgrwt>
<rscale>  0 0.31537593E+03</rscale>
<asrwt>0</asrwt>
<pdfrwt beam="1">  1        2 0.32457870E+00 0.31537593E+03</pdfrwt>
<pdfrwt beam="2">  1       -2 0.15634392E-02 0.31537593E+03</pdfrwt>
<totfact> 0.72254535E+03</totfact>
</mgrwt>
</event>
<event>
 4    1  0.6853809E-004  0.2057299E+03  0.7818608E-02  0.1144993E+00
         -2   -1    0    0    0  501 -0.00000000000E+00  0.00000000000E+00  0.79838042647E+01  0.79838046720E+01  0.25500000000E-02 0. -1.
          2   -1    0    0  501    0  0.00000000000E+00 -0.00000000000E+00 -0.13253333006E+04  0.13253333006E+04  0.25500000000E-02 0.  1.
    5000001    1    1    2    0    0 -0.25976043178E+01  0.61424411465E+02 -0.46724135790E+03  0.47751774041E+03  0.77000000000E+02 0.  0.
   -5000001    1    1    2    0    0  0.25976043178E+01 -0.61424411465E+02 -0.85010813842E+03  0.85579936485E+03  0.77000000000E+02 0.  0.
<mgrwt>
<rscale>  0 0.20572994E+03</rscale>
<asrwt>0</asrwt>
<pdfrwt beam="1">  1        2 0.18933319E+00 0.20572994E+03</pdfrwt>
<pdfrwt beam="2">  1       -2 0.11405443E-02 0.20572994E+03</pdfrwt>
<totfact> 0.33156743E+04</totfact>
</mgrwt>
</event>
<event>
 4    1  0.6853809E-004  0.4585623E+03  0.7818608E-02  0.1025199E+00
         -2   -1    0    0    0  501 -0.00000000000E+00  0.00000000000E+00  0.29394397457E+02  0.29394397568E+02  0.25500000000E-02 0. -1.
          2   -1    0    0  501    0  0.00000000000E+00 -0.00000000000E+00 -0.17884304704E+04  0.17884304704E+04  0.25500000000E-02 0.  1.
    5000001    1    1    2    0    0 -0.17677732094E+03 -0.73363115008E+02 -0.12761041857E+04  0.12926729133E+04  0.77000000000E+02 0.  0.
   -5000001    1    1    2    0    0  0.17677732094E+03  0.73363115008E+02 -0.48293188718E+03  0.52515195467E+03  0.77000000000E+02 0.  0.
<mgrwt>
<rscale>  0 0.45856226E+03</rscale>
<asrwt>0</asrwt>
<pdfrwt beam="1">  1        2 0.25549000E+00 0.45856226E+03</pdfrwt>
<pdfrwt beam="2">  1       -2 0.41992008E-02 0.45856226E+03</pdfrwt>
<totfact> 0.28523853E+03</totfact>
</mgrwt>
</event>
<event>
 4    1  0.6853809E-004  0.2544252E+03  0.7818608E-02  0.1110540E+00
          2   -1    0    0  501    0  0.00000000000E+00  0.00000000000E+00  0.39277653180E+03  0.39277653180E+03  0.25500000000E-02 0.  1.
         -2   -1    0    0    0  501 -0.00000000000E+00 -0.00000000000E+00 -0.41201655519E+02  0.41201655598E+02  0.25500000000E-02 0. -1.
    5000001    1    1    2    0    0 -0.95546642928E+01 -0.68709066249E+02  0.49958731470E+02  0.11505260642E+03  0.77000000000E+02 0.  0.
   -5000001    1    1    2    0    0  0.95546642928E+01  0.68709066249E+02  0.30161614481E+03  0.31892558098E+03  0.77000000000E+02 0.  0.
<mgrwt>
<rscale>  0 0.25442518E+03</rscale>
<asrwt>0</asrwt>
<pdfrwt beam="1">  1        2 0.56110935E-01 0.25442518E+03</pdfrwt>
<pdfrwt beam="2">  1       -2 0.58859506E-02 0.25442518E+03</pdfrwt>
<totfact> 0.13298016E+04</totfact>
</mgrwt>
</event>
<event>
 4    1  0.6853809E-004  0.3507594E+03  0.7818608E-02  0.1062304E+00
         -2   -1    0    0    0  501 -0.00000000000E+00  0.00000000000E+00  0.24802736635E+02  0.24802736766E+02  0.25500000000E-02 0. -1.
          2   -1    0    0  501    0  0.00000000000E+00 -0.00000000000E+00 -0.12401063866E+04  0.12401063866E+04  0.25500000000E-02 0.  1.
    5000001    1    1    2    0    0 -0.63188642805E+02 -0.14201576592E+03 -0.51446447698E+03  0.54292170745E+03  0.77000000000E+02 0.  0.
   -5000001    1    1    2    0    0  0.63188642805E+02  0.14201576592E+03 -0.70083917295E+03  0.72198741588E+03  0.77000000000E+02 0.  0.
<mgrwt>
<rscale>  0 0.35075936E+03</rscale>
<asrwt>0</asrwt>
<pdfrwt beam="1">  1        2 0.17715802E+00 0.35075936E+03</pdfrwt>
<pdfrwt beam="2">  1       -2 0.35432489E-02 0.35075936E+03</pdfrwt>
<totfact> 0.70671236E+03</totfact>
</mgrwt>
</event>
<event>
 4    1  0.6853809E-004  0.5497458E+03  0.7818608E-02  0.1001553E+00
          2   -1    0    0  501    0  0.00000000000E+00  0.00000000000E+00  0.56726853771E+02  0.56726853829E+02  0.25500000000E-02 0.  1.
         -2   -1    0    0    0  501 -0.00000000000E+00 -0.00000000000E+00 -0.13319110233E+04  0.13319110233E+04  0.25500000000E-02 0. -1.
    5000001    1    1    2    0    0 -0.15643043765E+02  0.24383163344E+03 -0.38591241643E+03  0.46320186035E+03  0.77000000000E+02 0.  0.
   -5000001    1    1    2    0    0  0.15643043765E+02 -0.24383163344E+03 -0.88927175307E+03  0.92543601674E+03  0.77000000000E+02 0.  0.
<mgrwt>
<rscale>  0 0.54974584E+03</rscale>
<asrwt>0</asrwt>
<pdfrwt beam="1">  1        2 0.81038371E-02 0.54974584E+03</pdfrwt>
<pdfrwt beam="2">  1       -2 0.19027298E+00 0.54974584E+03</pdfrwt>
<totfact> 0.13782604E+02</totfact>
</mgrwt>
</event>
<event>
 4    1  0.6853809E-004  0.2174148E+03  0.7818608E-02  0.1135825E+00
         -2   -1    0    0    0  501 -0.00000000000E+00  0.00000000000E+00  0.11435086772E+02  0.11435087056E+02  0.25500000000E-02 0. -1.
          2   -1    0    0  501    0  0.00000000000E+00 -0.00000000000E+00 -0.10334245391E+04  0.10334245391E+04  0.25500000000E-02 0.  1.
    5000001    1    1    2    0    0 -0.11440192565E+02  0.57325924671E+02 -0.27209302285E+03  0.28875725571E+03  0.77000000000E+02 0.  0.
   -5000001    1    1    2    0    0  0.11440192565E+02 -0.57325924671E+02 -0.74989642953E+03  0.75610237049E+03  0.77000000000E+02 0.  0.
<mgrwt>
<rscale>  0 0.21741481E+03</rscale>
<asrwt>0</asrwt>
<pdfrwt beam="1">  1        2 0.14763202E+00 0.21741481E+03</pdfrwt>
<pdfrwt beam="2">  1       -2 0.16335845E-02 0.21741481E+03</pdfrwt>
<totfact> 0.28458813E+04</totfact>
</mgrwt>
</event>
<event>
 4    1  0.6853809E-004  0.1835194E+03  0.7818608E-02  0.1164440E+00
          2   -1    0    0  501    0  0.00000000000E+00  0.00000000000E+00  0.48936501470E+03  0.48936501470E+03  0.25500000000E-02 0.  1.
         -2   -1    0    0    0  501 -0.00000000000E+00 -0.00000000000E+00 -0.17205640327E+02  0.17205640516E+02  0.25500000000E-02 0. -1.
    5000001    1    1    2    0    0 -0.75148465477E+00  0.47574707728E+02  0.27766073567E+03  0.29204178071E+03  0.77000000000E+02 0.  0.
   -5000001    1    1    2    0    0  0.75148465477E+00 -0.47574707728E+02  0.19449863870E+03  0.21452887451E+03  0.77000000000E+02 0.  0.
<mgrwt>
<rscale>  0 0.18351936E+03</rscale>
<asrwt>0</asrwt>
<pdfrwt beam="1">  1        2 0.69909284E-01 0.18351936E+03</pdfrwt>
<pdfrwt beam="2">  1       -2 0.24579488E-02 0.18351936E+03</pdfrwt>
<totfact> 0.37838585E+04</totfact>
</mgrwt>
</event>
<event>
 4    1  0.6853809E-004  0.4901418E+03  0.7818608E-02  0.1016385E+00
         -2   -1    0    0    0  501 -0.00000000000E+00  0.00000000000E+00  0.45632525680E+03  0.45632525681E+03  0.25500000000E-02 0. -1.
          2   -1    0    0  501    0  0.00000000000E+00 -0.00000000000E+00 -0.13161609844E+03  0.13161609846E+03  0.25500000000E-02 0.  1.
    5000001    1    1    2    0    0 -0.10927360213E+03  0.11471565711E+02  0.40835666959E+03  0.42983309149E+03  0.77000000000E+02 0.  0.
   -5000001    1    1    2    0    0  0.10927360213E+03 -0.11471565711E+02 -0.83647511224E+02  0.15810826379E+03  0.77000000000E+02 0.  0.
<mgrwt>
<rscale>  0 0.49014182E+03</rscale>
<asrwt>0</asrwt>
<pdfrwt beam="1">  1        2 0.18802300E-01 0.49014182E+03</pdfrwt>
<pdfrwt beam="2">  1       -2 0.65189323E-01 0.49014182E+03</pdfrwt>
<totfact> 0.66726647E+02</totfact>
</mgrwt>
</event>
<event>
 4    1  0.6853809E-004  0.2028786E+03  0.7818608E-02  0.1147333E+00
         -2   -1    0    0    0  501 -0.00000000000E+00  0.00000000000E+00  0.77431864294E+02  0.77431864336E+02  0.25500000000E-02 0. -1.
          2   -1    0    0  501    0  0.00000000000E+00 -0.00000000000E+00 -0.13289012927E+03  0.13289012929E+03  0.25500000000E-02 0.  1.
    5000001    1    1    2    0    0 -0.44941049687E+02 -0.29867381537E+02 -0.67193799849E+02  0.11556714570E+03  0.77000000000E+02 0.  0.
   -5000001    1    1    2    0    0  0.44941049687E+02  0.29867381537E+02  0.11735534877E+02  0.94754847927E+02  0.77000000000E+02 0.  0.
<mgrwt>
<rscale>  0 0.20287859E+03</rscale>
<asrwt>0</asrwt>
<pdfrwt beam="1">  1        2 0.18984304E-01 0.20287859E+03</pdfrwt>
<pdfrwt beam="2">  1       -2 0.11061695E-01 0.20287859E+03</pdfrwt>
<totfact> 0.16061862E+04</totfact>
</mgrwt>
</event>
<event>
 4    1  0.6853809E-004  0.2490300E+03  0.7818608E-02  0.1113919E+00
         -2   -1    0    0    0  501 -0.00000000000E+00  0.00000000000E+00  0.30460116709E+03  0.30460116710E+03  0.25500000000E-02 0. -1.
          2   -1    0    0  501    0  0.00000000000E+00 -0.00000000000E+00 -0.50899277113E+02  0.50899277177E+02  0.25500000000E-02 0.  1.
    5000001    1    1    2    0    0  0.65762926560E+02 -0.70157792651E+02  0.15270878467E+03  0.19620359654E+03  0.77000000000E+02 0.  0.
   -5000001    1    1    2    0    0 -0.65762926560E+02  0.70157792651E+02  0.10099310530E+03  0.15929684773E+03  0.77000000000E+02 0.  0.
<mgrwt>
<rscale>  0 0.24902995E+03</rscale>
<asrwt>0</asrwt>
<pdfrwt beam="1">  1        2 0.72713253E-02 0.24902995E+03</pdfrwt>
<pdfrwt beam="2">  1       -2 0.43514452E-01 0.24902995E+03</pdfrwt>
<totfact> 0.48128158E+03</totfact>
</mgrwt>
</event>
<event>
 4    1  0.6853809E-004  0.2078603E+03  0.7818608E-02  0.1143272E+00
          2   -1    0    0  501    0  0.00000000000E+00  0.00000000000E+00  0.12010571454E+04  0.12010571454E+04  0.25500000000E-02 0.  1.
         -2   -1    0    0    0  501 -0.00000000000E+00 -0.00000000000E+00 -0.89933049689E+01  0.89933053304E+01  0.25500000000E-02 0. -1.
    5000001    1    1    2    0    0 -0.39200126324E+02 -0.52395007337E+02  0.45455883689E+03  0.46565504710E+03  0.77000000000E+02 0.  0.
   -5000001    1    1    2    0    0  0.39200126324E+02  0.52395007337E+02  0.73750500356E+03  0.74439540365E+03  0.77000000000E+02 0.  0.
<mgrwt>
<rscale>  0 0.20786027E+03</rscale>
<asrwt>0</asrwt>
<pdfrwt beam="1">  1        2 0.17157948E+00 0.20786027E+03</pdfrwt>
<pdfrwt beam="2">  1       -2 0.12847587E-02 0.20786027E+03</pdfrwt>
<totfact> 0.32472039E+04</totfact>
</mgrwt>
</event>
<event>
 4    1  0.6853809E-004  0.1940146E+03  0.7818608E-02  0.1154889E+00
         -2   -1    0    0    0  501 -0.00000000000E+00  0.00000000000E+00  0.30238764420E+01  0.30238775172E+01  0.25500000000E-02 0. -1.
          2   -1    0    0  501    0  0.00000000000E+00 -0.00000000000E+00 -0.31120356886E+04  0.31120356886E+04  0.25500000000E-02 0.  1.
    5000001    1    1    2    0    0 -0.29391084499E+02  0.50962794699E+02 -0.16269721840E+04  0.16298553708E+04  0.77000000000E+02 0.  0.
   -5000001    1    1    2    0    0  0.29391084499E+02 -0.50962794699E+02 -0.14820396282E+04  0.14852041954E+04  0.77000000000E+02 0.  0.
<mgrwt>
<rscale>  0 0.19401457E+03</rscale>
<asrwt>0</asrwt>
<pdfrwt beam="1">  1        2 0.44457448E+00 0.19401457E+03</pdfrwt>
<pdfrwt beam="2">  1       -2 0.43198442E-03 0.19401457E+03</pdfrwt>
<totfact> 0.17237527E+04</totfact>
</mgrwt>
</event>
<event>
 4    1  0.6853809E-004  0.3443352E+03  0.7818608E-02  0.1064964E+00
          2   -1    0    0  501    0  0.00000000000E+00  0.00000000000E+00  0.12577355302E+03  0.12577355304E+03  0.25500000000E-02 0.  1.
         -2   -1    0    0    0  501 -0.00000000000E+00 -0.00000000000E+00 -0.23567496641E+03  0.23567496643E+03  0.25500000000E-02 0. -1.
    5000001    1    1    2    0    0  0.31880302550E+01 -0.14241672420E+03 -0.11633786725E+03  0.19938953389E+03  0.77000000000E+02 0.  0.
   -5000001    1    1    2    0    0 -0.31880302550E+01  0.14241672420E+03  0.64364538542E+01  0.16205898558E+03  0.77000000000E+02 0.  0.
<mgrwt>
<rscale>  0 0.34433517E+03</rscale>
<asrwt>0</asrwt>
<pdfrwt beam="1">  1        2 0.17967650E-01 0.34433517E+03</pdfrwt>
<pdfrwt beam="2">  1       -2 0.33667852E-01 0.34433517E+03</pdfrwt>
<totfact> 0.26104779E+03</totfact>
</mgrwt>
</event>
<event>
 4    1  0.6853809E-004  0.2348963E+03  0.7818608E-02  0.1123240E+00
         -2   -1    0    0    0  501 -0.00000000000E+00  0.00000000000E+00  0.27245866103E+02  0.27245866222E+02  0.25500000000E-02 0. -1.
          2   -1    0    0  501    0  0.00000000000E+00 -0.00000000000E+00 -0.50628118025E+03  0.50628118026E+03  0.25500000000E-02 0.  1.
    5000001    1    1    2    0    0  0.73225879362E+02  0.26725692076E+02 -0.33558115033E+03  0.35301558108E+03  0.77000000000E+02 0.  0.
   -5000001    1    1    2    0    0 -0.73225879362E+02 -0.26725692076E+02 -0.14345416382E+03  0.18051146540E+03  0.77000000000E+02 0.  0.
<mgrwt>
<rscale>  0 0.23489631E+03</rscale>
<asrwt>0</asrwt>
<pdfrwt beam="1">  1        2 0.72325877E-01 0.23489631E+03</pdfrwt>
<pdfrwt beam="2">  1       -2 0.38922669E-02 0.23489631E+03</pdfrwt>
<totfact> 0.18781028E+04</totfact>
</mgrwt>
</event>
<event>
 4    1  0.6853809E-004  0.2315834E+03  0.7818608E-02  0.1125530E+00
          2   -1    0    0  501    0  0.00000000000E+00  0.00000000000E+00  0.14927872171E+04  0.14927872171E+04  0.25500000000E-02 0.  1.
         -2   -1    0    0    0  501 -0.00000000000E+00 -0.00000000000E+00 -0.89816676023E+01  0.89816679643E+01  0.25500000000E-02 0. -1.
    5000001    1    1    2    0    0 -0.27634574319E+02  0.80618915156E+02  0.64667579766E+03  0.65679651830E+03  0.77000000000E+02 0.  0.
   -5000001    1    1    2    0    0  0.27634574319E+02 -0.80618915156E+02  0.83712975188E+03  0.84497236680E+03  0.77000000000E+02 0.  0.
<mgrwt>
<rscale>  0 0.23158341E+03</rscale>
<asrwt>0</asrwt>
<pdfrwt beam="1">  1        2 0.21325513E+00 0.23158341E+03</pdfrwt>
<pdfrwt beam="2">  1       -2 0.12830965E-02 0.23158341E+03</pdfrwt>
<totfact> 0.23118025E+04</totfact>
</mgrwt>
</event>
<event>
 4    1  0.6853809E-004  0.2493823E+03  0.7818608E-02  0.1113696E+00
         -2   -1    0    0    0  501 -0.00000000000E+00  0.00000000000E+00  0.52190930178E+02  0.52190930240E+02  0.25500000000E-02 0. -1.
          2   -1    0    0  501    0  0.00000000000E+00 -0.00000000000E+00 -0.29790394344E+03  0.29790394345E+03  0.25500000000E-02 0.  1.
    5000001    1    1    2    0    0  0.43612291782E+02 -0.86550879090E+02 -0.14395150244E+03  0.18985289495E+03  0.77000000000E+02 0.  0.
   -5000001    1    1    2    0    0 -0.43612291782E+02  0.86550879090E+02 -0.10176151082E+03  0.16024197874E+03  0.77000000000E+02 0.  0.
<mgrwt>
<rscale>  0 0.24938231E+03</rscale>
<asrwt>0</asrwt>
<pdfrwt beam="1">  1        2 0.42557705E-01 0.24938231E+03</pdfrwt>
<pdfrwt beam="2">  1       -2 0.74558473E-02 0.24938231E+03</pdfrwt>
<totfact> 0.12421169E+04</totfact>
</mgrwt>
</event>
<event>
 4    1  0.6853809E-004  0.1972787E+03  0.7818608E-02  0.1152055E+00
         -2   -1    0    0    0  501 -0.00000000000E+00  0.00000000000E+00  0.55580313897E+03  0.55580313898E+03  0.25500000000E-02 0. -1.
          2   -1    0    0  501    0  0.00000000000E+00 -0.00000000000E+00 -0.17505702767E+02  0.17505702953E+02  0.25500000000E-02 0.  1.
    5000001    1    1    2    0    0 -0.32562204708E+02  0.52286745304E+02  0.26172613397E+03  0.27968512673E+03  0.77000000000E+02 0.  0.
   -5000001    1    1    2    0    0  0.32562204708E+02 -0.52286745304E+02  0.27657130224E+03  0.29362371520E+03  0.77000000000E+02 0.  0.
<mgrwt>
<rscale>  0 0.19727873E+03</rscale>
<asrwt>0</asrwt>
<pdfrwt beam="1">  1        2 0.25008146E-02 0.19727873E+03</pdfrwt>
<pdfrwt beam="2">  1       -2 0.79400453E-01 0.19727873E+03</pdfrwt>
<totfact> 0.56781508E+03</totfact>
</mgrwt>
</event>
<event>
 4    1  0.6853809E-004  0.3545931E+03  0.7818608E-02  0.1060745E+00
          2   -1    0    0  501    0  0.00000000000E+00  0.00000000000E+00  0.62561577854E+02  0.62561577906E+02  0.25500000000E-02 0.  1.
         -2   -1    0    0    0  501 -0.00000000000E+00 -0.00000000000E+00 -0.50245006948E+03  0.50245006948E+03  0.25500000000E-02 0. -1.
    5000001    1    1    2    0    0 -0.50470900425E+02 -0.13874583179E+03 -0.12292475600E+03  0.20697152767E+03  0.77000000000E+02 0.  0.
   -5000001    1    1    2    0    0  0.50470900425E+02  0.13874583179E+03 -0.31696373562E+03  0.35804011972E+03  0.77000000000E+02 0.  0.
<mgrwt>
<rscale>  0 0.35459311E+03</rscale>
<asrwt>0</asrwt>
<pdfrwt beam="1">  1        2 0.89373685E-02 0.35459311E+03</pdfrwt>
<pdfrwt beam="2">  1       -2 0.71778580E-01 0.35459311E+03</pdfrwt>
<totfact> 0.13423107E+03</totfact>
</mgrwt>
</event>
<event>
 4    1  0.6853809E-004  0.2877073E+03  0.7818608E-02  0.1091552E+00
         -2   -1    0    0    0  501 -0.00000000000E+00  0.00000000000E+00  0.80782883395E+01  0.80782887420E+01  0.25500000000E-02 0. -1.
          2   -1    0    0  501    0  0.00000000000E+00 -0.00000000000E+00 -0.25616657548E+04  0.25616657548E+04  0.25500000000E-02 0.  1.
    5000001    1    1    2    0    0 -0.76548401495E+01  0.12114169989E+03 -0.12270899862E+04  0.12354807737E+04  0.77000000000E+02 0.  0.
   -5000001    1    1    2    0    0  0.76548401495E+01 -0.12114169989E+03 -0.13264974803E+04  0.13342632698E+04  0.77000000000E+02 0.  0.
<mgrwt>
<rscale>  0 0.28770732E+03</rscale>
<asrwt>0</asrwt>
<pdfrwt beam="1">  1        2 0.36595173E+00 0.28770732E+03</pdfrwt>
<pdfrwt beam="2">  1       -2 0.11540429E-02 0.28770732E+03</pdfrwt>
<totfact> 0.80838876E+03</totfact>
</mgrwt>
</event>
<event>
 4    1  0.6853809E-004  0.3454129E+03  0.7818608E-02  0.1064514E+00
          2   -1    0    0  501    0  0.00000000000E+00  0.00000000000E+00  0.48312391080E+02  0.48312391148E+02  0.25500000000E-02 0.  1.
         -2   -1    0    0    0  501 -0.00000000000E+00 -0.00000000000E+00 -0.61738860135E+03  0.61738860136E+03  0.25500000000E-02 0. -1.
    5000001    1    1    2    0    0  0.10488443974E+03 -0.10092455395E+03 -0.38490399639E+03  0.41864853724E+03  0.77000000000E+02 0.  0.
   -5000001    1    1    2    0    0 -0.10488443974E+03  0.10092455395E+03 -0.18417221388E+03  0.24705245527E+03  0.77000000000E+02 0.  0.
<mgrwt>
<rscale>  0 0.34541291E+03</rscale>
<asrwt>0</asrwt>
<pdfrwt beam="1">  1        2 0.69017705E-02 0.34541291E+03</pdfrwt>
<pdfrwt beam="2">  1       -2 0.88198367E-01 0.34541291E+03</pdfrwt>
<totfact> 0.11847274E+03</totfact>
</mgrwt>
</event>
<event>
 4    1  0.6853809E-004  0.2470827E+03  0.7818608E-02  0.1115162E+00
          2   -1    0    0  501    0  0.00000000000E+00  0.00000000000E+00  0.23540017551E+04  0.23540017551E+04  0.25500000000E-02 0.  1.
         -2   -1    0    0    0  501 -0.00000000000E+00 -0.00000000000E+00 -0.64836245646E+01  0.64836250661E+01  0.25500000000E-02 0. -1.
    5000001    1    1    2    0    0 -0.27207508166E+02  0.56001293762E+02  0.18794893981E+04  0.18820961163E+04  0.77000000000E+02 0.  0.
   -5000001    1    1    2    0    0  0.27207508166E+02 -0.56001293762E+02  0.46802873246E+03  0.47838926390E+03  0.77000000000E+02 0.  0.
<mgrwt>
<rscale>  0 0.24708269E+03</rscale>
<asrwt>0</asrwt>
<pdfrwt beam="1">  1        2 0.33628611E+00 0.24708269E+03</pdfrwt>
<pdfrwt beam="2">  1       -2 0.92623171E-03 0.24708269E+03</pdfrwt>
<totfact> 0.14087417E+04</totfact>
</mgrwt>
</event>
<event>
 4    1  0.6853809E-004  0.2057775E+03  0.7818608E-02  0.1144954E+00
         -2   -1    0    0    0  501 -0.00000000000E+00  0.00000000000E+00  0.59430461472E+01  0.59430466943E+01  0.25500000000E-02 0. -1.
          2   -1    0    0  501    0  0.00000000000E+00 -0.00000000000E+00 -0.17812576103E+04  0.17812576103E+04  0.25500000000E-02 0.  1.
    5000001    1    1    2    0    0 -0.52844818831E+02 -0.37745601734E+02 -0.70552005136E+03  0.71267443353E+03  0.77000000000E+02 0.  0.
   -5000001    1    1    2    0    0  0.52844818831E+02  0.37745601734E+02 -0.10697945128E+04  0.10745262234E+04  0.77000000000E+02 0.  0.
<mgrwt>
<rscale>  0 0.20577752E+03</rscale>
<asrwt>0</asrwt>
<pdfrwt beam="1">  1        2 0.25446503E+00 0.20577752E+03</pdfrwt>
<pdfrwt beam="2">  1       -2 0.84900777E-03 0.20577752E+03</pdfrwt>
<totfact> 0.30103038E+04</totfact>
</mgrwt>
</event>
<event>
 4    1  0.6853809E-004  0.4746789E+03  0.7818608E-02  0.1020608E+00
         -2   -1    0    0    0  501 -0.00000000000E+00  0.00000000000E+00  0.13284058753E+03  0.13284058755E+03  0.25500000000E-02 0. -1.
          2   -1    0    0  501    0  0.00000000000E+00 -0.00000000000E+00 -0.42404216531E+03  0.42404216532E+03  0.25500000000E-02 0.  1.
    5000001    1    1    2    0    0 -0.82655156676E+01  0.20966733121E+03 -0.23925170422E+03  0.32741271585E+03  0.77000000000E+02 0.  0.
   -5000001    1    1    2    0    0  0.82655156676E+01 -0.20966733121E+03 -0.51949873572E+02  0.22947003702E+03  0.77000000000E+02 0.  0.
<mgrwt>
<rscale>  0 0.47467888E+03</rscale>
<asrwt>0</asrwt>
<pdfrwt beam="1">  1        2 0.60577452E-01 0.47467888E+03</pdfrwt>
<pdfrwt beam="2">  1       -2 0.18977227E-01 0.47467888E+03</pdfrwt>
<totfact> 0.18831475E+03</totfact>
</mgrwt>
</event>
<event>
 4    1  0.6853809E-004  0.3205243E+03  0.7818608E-02  0.1075408E+00
          2   -1    0    0  501    0  0.00000000000E+00  0.00000000000E+00  0.11288764647E+04  0.11288764647E+04  0.25500000000E-02 0.  1.
         -2   -1    0    0    0  501 -0.00000000000E+00 -0.00000000000E+00 -0.22751783159E+02  0.22751783301E+02  0.25500000000E-02 0. -1.
    5000001    1    1    2    0    0  0.25419999360E+02  0.13155361582E+03  0.40052376975E+03  0.42930271410E+03  0.77000000000E+02 0.  0.
   -5000001    1    1    2    0    0 -0.25419999360E+02 -0.13155361582E+03  0.70560091183E+03  0.72232553393E+03  0.77000000000E+02 0.  0.
<mgrwt>
<rscale>  0 0.32052427E+03</rscale>
<asrwt>0</asrwt>
<pdfrwt beam="1">  1        2 0.16126805E+00 0.32052427E+03</pdfrwt>
<pdfrwt beam="2">  1       -2 0.32502550E-02 0.32052427E+03</pdfrwt>
<totfact> 0.92471553E+03</totfact>
</mgrwt>
</event>
<event>
 4    1  0.6853809E-004  0.2883642E+03  0.7818608E-02  0.1091206E+00
         -2   -1    0    0    0  501 -0.00000000000E+00  0.00000000000E+00  0.31673973551E+02  0.31673973654E+02  0.25500000000E-02 0. -1.
          2   -1    0    0  501    0  0.00000000000E+00 -0.00000000000E+00 -0.65632666951E+03  0.65632666951E+03  0.25500000000E-02 0.  1.
    5000001    1    1    2    0    0 -0.52777746130E+02 -0.10730055839E+03 -0.25583736606E+03  0.29271258632E+03  0.77000000000E+02 0.  0.
   -5000001    1    1    2    0    0  0.52777746130E+02  0.10730055839E+03 -0.36881532989E+03  0.39528805684E+03  0.77000000000E+02 0.  0.
<mgrwt>
<rscale>  0 0.28836417E+03</rscale>
<asrwt>0</asrwt>
<pdfrwt beam="1">  1        2 0.93760944E-01 0.28836417E+03</pdfrwt>
<pdfrwt beam="2">  1       -2 0.45248538E-02 0.28836417E+03</pdfrwt>
<totfact> 0.11268182E+04</totfact>
</mgrwt>
</event>
<event>
 4    1  0.6853809E-004  0.2604635E+03  0.7818608E-02  0.1106865E+00
         -2   -1    0    0    0  501 -0.00000000000E+00  0.00000000000E+00  0.12517419660E+02  0.12517419920E+02  0.25500000000E-02 0. -1.
          2   -1    0    0  501    0  0.00000000000E+00 -0.00000000000E+00 -0.13549360704E+04  0.13549360704E+04  0.25500000000E-02 0.  1.
    5000001    1    1    2    0    0 -0.27863343670E+02  0.51241557305E+02 -0.11297801384E+04  0.11339022110E+04  0.77000000000E+02 0.  0.
   -5000001    1    1    2    0    0  0.27863343670E+02 -0.51241557305E+02 -0.21263851231E+03  0.23355127923E+03  0.77000000000E+02 0.  0.
<mgrwt>
<rscale>  0 0.26046346E+03</rscale>
<asrwt>0</asrwt>
<pdfrwt beam="1">  1        2 0.19356220E+00 0.26046346E+03</pdfrwt>
<pdfrwt beam="2">  1       -2 0.17882037E-02 0.26046346E+03</pdfrwt>
<totfact> 0.16830342E+04</totfact>
</mgrwt>
</event>
<event>
 4    1  0.6853809E-004  0.2273673E+03  0.7818608E-02  0.1128507E+00
         -2   -1    0    0    0  501 -0.00000000000E+00  0.00000000000E+00  0.44484300348E+01  0.44484307657E+01  0.25500000000E-02 0. -1.
          2   -1    0    0  501    0  0.00000000000E+00 -0.00000000000E+00 -0.29052878135E+04  0.29052878135E+04  0.25500000000E-02 0.  1.
    5000001    1    1    2    0    0  0.77608164500E+02 -0.20995554956E+01 -0.18484893327E+04  0.18517206184E+04  0.77000000000E+02 0.  0.
   -5000001    1    1    2    0    0 -0.77608164500E+02  0.20995554956E+01 -0.10523500507E+04  0.10580156258E+04  0.77000000000E+02 0.  0.
<mgrwt>
<rscale>  0 0.22736729E+03</rscale>
<asrwt>0</asrwt>
<pdfrwt beam="1">  1        2 0.41503990E+00 0.22736729E+03</pdfrwt>
<pdfrwt beam="2">  1       -2 0.63549192E-03 0.22736729E+03</pdfrwt>
<totfact> 0.12778120E+04</totfact>
</mgrwt>
</event>
<event>
 4    1  0.6853809E-004  0.2393236E+03  0.7818608E-02  0.1120244E+00
         -2   -1    0    0    0  501 -0.00000000000E+00  0.00000000000E+00  0.14879961845E+02  0.14879962064E+02  0.25500000000E-02 0. -1.
          2   -1    0    0  501    0  0.00000000000E+00 -0.00000000000E+00 -0.96229705193E+03  0.96229705194E+03  0.25500000000E-02 0.  1.
    5000001    1    1    2    0    0 -0.20695509566E+01  0.90514149855E+02 -0.53041031746E+03  0.54356342705E+03  0.77000000000E+02 0.  0.
   -5000001    1    1    2    0    0  0.20695509566E+01 -0.90514149855E+02 -0.41700677263E+03  0.43361358695E+03  0.77000000000E+02 0.  0.
<mgrwt>
<rscale>  0 0.23932358E+03</rscale>
<asrwt>0</asrwt>
<pdfrwt beam="1">  1        2 0.13747097E+00 0.23932358E+03</pdfrwt>
<pdfrwt beam="2">  1       -2 0.21257095E-02 0.23932358E+03</pdfrwt>
<totfact> 0.21432750E+04</totfact>
</mgrwt>
</event>
<event>
 4    1  0.6853809E-004  0.1638758E+03  0.7818608E-02  0.1184389E+00
         -2   -1    0    0    0  501 -0.00000000000E+00  0.00000000000E+00  0.72711640171E+01  0.72711644642E+01  0.25500000000E-02 0. -1.
          2   -1    0    0  501    0  0.00000000000E+00 -0.00000000000E+00 -0.92334824397E+03  0.92334824397E+03  0.25500000000E-02 0.  1.
    5000001    1    1    2    0    0 -0.21161232229E+02  0.15458126465E+02 -0.40180245498E+03  0.40995239267E+03  0.77000000000E+02 0.  0.
   -5000001    1    1    2    0    0  0.21161232229E+02 -0.15458126465E+02 -0.51427462497E+03  0.52066701577E+03  0.77000000000E+02 0.  0.
<mgrwt>
<rscale>  0 0.16387577E+03</rscale>
<asrwt>0</asrwt>
<pdfrwt beam="1">  1        2 0.13190682E+00 0.16387577E+03</pdfrwt>
<pdfrwt beam="2">  1       -2 0.10387383E-02 0.16387577E+03</pdfrwt>
<totfact> 0.62221949E+04</totfact>
</mgrwt>
</event>
<event>
 4    1  0.6853809E-004  0.2255604E+03  0.7818608E-02  0.1129804E+00
          2   -1    0    0  501    0  0.00000000000E+00  0.00000000000E+00  0.45266858979E+03  0.45266858980E+03  0.25500000000E-02 0.  1.
         -2   -1    0    0    0  501 -0.00000000000E+00 -0.00000000000E+00 -0.28098649751E+02  0.28098649867E+02  0.25500000000E-02 0. -1.
    5000001    1    1    2    0    0 -0.18051968591E+02 -0.52545430791E+02  0.34199602311E+03  0.35493263543E+03  0.77000000000E+02 0.  0.
   -5000001    1    1    2    0    0  0.18051968591E+02  0.52545430791E+02  0.82573916929E+02  0.12583460424E+03  0.77000000000E+02 0.  0.
<mgrwt>
<rscale>  0 0.22556042E+03</rscale>
<asrwt>0</asrwt>
<pdfrwt beam="1">  1        2 0.64666943E-01 0.22556042E+03</pdfrwt>
<pdfrwt beam="2">  1       -2 0.40140927E-02 0.22556042E+03</pdfrwt>
<totfact> 0.20220040E+04</totfact>
</mgrwt>
</event>
<event>
 4    1  0.6853809E-004  0.2253736E+03  0.7818608E-02  0.1129939E+00
         -2   -1    0    0    0  501 -0.00000000000E+00  0.00000000000E+00  0.80902665237E+01  0.80902669256E+01  0.25500000000E-02 0. -1.
          2   -1    0    0  501    0  0.00000000000E+00 -0.00000000000E+00 -0.15695796056E+04  0.15695796056E+04  0.25500000000E-02 0.  1.
    5000001    1    1    2    0    0 -0.49223339392E+02  0.64674624832E+02 -0.87027483985E+03  0.87744688792E+03  0.77000000000E+02 0.  0.
   -5000001    1    1    2    0    0  0.49223339392E+02 -0.64674624832E+02 -0.69121449927E+03  0.70022298465E+03  0.77000000000E+02 0.  0.
<mgrwt>
<rscale>  0 0.22537362E+03</rscale>
<asrwt>0</asrwt>
<pdfrwt beam="1">  1        2 0.22422546E+00 0.22537362E+03</pdfrwt>
<pdfrwt beam="2">  1       -2 0.11557534E-02 0.22537362E+03</pdfrwt>
<totfact> 0.24597861E+04</totfact>
</mgrwt>
</event>
<event>
 4    1  0.6853809E-004  0.3173740E+03  0.7818608E-02  0.1076864E+00
          2   -1    0    0  501    0  0.00000000000E+00  0.00000000000E+00  0.75549882908E+03  0.75549882908E+03  0.25500000000E-02 0.  1.
         -2   -1    0    0    0  501 -0.00000000000E+00 -0.00000000000E+00 -0.33331037350E+02  0.33331037447E+02  0.25500000000E-02 0. -1.
    5000001    1    1    2    0    0  0.11576691515E+03 -0.32664907285E+02  0.18917878828E+03  0.23703710415E+03  0.77000000000E+02 0.  0.
   -5000001    1    1    2    0    0 -0.11576691515E+03  0.32664907285E+02  0.53298900345E+03  0.55179276237E+03  0.77000000000E+02 0.  0.
<mgrwt>
<rscale>  0 0.31737397E+03</rscale>
<asrwt>0</asrwt>
<pdfrwt beam="1">  1        2 0.10792840E+00 0.31737397E+03</pdfrwt>
<pdfrwt beam="2">  1       -2 0.47615771E-02 0.31737397E+03</pdfrwt>
<totfact> 0.88447903E+03</totfact>
</mgrwt>
</event>
<event>
 4    1  0.6853809E-004  0.2428846E+03  0.7818608E-02  0.1117886E+00
         -2   -1    0    0    0  501 -0.00000000000E+00  0.00000000000E+00  0.16243700836E+02  0.16243701036E+02  0.25500000000E-02 0. -1.
          2   -1    0    0  501    0  0.00000000000E+00 -0.00000000000E+00 -0.90793569819E+03  0.90793569820E+03  0.25500000000E-02 0.  1.
    5000001    1    1    2    0    0  0.72601726366E+02 -0.57196693149E+02 -0.50914701974E+03  0.52316551883E+03  0.77000000000E+02 0.  0.
   -5000001    1    1    2    0    0 -0.72601726366E+02  0.57196693149E+02 -0.38254497762E+03  0.40101388041E+03  0.77000000000E+02 0.  0.
<mgrwt>
<rscale>  0 0.24288463E+03</rscale>
<asrwt>0</asrwt>
<pdfrwt beam="1">  1        2 0.12970507E+00 0.24288463E+03</pdfrwt>
<pdfrwt beam="2">  1       -2 0.23205293E-02 0.24288463E+03</pdfrwt>
<totfact> 0.20347504E+04</totfact>
</mgrwt>
</event>
<event>
 4    1  0.6853809E-004  0.1920473E+03  0.7818608E-02  0.1156628E+00
          2   -1    0    0  501    0  0.00000000000E+00  0.00000000000E+00  0.27146571267E+04  0.27146571267E+04  0.25500000000E-02 0.  1.
         -2   -1    0    0    0  501 -0.00000000000E+00 -0.00000000000E+00 -0.33965771022E+01  0.33965780594E+01  0.25500000000E-02 0. -1.
    5000001    1    1    2    0    0 -0.53931706593E+02 -0.18849232611E+02  0.14300125438E+04  0.14332232199E+04  0.77000000000E+02 0.  0.
   -5000001    1    1    2    0    0  0.53931706593E+02  0.18849232611E+02  0.12812480058E+04  0.12848304849E+04  0.77000000000E+02 0.  0.
<mgrwt>
<rscale>  0 0.19204732E+03</rscale>
<asrwt>0</asrwt>
<pdfrwt beam="1">  1        2 0.38780945E+00 0.19204732E+03</pdfrwt>
<pdfrwt beam="2">  1       -2 0.48522376E-03 0.19204732E+03</pdfrwt>
<totfact> 0.23445451E+04</totfact>
</mgrwt>
</event>
<event>
 4    1  0.6853809E-004  0.5912908E+03  0.7818608E-02  0.9923641E-01
          2   -1    0    0  501    0  0.00000000000E+00  0.00000000000E+00  0.84951653173E+03  0.84951653173E+03  0.25500000000E-02 0.  1.
         -2   -1    0    0    0  501 -0.00000000000E+00 -0.00000000000E+00 -0.10288935689E+03  0.10288935692E+03  0.25500000000E-02 0. -1.
    5000001    1    1    2    0    0  0.27744461849E+03  0.62769437956E+02  0.33513941317E+03  0.44627675823E+03  0.77000000000E+02 0.  0.
   -5000001    1    1    2    0    0 -0.27744461849E+03 -0.62769437956E+02  0.41148776166E+03  0.50612913043E+03  0.77000000000E+02 0.  0.
<mgrwt>
<rscale>  0 0.59129082E+03</rscale>
<asrwt>0</asrwt>
<pdfrwt beam="1">  1        2 0.12135950E+00 0.59129082E+03</pdfrwt>
<pdfrwt beam="2">  1       -2 0.14698480E-01 0.59129082E+03</pdfrwt>
<totfact> 0.12773329E+03</totfact>
</mgrwt>
</event>
<event>
 4    1  0.6853809E-004  0.5029831E+03  0.7818608E-02  0.1013003E+00
          2   -1    0    0  501    0  0.00000000000E+00  0.00000000000E+00  0.16828702363E+04  0.16828702363E+04  0.25500000000E-02 0.  1.
         -2   -1    0    0    0  501 -0.00000000000E+00 -0.00000000000E+00 -0.37583413757E+02  0.37583413844E+02  0.25500000000E-02 0. -1.
    5000001    1    1    2    0    0  0.92631900239E+01 -0.13543111737E+03  0.14808814312E+03  0.21514295799E+03  0.77000000000E+02 0.  0.
   -5000001    1    1    2    0    0 -0.92631900239E+01  0.13543111737E+03  0.14971986794E+04  0.15053106921E+04  0.77000000000E+02 0.  0.
<mgrwt>
<rscale>  0 0.50298313E+03</rscale>
<asrwt>0</asrwt>
<pdfrwt beam="1">  1        2 0.24041006E+00 0.50298313E+03</pdfrwt>
<pdfrwt beam="2">  1       -2 0.53690585E-02 0.50298313E+03</pdfrwt>
<totfact> 0.22053429E+03</totfact>
</mgrwt>
</event>
<event>
 4    1  0.6853809E-004  0.4652964E+03  0.7818608E-02  0.1023256E+00
          2   -1    0    0  501    0  0.00000000000E+00  0.00000000000E+00  0.52346384338E+03  0.52346384339E+03  0.25500000000E-02 0.  1.
         -2   -1    0    0    0  501 -0.00000000000E+00 -0.00000000000E+00 -0.10339813372E+03  0.10339813375E+03  0.25500000000E-02 0. -1.
    5000001    1    1    2    0    0 -0.18310050458E+03 -0.10651055654E+03  0.13233728663E+03  0.26136650678E+03  0.77000000000E+02 0.  0.
   -5000001    1    1    2    0    0  0.18310050458E+03  0.10651055654E+03  0.28772842304E+03  0.36549547036E+03  0.77000000000E+02 0.  0.
<mgrwt>
<rscale>  0 0.46529640E+03</rscale>
<asrwt>0</asrwt>
<pdfrwt beam="1">  1        2 0.74780549E-01 0.46529640E+03</pdfrwt>
<pdfrwt beam="2">  1       -2 0.14771162E-01 0.46529640E+03</pdfrwt>
<totfact> 0.22738647E+03</totfact>
</mgrwt>
</event>
<event>
 4    1  0.6853809E-004  0.2939622E+03  0.7818608E-02  0.1088298E+00
         -2   -1    0    0    0  501 -0.00000000000E+00  0.00000000000E+00  0.14107177077E+02  0.14107177308E+02  0.25500000000E-02 0.  1.
          2   -1    0    0  501    0  0.00000000000E+00 -0.00000000000E+00 -0.15313798668E+04  0.15313798668E+04  0.25500000000E-02 0. -1.
    5000001    1    1    2    0    0  0.56938581045E+02 -0.10700683688E+03 -0.92338641392E+03  0.93448591994E+03  0.77000000000E+02 0.  0.
   -5000001    1    1    2    0    0 -0.56938581045E+02  0.10700683688E+03 -0.59388627576E+03  0.61100112413E+03  0.77000000000E+02 0.  0.
<mgrwt>
<rscale>  0 0.29396222E+03</rscale>
<asrwt>0</asrwt>
<pdfrwt beam="1">  1        2 0.21876845E+00 0.29396222E+03</pdfrwt>
<pdfrwt beam="2">  1       -2 0.20153120E-02 0.29396222E+03</pdfrwt>
<totfact> 0.11515004E+04</totfact>
</mgrwt>
</event>
<event>
 4    1  0.6853809E-004  0.2077587E+03  0.7818608E-02  0.1143353E+00
          2   -1    0    0  501    0  0.00000000000E+00  0.00000000000E+00  0.25757580163E+04  0.25757580163E+04  0.25500000000E-02 0.  1.
         -2   -1    0    0    0  501 -0.00000000000E+00 -0.00000000000E+00 -0.41894141590E+01  0.41894149351E+01  0.25500000000E-02 0. -1.
    5000001    1    1    2    0    0  0.50712428638E+02  0.42280718447E+02  0.15641549132E+04  0.15674402707E+04  0.77000000000E+02 0.  0.
   -5000001    1    1    2    0    0 -0.50712428638E+02 -0.42280718447E+02  0.10074136889E+04  0.10125071606E+04  0.77000000000E+02 0.  0.
<mgrwt>
<rscale>  0 0.20775869E+03</rscale>
<asrwt>0</asrwt>
<pdfrwt beam="1">  1        2 0.36796607E+00 0.20775869E+03</pdfrwt>
<pdfrwt beam="2">  1       -2 0.59848675E-03 0.20775869E+03</pdfrwt>
<totfact> 0.20437819E+04</totfact>
</mgrwt>
</event>
<event>
 4    1  0.6853809E-004  0.2673955E+03  0.7818608E-02  0.1102780E+00
          2   -1    0    0  501    0  0.00000000000E+00  0.00000000000E+00  0.22749312945E+04  0.22749312945E+04  0.25500000000E-02 0.  1.
         -2   -1    0    0    0  501 -0.00000000000E+00 -0.00000000000E+00 -0.78574184636E+01  0.78574188774E+01  0.25500000000E-02 0. -1.
    5000001    1    1    2    0    0 -0.50877642950E+02  0.64441612512E+02  0.17494437038E+04  0.17530611880E+04  0.77000000000E+02 0.  0.
   -5000001    1    1    2    0    0  0.50877642950E+02 -0.64441612512E+02  0.51763017229E+03  0.52972752547E+03  0.77000000000E+02 0.  0.
<mgrwt>
<rscale>  0 0.26739549E+03</rscale>
<asrwt>0</asrwt>
<pdfrwt beam="1">  1        2 0.32499028E+00 0.26739549E+03</pdfrwt>
<pdfrwt beam="2">  1       -2 0.11224881E-02 0.26739549E+03</pdfrwt>
<totfact> 0.11672958E+04</totfact>
</mgrwt>
</event>
<event>
 4    1  0.6853809E-004  0.3973546E+03  0.7818608E-02  0.1044700E+00
          2   -1    0    0  501    0  0.00000000000E+00  0.00000000000E+00  0.13150047884E+04  0.13150047884E+04  0.25500000000E-02 0.  1.
         -2   -1    0    0    0  501 -0.00000000000E+00 -0.00000000000E+00 -0.30017135978E+02  0.30017136086E+02  0.25500000000E-02 0. -1.
    5000001    1    1    2    0    0 -0.14916347550E+03 -0.10430981271E+03  0.71131710310E+03  0.73826235216E+03  0.77000000000E+02 0.  0.
   -5000001    1    1    2    0    0  0.14916347550E+03  0.10430981271E+03  0.57367054930E+03  0.60675957231E+03  0.77000000000E+02 0.  0.
<mgrwt>
<rscale>  0 0.39735464E+03</rscale>
<asrwt>0</asrwt>
<pdfrwt beam="1">  1        2 0.18785783E+00 0.39735464E+03</pdfrwt>
<pdfrwt beam="2">  1       -2 0.42881622E-02 0.39735464E+03</pdfrwt>
<totfact> 0.48312446E+03</totfact>
</mgrwt>
</event>
<event>
 4    1  0.6853809E-004  0.1864567E+03  0.7818608E-02  0.1161697E+00
         -2   -1    0    0    0  501 -0.00000000000E+00  0.00000000000E+00  0.10154109197E+02  0.10154109517E+02  0.25500000000E-02 0. -1.
          2   -1    0    0  501    0  0.00000000000E+00 -0.00000000000E+00 -0.85596153708E+03  0.85596153708E+03  0.25500000000E-02 0.  1.
    5000001    1    1    2    0    0 -0.28012715660E+02  0.41778907040E+02 -0.35209972432E+03  0.36391400794E+03  0.77000000000E+02 0.  0.
   -5000001    1    1    2    0    0  0.28012715660E+02 -0.41778907040E+02 -0.49370770356E+03  0.50220163866E+03  0.77000000000E+02 0.  0.
<mgrwt>
<rscale>  0 0.18645672E+03</rscale>
<asrwt>0</asrwt>
<pdfrwt beam="1">  1        2 0.12228017E+00 0.18645672E+03</pdfrwt>
<pdfrwt beam="2">  1       -2 0.14505876E-02 0.18645672E+03</pdfrwt>
<totfact> 0.42805846E+04</totfact>
</mgrwt>
</event>
<event>
 4    1  0.6853809E-004  0.2163035E+03  0.7818608E-02  0.1136669E+00
         -2   -1    0    0    0  501 -0.00000000000E+00  0.00000000000E+00  0.16032839177E+03  0.16032839179E+03  0.25500000000E-02 0. -1.
          2   -1    0    0  501    0  0.00000000000E+00 -0.00000000000E+00 -0.72955277340E+02  0.72955277385E+02  0.25500000000E-02 0.  1.
    5000001    1    1    2    0    0  0.32225719980E+02 -0.58624898559E+02  0.82459047891E+02  0.13116352518E+03  0.77000000000E+02 0.  0.
   -5000001    1    1    2    0    0 -0.32225719980E+02  0.58624898559E+02  0.49140665404E+01  0.10212014399E+03  0.77000000000E+02 0.  0.
<mgrwt>
<rscale>  0 0.21630351E+03</rscale>
<asrwt>0</asrwt>
<pdfrwt beam="1">  1        2 0.10422183E-01 0.21630351E+03</pdfrwt>
<pdfrwt beam="2">  1       -2 0.22904055E-01 0.21630351E+03</pdfrwt>
<totfact> 0.98368284E+03</totfact>
</mgrwt>
</event>
<event>
 4    1  0.6853809E-004  0.3249271E+03  0.7818608E-02  0.1073404E+00
         -2   -1    0    0    0  501 -0.00000000000E+00  0.00000000000E+00  0.60299208762E+02  0.60299208816E+02  0.25500000000E-02 0. -1.
          2   -1    0    0  501    0  0.00000000000E+00 -0.00000000000E+00 -0.43772388569E+03  0.43772388570E+03  0.25500000000E-02 0.  1.
    5000001    1    1    2    0    0 -0.79602355471E+02  0.11816830826E+03 -0.20840766890E+03  0.26393756938E+03  0.77000000000E+02 0.  0.
   -5000001    1    1    2    0    0  0.79602355471E+02 -0.11816830826E+03 -0.16901700803E+03  0.23408552513E+03  0.77000000000E+02 0.  0.
<mgrwt>
<rscale>  0 0.32492709E+03</rscale>
<asrwt>0</asrwt>
<pdfrwt beam="1">  1        2 0.62531982E-01 0.32492709E+03</pdfrwt>
<pdfrwt beam="2">  1       -2 0.86141729E-02 0.32492709E+03</pdfrwt>
<totfact> 0.66086980E+03</totfact>
</mgrwt>
</event>
<event>
 4    1  0.6853809E-004  0.2766305E+03  0.7818608E-02  0.1097544E+00
         -2   -1    0    0    0  501 -0.00000000000E+00  0.00000000000E+00  0.12881559979E+02  0.12881560231E+02  0.25500000000E-02 0. -1.
          2   -1    0    0  501    0  0.00000000000E+00 -0.00000000000E+00 -0.14851543785E+04  0.14851543785E+04  0.25500000000E-02 0.  1.
    5000001    1    1    2    0    0  0.67488752282E+02  0.17433541233E+02 -0.24148993543E+03  0.26287839196E+03  0.77000000000E+02 0.  0.
   -5000001    1    1    2    0    0 -0.67488752282E+02 -0.17433541233E+02 -0.12307828831E+04  0.12351575468E+04  0.77000000000E+02 0.  0.
<mgrwt>
<rscale>  0 0.27663048E+03</rscale>
<asrwt>0</asrwt>
<pdfrwt beam="1">  1        2 0.21216480E+00 0.27663048E+03</pdfrwt>
<pdfrwt beam="2">  1       -2 0.18402238E-02 0.27663048E+03</pdfrwt>
<totfact> 0.13867814E+04</totfact>
</mgrwt>
</event>
<event>
 4    1  0.6853809E-004  0.2347208E+03  0.7818608E-02  0.1123361E+00
          2   -1    0    0  501    0  0.00000000000E+00  0.00000000000E+00  0.12768076548E+04  0.12768076548E+04  0.25500000000E-02 0.  1.
         -2   -1    0    0    0  501 -0.00000000000E+00 -0.00000000000E+00 -0.10787418045E+02  0.10787418346E+02  0.25500000000E-02 0. -1.
    5000001    1    1    2    0    0  0.12954566671E+01  0.80021568779E+02  0.84112722014E+03  0.84842744541E+03  0.77000000000E+02 0.  0.
   -5000001    1    1    2    0    0 -0.12954566671E+01 -0.80021568779E+02  0.42489301660E+03  0.43916762772E+03  0.77000000000E+02 0.  0.
<mgrwt>
<rscale>  0 0.23472075E+03</rscale>
<asrwt>0</asrwt>
<pdfrwt beam="1">  1        2 0.18240110E+00 0.23472075E+03</pdfrwt>
<pdfrwt beam="2">  1       -2 0.15410597E-02 0.23472075E+03</pdfrwt>
<totfact> 0.22877091E+04</totfact>
</mgrwt>
</event>
<event>
 4    1  0.6853809E-004  0.6161914E+03  0.7818608E-02  0.9872372E-01
         -2   -1    0    0    0  501 -0.00000000000E+00  0.00000000000E+00  0.11667216240E+03  0.11667216243E+03  0.25500000000E-02 0.  1.
          2   -1    0    0  501    0  0.00000000000E+00 -0.00000000000E+00 -0.81358707918E+03  0.81358707918E+03  0.25500000000E-02 0. -1.
    5000001    1    1    2    0    0  0.39439321025E+02 -0.28470155144E+03 -0.46907731787E+03  0.55549344152E+03  0.77000000000E+02 0.  0.
   -5000001    1    1    2    0    0 -0.39439321025E+02  0.28470155144E+03 -0.22783759891E+03  0.37476580009E+03  0.77000000000E+02 0.  0.
<mgrwt>
<rscale>  0 0.61619141E+03</rscale>
<asrwt>0</asrwt>
<pdfrwt beam="1">  1        2 0.11622672E+00 0.61619141E+03</pdfrwt>
<pdfrwt beam="2">  1       -2 0.16667452E-01 0.61619141E+03</pdfrwt>
<totfact> 0.10916775E+03</totfact>
</mgrwt>
</event>
<event>
 4    1  0.6853809E-004  0.3141920E+03  0.7818608E-02  0.1078354E+00
          2   -1    0    0  501    0  0.00000000000E+00  0.00000000000E+00  0.13657306661E+04  0.13657306661E+04  0.25500000000E-02 0.  1.
         -2   -1    0    0    0  501 -0.00000000000E+00 -0.00000000000E+00 -0.18070294336E+02  0.18070294516E+02  0.25500000000E-02 0. -1.
    5000001    1    1    2    0    0  0.11395512818E+03 -0.71530911267E+02  0.78592091824E+03  0.80106375042E+03  0.77000000000E+02 0.  0.
   -5000001    1    1    2    0    0 -0.11395512818E+03  0.71530911267E+02  0.56173945351E+03  0.58273721018E+03  0.77000000000E+02 0.  0.
<mgrwt>
<rscale>  0 0.31419201E+03</rscale>
<asrwt>0</asrwt>
<pdfrwt beam="1">  1        2 0.19510438E+00 0.31419201E+03</pdfrwt>
<pdfrwt beam="2">  1       -2 0.25814706E-02 0.31419201E+03</pdfrwt>
<totfact> 0.97167560E+03</totfact>
</mgrwt>
</event>
<event>
 4    1  0.6853809E-004  0.4478134E+03  0.7818608E-02  0.1028376E+00
          2   -1    0    0  501    0  0.00000000000E+00  0.00000000000E+00  0.18913785502E+03  0.18913785503E+03  0.25500000000E-02 0.  1.
         -2   -1    0    0    0  501 -0.00000000000E+00 -0.00000000000E+00 -0.26506705472E+03  0.26506705473E+03  0.25500000000E-02 0. -1.
    5000001    1    1    2    0    0  0.16207252777E+03 -0.12556109016E+03  0.93066281967E+01  0.21920014815E+03  0.77000000000E+02 0.  0.
   -5000001    1    1    2    0    0 -0.16207252777E+03  0.12556109016E+03 -0.85235827903E+02  0.23500476161E+03  0.77000000000E+02 0.  0.
<mgrwt>
<rscale>  0 0.44781342E+03</rscale>
<asrwt>0</asrwt>
<pdfrwt beam="1">  1        2 0.27019694E-01 0.44781342E+03</pdfrwt>
<pdfrwt beam="2">  1       -2 0.37866722E-01 0.44781342E+03</pdfrwt>
<totfact> 0.13153919E+03</totfact>
</mgrwt>
</event>
<event>
 4    1  0.6853809E-004  0.2874668E+03  0.7818608E-02  0.1091679E+00
         -2   -1    0    0    0  501 -0.00000000000E+00  0.00000000000E+00  0.38510408178E+02  0.38510408263E+02  0.25500000000E-02 0. -1.
          2   -1    0    0  501    0  0.00000000000E+00 -0.00000000000E+00 -0.53645983976E+03  0.53645983977E+03  0.25500000000E-02 0.  1.
    5000001    1    1    2    0    0  0.18469237127E+02  0.10207617794E+03 -0.37499273418E+03  0.39662225040E+03  0.77000000000E+02 0.  0.
   -5000001    1    1    2    0    0 -0.18469237127E+02 -0.10207617794E+03 -0.12295669741E+03  0.17834799764E+03  0.77000000000E+02 0.  0.
<mgrwt>
<rscale>  0 0.28746678E+03</rscale>
<asrwt>0</asrwt>
<pdfrwt beam="1">  1        2 0.76637115E-01 0.28746678E+03</pdfrwt>
<pdfrwt beam="2">  1       -2 0.55014872E-02 0.28746678E+03</pdfrwt>
<totfact> 0.10537132E+04</totfact>
</mgrwt>
</event>
<event>
 4    1  0.6853809E-004  0.2084221E+03  0.7818608E-02  0.1142822E+00
          2   -1    0    0  501    0  0.00000000000E+00  0.00000000000E+00  0.30307547748E+04  0.30307547748E+04  0.25500000000E-02 0.  1.
         -2   -1    0    0    0  501 -0.00000000000E+00 -0.00000000000E+00 -0.35832477648E+01  0.35832486722E+01  0.25500000000E-02 0. -1.
    5000001    1    1    2    0    0  0.41766912264E+02  0.46467141056E+02  0.10469652870E+04  0.10516505990E+04  0.77000000000E+02 0.  0.
   -5000001    1    1    2    0    0 -0.41766912264E+02 -0.46467141056E+02  0.19802062401E+04  0.19826874245E+04  0.77000000000E+02 0.  0.
<mgrwt>
<rscale>  0 0.20842214E+03</rscale>
<asrwt>0</asrwt>
<pdfrwt beam="1">  1        2 0.43296374E+00 0.20842214E+03</pdfrwt>
<pdfrwt beam="2">  1       -2 0.51189406E-03 0.20842214E+03</pdfrwt>
<totfact> 0.14960342E+04</totfact>
</mgrwt>
</event>
<event>
 4    1  0.6853809E-004  0.2237772E+03  0.7818608E-02  0.1131098E+00
         -2   -1    0    0    0  501 -0.00000000000E+00  0.00000000000E+00  0.20814278520E+03  0.20814278521E+03  0.25500000000E-02 0. -1.
          2   -1    0    0  501    0  0.00000000000E+00 -0.00000000000E+00 -0.60146503396E+02  0.60146503450E+02  0.25500000000E-02 0.  1.
    5000001    1    1    2    0    0  0.78557632873E+02  0.12832921136E+02  0.54887792632E+02  0.12360281278E+03  0.77000000000E+02 0.  0.
   -5000001    1    1    2    0    0 -0.78557632873E+02 -0.12832921136E+02  0.93108489171E+02  0.14468647588E+03  0.77000000000E+02 0.  0.
<mgrwt>
<rscale>  0 0.22377722E+03</rscale>
<asrwt>0</asrwt>
<pdfrwt beam="1">  1        2 0.85923577E-02 0.22377722E+03</pdfrwt>
<pdfrwt beam="2">  1       -2 0.29734683E-01 0.22377722E+03</pdfrwt>
<totfact> 0.78957524E+03</totfact>
</mgrwt>
</event>
<event>
 4    1  0.6853809E-004  0.4040181E+03  0.7818608E-02  0.1042397E+00
          2   -1    0    0  501    0  0.00000000000E+00  0.00000000000E+00  0.55362054578E+03  0.55362054579E+03  0.25500000000E-02 0.  1.
         -2   -1    0    0    0  501 -0.00000000000E+00 -0.00000000000E+00 -0.73710532084E+02  0.73710532128E+02  0.25500000000E-02 0. -1.
    5000001    1    1    2    0    0  0.12674573577E+03  0.13619244072E+03  0.21464014718E+03  0.29429960113E+03  0.77000000000E+02 0.  0.
   -5000001    1    1    2    0    0 -0.12674573577E+03 -0.13619244072E+03  0.26526986652E+03  0.33303147678E+03  0.77000000000E+02 0.  0.
<mgrwt>
<rscale>  0 0.40401814E+03</rscale>
<asrwt>0</asrwt>
<pdfrwt beam="1">  1        2 0.79088650E-01 0.40401814E+03</pdfrwt>
<pdfrwt beam="2">  1       -2 0.10530076E-01 0.40401814E+03</pdfrwt>
<totfact> 0.37103274E+03</totfact>
</mgrwt>
</event>
<event>
 4    1  0.6853809E-004  0.2676353E+03  0.7818608E-02  0.1102641E+00
         -2   -1    0    0    0  501 -0.00000000000E+00  0.00000000000E+00  0.98609852863E+01  0.98609856160E+01  0.25500000000E-02 0. -1.
          2   -1    0    0  501    0  0.00000000000E+00 -0.00000000000E+00 -0.18159614585E+04  0.18159614585E+04  0.25500000000E-02 0.  1.
    5000001    1    1    2    0    0  0.10263839876E+03  0.42723774258E+01 -0.11606019659E+04  0.11676809571E+04  0.77000000000E+02 0.  0.
   -5000001    1    1    2    0    0 -0.10263839876E+03 -0.42723774258E+01 -0.64549850722E+03  0.65814148702E+03  0.77000000000E+02 0.  0.
<mgrwt>
<rscale>  0 0.26763535E+03</rscale>
<asrwt>0</asrwt>
<pdfrwt beam="1">  1        2 0.25942285E+00 0.26763535E+03</pdfrwt>
<pdfrwt beam="2">  1       -2 0.14087134E-02 0.26763535E+03</pdfrwt>
<totfact> 0.14042379E+04</totfact>
</mgrwt>
</event>
<event>
 4    1  0.6853809E-004  0.1777221E+03  0.7818608E-02  0.1170026E+00
          2   -1    0    0  501    0  0.00000000000E+00  0.00000000000E+00  0.16043517193E+02  0.16043517395E+02  0.25500000000E-02 0.  1.
         -2   -1    0    0    0  501 -0.00000000000E+00 -0.00000000000E+00 -0.49217920223E+03  0.49217920224E+03  0.25500000000E-02 0. -1.
    5000001    1    1    2    0    0 -0.30953952283E+02  0.14390218530E+02 -0.15708069826E+03  0.17823740157E+03  0.77000000000E+02 0.  0.
   -5000001    1    1    2    0    0  0.30953952283E+02 -0.14390218530E+02 -0.31905498678E+03  0.32998531806E+03  0.77000000000E+02 0.  0.
<mgrwt>
<rscale>  0 0.17772209E+03</rscale>
<asrwt>0</asrwt>
<pdfrwt beam="1">  1        2 0.22919313E-02 0.17772209E+03</pdfrwt>
<pdfrwt beam="2">  1       -2 0.70311305E-01 0.17772209E+03</pdfrwt>
<totfact> 0.82530840E+03</totfact>
</mgrwt>
</event>
<event>
 4    1  0.6853809E-004  0.2837947E+03  0.7818608E-02  0.1093634E+00
         -2   -1    0    0    0  501 -0.00000000000E+00  0.00000000000E+00  0.54858028319E+03  0.54858028319E+03  0.25500000000E-02 0. -1.
          2   -1    0    0  501    0  0.00000000000E+00 -0.00000000000E+00 -0.36703581204E+02  0.36703581292E+02  0.25500000000E-02 0.  1.
    5000001    1    1    2    0    0 -0.78513693416E+02 -0.85110762631E+02  0.31418353090E+03  0.34358191608E+03  0.77000000000E+02 0.  0.
   -5000001    1    1    2    0    0  0.78513693416E+02  0.85110762631E+02  0.19769317109E+03  0.24170194841E+03  0.77000000000E+02 0.  0.
<mgrwt>
<rscale>  0 0.28379472E+03</rscale>
<asrwt>0</asrwt>
<pdfrwt beam="1">  1        2 0.52433694E-02 0.28379472E+03</pdfrwt>
<pdfrwt beam="2">  1       -2 0.78368602E-01 0.28379472E+03</pdfrwt>
<totfact> 0.21994052E+03</totfact>
</mgrwt>
</event>
<event>
 4    1  0.6853809E-004  0.3035795E+03  0.7818608E-02  0.1083465E+00
          2   -1    0    0  501    0  0.00000000000E+00  0.00000000000E+00  0.12301442724E+03  0.12301442727E+03  0.25500000000E-02 0.  1.
         -2   -1    0    0    0  501 -0.00000000000E+00 -0.00000000000E+00 -0.18729612042E+03  0.18729612043E+03  0.25500000000E-02 0. -1.
    5000001    1    1    2    0    0 -0.34637100905E+02  0.11952260690E+03  0.90736527441E+01  0.14661757567E+03  0.77000000000E+02 0.  0.
   -5000001    1    1    2    0    0  0.34637100905E+02 -0.11952260690E+03 -0.73355345916E+02  0.16369297204E+03  0.77000000000E+02 0.  0.
<mgrwt>
<rscale>  0 0.30357948E+03</rscale>
<asrwt>0</asrwt>
<pdfrwt beam="1">  1        2 0.17573490E-01 0.30357948E+03</pdfrwt>
<pdfrwt beam="2">  1       -2 0.26756588E-01 0.30357948E+03</pdfrwt>
<totfact> 0.40596131E+03</totfact>
</mgrwt>
</event>
<event>
 4    1  0.6853809E-004  0.2188360E+03  0.7818608E-02  0.1134754E+00
         -2   -1    0    0    0  501 -0.00000000000E+00  0.00000000000E+00  0.11257120149E+02  0.11257120438E+02  0.25500000000E-02 0. -1.
          2   -1    0    0  501    0  0.00000000000E+00 -0.00000000000E+00 -0.10635316800E+04  0.10635316800E+04  0.25500000000E-02 0.  1.
    5000001    1    1    2    0    0  0.24146261045E+02  0.33621660164E+02 -0.84931431928E+03  0.85380165782E+03  0.77000000000E+02 0.  0.
   -5000001    1    1    2    0    0 -0.24146261045E+02 -0.33621660164E+02 -0.20296024061E+03  0.22098714267E+03  0.77000000000E+02 0.  0.
<mgrwt>
<rscale>  0 0.21883605E+03</rscale>
<asrwt>0</asrwt>
<pdfrwt beam="1">  1        2 0.15193303E+00 0.21883605E+03</pdfrwt>
<pdfrwt beam="2">  1       -2 0.16081607E-02 0.21883605E+03</pdfrwt>
<totfact> 0.27996368E+04</totfact>
</mgrwt>
</event>
<event>
 4    1  0.6853809E-004  0.1668184E+03  0.7818608E-02  0.1181207E+00
         -2   -1    0    0    0  501 -0.00000000000E+00  0.00000000000E+00  0.13395136182E+03  0.13395136185E+03  0.25500000000E-02 0. -1.
          2   -1    0    0  501    0  0.00000000000E+00 -0.00000000000E+00 -0.51937451291E+02  0.51937451353E+02  0.25500000000E-02 0.  1.
    5000001    1    1    2    0    0 -0.25489882435E+02 -0.19300730076E+02  0.38314071190E+02  0.91756309533E+02  0.77000000000E+02 0.  0.
   -5000001    1    1    2    0    0  0.25489882435E+02  0.19300730076E+02  0.43699839341E+02  0.94132503666E+02  0.77000000000E+02 0.  0.
<mgrwt>
<rscale>  0 0.16681837E+03</rscale>
<asrwt>0</asrwt>
<pdfrwt beam="1">  1        2 0.74196359E-02 0.16681837E+03</pdfrwt>
<pdfrwt beam="2">  1       -2 0.19135909E-01 0.16681837E+03</pdfrwt>
<totfact> 0.20065704E+04</totfact>
</mgrwt>
</event>
<event>
 4    1  0.6853809E-004  0.1823632E+03  0.7818608E-02  0.1165535E+00
          2   -1    0    0  501    0  0.00000000000E+00  0.00000000000E+00  0.14864092820E+04  0.14864092820E+04  0.25500000000E-02 0.  1.
         -2   -1    0    0    0  501 -0.00000000000E+00 -0.00000000000E+00 -0.55934007704E+01  0.55934013517E+01  0.25500000000E-02 0. -1.
    5000001    1    1    2    0    0  0.26657677112E+02 -0.39293604973E+02  0.83385765194E+03  0.83875038172E+03  0.77000000000E+02 0.  0.
   -5000001    1    1    2    0    0 -0.26657677112E+02  0.39293604973E+02  0.64695822927E+03  0.65325230161E+03  0.77000000000E+02 0.  0.
<mgrwt>
<rscale>  0 0.18236319E+03</rscale>
<asrwt>0</asrwt>
<pdfrwt beam="1">  1        2 0.21234412E+00 0.18236319E+03</pdfrwt>
<pdfrwt beam="2">  1       -2 0.79905755E-03 0.18236319E+03</pdfrwt>
<totfact> 0.45476146E+04</totfact>
</mgrwt>
</event>
<event>
 4    1  0.6853809E-004  0.1918577E+03  0.7818608E-02  0.1156796E+00
          2   -1    0    0  501    0  0.00000000000E+00  0.00000000000E+00  0.12999935675E+04  0.12999935675E+04  0.25500000000E-02 0.  1.
         -2   -1    0    0    0  501 -0.00000000000E+00 -0.00000000000E+00 -0.70787644632E+01  0.70787649225E+01  0.25500000000E-02 0. -1.
    5000001    1    1    2    0    0  0.43026643813E+02  0.36768189457E+02  0.58939435244E+03  0.59709119448E+03  0.77000000000E+02 0.  0.
   -5000001    1    1    2    0    0 -0.43026643813E+02 -0.36768189457E+02  0.70352045055E+03  0.70998113791E+03  0.77000000000E+02 0.  0.
<mgrwt>
<rscale>  0 0.19185774E+03</rscale>
<asrwt>0</asrwt>
<pdfrwt beam="1">  1        2 0.18571347E+00 0.19185774E+03</pdfrwt>
<pdfrwt beam="2">  1       -2 0.10112515E-02 0.19185774E+03</pdfrwt>
<totfact> 0.40468346E+04</totfact>
</mgrwt>
</event>
<event>
 4    1  0.6853809E-004  0.2824111E+03  0.7818608E-02  0.1094379E+00
          2   -1    0    0  501    0  0.00000000000E+00  0.00000000000E+00  0.20929978328E+04  0.20929978328E+04  0.25500000000E-02 0.  1.
         -2   -1    0    0    0  501 -0.00000000000E+00 -0.00000000000E+00 -0.95265321401E+01  0.95265324814E+01  0.25500000000E-02 0. -1.
    5000001    1    1    2    0    0  0.68719079780E+02  0.72177850849E+02  0.15171649002E+04  0.15223830952E+04  0.77000000000E+02 0.  0.
   -5000001    1    1    2    0    0 -0.68719079780E+02 -0.72177850849E+02  0.56630640045E+03  0.58014127010E+03  0.77000000000E+02 0.  0.
<mgrwt>
<rscale>  0 0.28241113E+03</rscale>
<asrwt>0</asrwt>
<pdfrwt beam="1">  1        2 0.29899979E+00 0.28241113E+03</pdfrwt>
<pdfrwt beam="2">  1       -2 0.13609327E-02 0.28241113E+03</pdfrwt>
<totfact> 0.10829469E+04</totfact>
</mgrwt>
</event>
<event>
 4    1  0.6853809E-004  0.2616056E+03  0.7818608E-02  0.1106182E+00
          2   -1    0    0  501    0  0.00000000000E+00  0.00000000000E+00  0.23007226488E+03  0.23007226489E+03  0.25500000000E-02 0.  1.
         -2   -1    0    0    0  501 -0.00000000000E+00 -0.00000000000E+00 -0.74365227126E+02  0.74365227169E+02  0.25500000000E-02 0. -1.
    5000001    1    1    2    0    0 -0.27063829338E+02  0.99676030263E+02  0.10420144527E+03  0.16569460783E+03  0.77000000000E+02 0.  0.
   -5000001    1    1    2    0    0  0.27063829338E+02 -0.99676030263E+02  0.51505592477E+02  0.13874288423E+03  0.77000000000E+02 0.  0.
<mgrwt>
<rscale>  0 0.26160563E+03</rscale>
<asrwt>0</asrwt>
<pdfrwt beam="1">  1        2 0.32867467E-01 0.26160563E+03</pdfrwt>
<pdfrwt beam="2">  1       -2 0.10623604E-01 0.26160563E+03</pdfrwt>
<totfact> 0.94303455E+03</totfact>
</mgrwt>
</event>
<event>
 4    1  0.6853809E-004  0.2059924E+03  0.7818608E-02  0.1144779E+00
          2   -1    0    0  501    0  0.00000000000E+00  0.00000000000E+00  0.25581516692E+03  0.25581516693E+03  0.25500000000E-02 0.  1.
         -2   -1    0    0    0  501 -0.00000000000E+00 -0.00000000000E+00 -0.41468271521E+02  0.41468271599E+02  0.25500000000E-02 0. -1.
    5000001    1    1    2    0    0  0.16482445337E+02 -0.62757214036E+02  0.13842994017E+03  0.17117823242E+03  0.77000000000E+02 0.  0.
   -5000001    1    1    2    0    0 -0.16482445337E+02  0.62757214036E+02  0.75916955228E+02  0.12610520611E+03  0.77000000000E+02 0.  0.
<mgrwt>
<rscale>  0 0.20599236E+03</rscale>
<asrwt>0</asrwt>
<pdfrwt beam="1">  1        2 0.36545024E-01 0.20599236E+03</pdfrwt>
<pdfrwt beam="2">  1       -2 0.59240387E-02 0.20599236E+03</pdfrwt>
<totfact> 0.20595140E+04</totfact>
</mgrwt>
</event>
<event>
 4    1  0.6853809E-004  0.1711168E+03  0.7818608E-02  0.1176688E+00
         -2   -1    0    0    0  501 -0.00000000000E+00  0.00000000000E+00  0.26165889948E+01  0.26165902374E+01  0.25500000000E-02 0. -1.
          2   -1    0    0  501    0  0.00000000000E+00 -0.00000000000E+00 -0.27976253291E+04  0.27976253291E+04  0.25500000000E-02 0.  1.
    5000001    1    1    2    0    0  0.35852337149E+02  0.42813566224E+01 -0.12444132788E+04  0.12473159698E+04  0.77000000000E+02 0.  0.
   -5000001    1    1    2    0    0 -0.35852337149E+02 -0.42813566224E+01 -0.15505954614E+04  0.15529259496E+04  0.77000000000E+02 0.  0.
<mgrwt>
<rscale>  0 0.17111677E+03</rscale>
<asrwt>0</asrwt>
<pdfrwt beam="1">  1        2 0.39965885E+00 0.17111677E+03</pdfrwt>
<pdfrwt beam="2">  1       -2 0.37380031E-03 0.17111677E+03</pdfrwt>
<totfact> 0.30724603E+04</totfact>
</mgrwt>
</event>
<event>
 4    1  0.6853809E-004  0.3431094E+03  0.7818608E-02  0.1065479E+00
         -2   -1    0    0    0  501 -0.00000000000E+00  0.00000000000E+00  0.15447927004E+03  0.15447927006E+03  0.25500000000E-02 0. -1.
          2   -1    0    0  501    0  0.00000000000E+00 -0.00000000000E+00 -0.19051752407E+03  0.19051752409E+03  0.25500000000E-02 0.  1.
    5000001    1    1    2    0    0  0.13915895745E+03 -0.44589398993E+02 -0.64626869615E+02  0.17736702686E+03  0.77000000000E+02 0.  0.
   -5000001    1    1    2    0    0 -0.13915895745E+03  0.44589398993E+02  0.28588615578E+02  0.16762976729E+03  0.77000000000E+02 0.  0.
<mgrwt>
<rscale>  0 0.34310936E+03</rscale>
<asrwt>0</asrwt>
<pdfrwt beam="1">  1        2 0.27216789E-01 0.34310936E+03</pdfrwt>
<pdfrwt beam="2">  1       -2 0.22068467E-01 0.34310936E+03</pdfrwt>
<totfact> 0.34750299E+03</totfact>
</mgrwt>
</event>
<event>
 4    1  0.6853809E-004  0.2534220E+03  0.7818608E-02  0.1111161E+00
          2   -1    0    0  501    0  0.00000000000E+00  0.00000000000E+00  0.15872431552E+04  0.15872431552E+04  0.25500000000E-02 0.  1.
         -2   -1    0    0    0  501 -0.00000000000E+00 -0.00000000000E+00 -0.10115448800E+02  0.10115449122E+02  0.25500000000E-02 0. -1.
    5000001    1    1    2    0    0 -0.97610340761E+02 -0.14397138432E+02  0.66382807153E+03  0.67552332660E+03  0.77000000000E+02 0.  0.
   -5000001    1    1    2    0    0  0.97610340761E+02  0.14397138432E+02  0.91329963484E+03  0.92183527770E+03  0.77000000000E+02 0.  0.
<mgrwt>
<rscale>  0 0.25342200E+03</rscale>
<asrwt>0</asrwt>
<pdfrwt beam="1">  1        2 0.22674864E+00 0.25342200E+03</pdfrwt>
<pdfrwt beam="2">  1       -2 0.14450666E-02 0.25342200E+03</pdfrwt>
<totfact> 0.17506822E+04</totfact>
</mgrwt>
</event>
<event>
 4    1  0.6853809E-004  0.5239393E+03  0.7818608E-02  0.1007713E+00
         -2   -1    0    0    0  501 -0.00000000000E+00  0.00000000000E+00  0.51786126036E+03  0.51786126036E+03  0.25500000000E-02 0. -1.
          2   -1    0    0  501    0  0.00000000000E+00 -0.00000000000E+00 -0.13252216470E+03  0.13252216472E+03  0.25500000000E-02 0.  1.
    5000001    1    1    2    0    0 -0.14882564415E+03 -0.17067137216E+03  0.32533149663E+03  0.40379124846E+03  0.77000000000E+02 0.  0.
   -5000001    1    1    2    0    0  0.14882564415E+03  0.17067137216E+03  0.60007599036E+02  0.24659217663E+03  0.77000000000E+02 0.  0.
<mgrwt>
<rscale>  0 0.52393929E+03</rscale>
<asrwt>0</asrwt>
<pdfrwt beam="1">  1        2 0.18931738E-01 0.52393929E+03</pdfrwt>
<pdfrwt beam="2">  1       -2 0.73980180E-01 0.52393929E+03</pdfrwt>
<totfact> 0.50332314E+02</totfact>
</mgrwt>
</event>
<event>
 4    1  0.6853809E-004  0.2226152E+03  0.7818608E-02  0.1131948E+00
          2   -1    0    0  501    0  0.00000000000E+00  0.00000000000E+00  0.21909638172E+03  0.21909638173E+03  0.25500000000E-02 0.  1.
         -2   -1    0    0    0  501 -0.00000000000E+00 -0.00000000000E+00 -0.56547650590E+02  0.56547650648E+02  0.25500000000E-02 0. -1.
    5000001    1    1    2    0    0 -0.12361312072E+01  0.16312660986E+02  0.17871400149E+03  0.19528268038E+03  0.77000000000E+02 0.  0.
   -5000001    1    1    2    0    0  0.12361312072E+01 -0.16312660986E+02 -0.16165270364E+02  0.80361351997E+02  0.77000000000E+02 0.  0.
<mgrwt>
<rscale>  0 0.22261523E+03</rscale>
<asrwt>0</asrwt>
<pdfrwt beam="1">  1        2 0.31299483E-01 0.22261523E+03</pdfrwt>
<pdfrwt beam="2">  1       -2 0.80782358E-02 0.22261523E+03</pdfrwt>
<totfact> 0.15182758E+04</totfact>
</mgrwt>
</event>
<event>
 4    1  0.6853809E-004  0.2962370E+03  0.7818608E-02  0.1087137E+00
          2   -1    0    0  501    0  0.00000000000E+00  0.00000000000E+00  0.30061135723E+03  0.30061135724E+03  0.25500000000E-02 0.  1.
         -2   -1    0    0    0  501 -0.00000000000E+00 -0.00000000000E+00 -0.72981586351E+02  0.72981586396E+02  0.25500000000E-02 0. -1.
    5000001    1    1    2    0    0 -0.38195869835E+02 -0.12062451055E+03  0.11262065695E+03  0.18606882971E+03  0.77000000000E+02 0.  0.
   -5000001    1    1    2    0    0  0.38195869835E+02  0.12062451055E+03  0.11500911393E+03  0.18752411393E+03  0.77000000000E+02 0.  0.
<mgrwt>
<rscale>  0 0.29623702E+03</rscale>
<asrwt>0</asrwt>
<pdfrwt beam="1">  1        2 0.42944480E-01 0.29623702E+03</pdfrwt>
<pdfrwt beam="2">  1       -2 0.10425941E-01 0.29623702E+03</pdfrwt>
<totfact> 0.73117487E+03</totfact>
</mgrwt>
</event>
<event>
 4    1  0.6853809E-004  0.2164658E+03  0.7818608E-02  0.1136546E+00
          2   -1    0    0  501    0  0.00000000000E+00  0.00000000000E+00  0.11311590669E+04  0.11311590669E+04  0.25500000000E-02 0.  1.
         -2   -1    0    0    0  501 -0.00000000000E+00 -0.00000000000E+00 -0.10356068287E+02  0.10356068600E+02  0.25500000000E-02 0. -1.
    5000001    1    1    2    0    0 -0.56828355904E+02 -0.42615426687E+01  0.29474786099E+03  0.30992406221E+03  0.77000000000E+02 0.  0.
   -5000001    1    1    2    0    0  0.56828355904E+02  0.42615426687E+01  0.82605513759E+03  0.83159107326E+03  0.77000000000E+02 0.  0.
<mgrwt>
<rscale>  0 0.21646580E+03</rscale>
<asrwt>0</asrwt>
<pdfrwt beam="1">  1        2 0.16159412E+00 0.21646580E+03</pdfrwt>
<pdfrwt beam="2">  1       -2 0.14794387E-02 0.21646580E+03</pdfrwt>
<totfact> 0.28954017E+04</totfact>
</mgrwt>
</event>
<event>
 4    1  0.6853809E-004  0.3251816E+03  0.7818608E-02  0.1073289E+00
          2   -1    0    0  501    0  0.00000000000E+00  0.00000000000E+00  0.45715099371E+03  0.45715099372E+03  0.25500000000E-02 0.  1.
         -2   -1    0    0    0  501 -0.00000000000E+00 -0.00000000000E+00 -0.57827226120E+02  0.57827226177E+02  0.25500000000E-02 0. -1.
    5000001    1    1    2    0    0  0.10694367851E+03  0.88419577014E+02  0.25569317877E+03  0.30093682666E+03  0.77000000000E+02 0.  0.
   -5000001    1    1    2    0    0 -0.10694367851E+03 -0.88419577014E+02  0.14363058882E+03  0.21404139323E+03  0.77000000000E+02 0.  0.
<mgrwt>
<rscale>  0 0.32518163E+03</rscale>
<asrwt>0</asrwt>
<pdfrwt beam="1">  1        2 0.65307283E-01 0.32518163E+03</pdfrwt>
<pdfrwt beam="2">  1       -2 0.82610326E-02 0.32518163E+03</pdfrwt>
<totfact> 0.67306035E+03</totfact>
</mgrwt>
</event>
<event>
 4    1  0.6853809E-004  0.3872546E+03  0.7818608E-02  0.1048285E+00
          2   -1    0    0  501    0  0.00000000000E+00  0.00000000000E+00  0.16789591712E+04  0.16789591712E+04  0.25500000000E-02 0.  1.
         -2   -1    0    0    0  501 -0.00000000000E+00 -0.00000000000E+00 -0.22330216719E+02  0.22330216865E+02  0.25500000000E-02 0. -1.
    5000001    1    1    2    0    0 -0.16813498742E+03  0.47166751819E+02  0.97191562477E+03  0.99047617748E+03  0.77000000000E+02 0.  0.
   -5000001    1    1    2    0    0  0.16813498742E+03 -0.47166751819E+02  0.68471332974E+03  0.71081321062E+03  0.77000000000E+02 0.  0.
<mgrwt>
<rscale>  0 0.38725455E+03</rscale>
<asrwt>0</asrwt>
<pdfrwt beam="1">  1        2 0.23985128E+00 0.38725455E+03</pdfrwt>
<pdfrwt beam="2">  1       -2 0.31900314E-02 0.38725455E+03</pdfrwt>
<totfact> 0.49145679E+03</totfact>
</mgrwt>
</event>
<event>
 4    1  0.6853809E-004  0.2297657E+03  0.7818608E-02  0.1126805E+00
         -2   -1    0    0    0  501 -0.00000000000E+00  0.00000000000E+00  0.13986864655E+02  0.13986864887E+02  0.25500000000E-02 0. -1.
          2   -1    0    0  501    0  0.00000000000E+00 -0.00000000000E+00 -0.94360484733E+03  0.94360484733E+03  0.25500000000E-02 0.  1.
    5000001    1    1    2    0    0 -0.26153387988E+02  0.38703185674E+02 -0.76206581655E+03  0.76736904097E+03  0.77000000000E+02 0.  0.
   -5000001    1    1    2    0    0  0.26153387988E+02 -0.38703185674E+02 -0.16755216613E+03  0.19022267125E+03  0.77000000000E+02 0.  0.
<mgrwt>
<rscale>  0 0.22976574E+03</rscale>
<asrwt>0</asrwt>
<pdfrwt beam="1">  1        2 0.13480065E+00 0.22976574E+03</pdfrwt>
<pdfrwt beam="2">  1       -2 0.19981241E-02 0.22976574E+03</pdfrwt>
<totfact> 0.24033349E+04</totfact>
</mgrwt>
</event>
<event>
 4    1  0.6853809E-004  0.2546275E+03  0.7818608E-02  0.1110415E+00
          2   -1    0    0  501    0  0.00000000000E+00  0.00000000000E+00  0.23138671940E+03  0.23138671941E+03  0.25500000000E-02 0.  1.
         -2   -1    0    0    0  501 -0.00000000000E+00 -0.00000000000E+00 -0.70050640317E+02  0.70050640364E+02  0.25500000000E-02 0. -1.
    5000001    1    1    2    0    0 -0.22664472330E+02 -0.59900028329E+02  0.17371863237E+03  0.20052145753E+03  0.77000000000E+02 0.  0.
   -5000001    1    1    2    0    0  0.22664472330E+02  0.59900028329E+02 -0.12382553285E+02  0.10091590224E+03  0.77000000000E+02 0.  0.
<mgrwt>
<rscale>  0 0.25462748E+03</rscale>
<asrwt>0</asrwt>
<pdfrwt beam="1">  1        2 0.33055246E-01 0.25462748E+03</pdfrwt>
<pdfrwt beam="2">  1       -2 0.10007234E-01 0.25462748E+03</pdfrwt>
<totfact> 0.10294203E+04</totfact>
</mgrwt>
</event>
<event>
 4    1  0.6853809E-004  0.3570856E+03  0.7818608E-02  0.1059744E+00
          2   -1    0    0  501    0  0.00000000000E+00  0.00000000000E+00  0.10646402877E+04  0.10646402877E+04  0.25500000000E-02 0.  1.
         -2   -1    0    0    0  501 -0.00000000000E+00 -0.00000000000E+00 -0.29942070652E+02  0.29942070761E+02  0.25500000000E-02 0. -1.
    5000001    1    1    2    0    0  0.80457026872E+02  0.13750599836E+03  0.59035925993E+03  0.61630697590E+03  0.77000000000E+02 0.  0.
   -5000001    1    1    2    0    0 -0.80457026872E+02 -0.13750599836E+03  0.44433895716E+03  0.47827538261E+03  0.77000000000E+02 0.  0.
<mgrwt>
<rscale>  0 0.35708562E+03</rscale>
<asrwt>0</asrwt>
<pdfrwt beam="1">  1        2 0.15209147E+00 0.35708562E+03</pdfrwt>
<pdfrwt beam="2">  1       -2 0.42774387E-02 0.35708562E+03</pdfrwt>
<totfact> 0.66622472E+03</totfact>
</mgrwt>
</event>
<event>
 4    1  0.6853809E-004  0.3935430E+03  0.7818608E-02  0.1046039E+00
          2   -1    0    0  501    0  0.00000000000E+00  0.00000000000E+00  0.60281642183E+03  0.60281642184E+03  0.25500000000E-02 0.  1.
         -2   -1    0    0    0  501 -0.00000000000E+00 -0.00000000000E+00 -0.64230195891E+02  0.64230195942E+02  0.25500000000E-02 0. -1.
    5000001    1    1    2    0    0  0.44553047453E+02  0.15958100675E+03  0.14544432561E+03  0.23352542390E+03  0.77000000000E+02 0.  0.
   -5000001    1    1    2    0    0 -0.44553047453E+02 -0.15958100675E+03  0.39314190033E+03  0.43352119388E+03  0.77000000000E+02 0.  0.
<mgrwt>
<rscale>  0 0.39354297E+03</rscale>
<asrwt>0</asrwt>
<pdfrwt beam="1">  1        2 0.86116634E-01 0.39354297E+03</pdfrwt>
<pdfrwt beam="2">  1       -2 0.91757420E-02 0.39354297E+03</pdfrwt>
<totfact> 0.41927995E+03</totfact>
</mgrwt>
</event>
<event>
 4    1  0.6853809E-004  0.1946665E+03  0.7818608E-02  0.1154319E+00
          2   -1    0    0  501    0  0.00000000000E+00  0.00000000000E+00  0.16147243081E+03  0.16147243083E+03  0.25500000000E-02 0.  1.
         -2   -1    0    0    0  501 -0.00000000000E+00 -0.00000000000E+00 -0.58671065033E+02  0.58671065089E+02  0.25500000000E-02 0. -1.
    5000001    1    1    2    0    0 -0.21769322924E+02  0.27934409382E+02  0.10552372377E+03  0.13534581976E+03  0.77000000000E+02 0.  0.
   -5000001    1    1    2    0    0  0.21769322924E+02 -0.27934409382E+02 -0.27223579983E+01  0.84797676154E+02  0.77000000000E+02 0.  0.
<mgrwt>
<rscale>  0 0.19466648E+03</rscale>
<asrwt>0</asrwt>
<pdfrwt beam="1">  1        2 0.23067490E-01 0.19466648E+03</pdfrwt>
<pdfrwt beam="2">  1       -2 0.83815808E-02 0.19466648E+03</pdfrwt>
<totfact> 0.19888820E+04</totfact>
</mgrwt>
</event>
<event>
 4    1  0.6853809E-004  0.2621158E+03  0.7818608E-02  0.1105879E+00
          2   -1    0    0  501    0  0.00000000000E+00  0.00000000000E+00  0.22791557085E+04  0.22791557085E+04  0.25500000000E-02 0.  1.
         -2   -1    0    0    0  501 -0.00000000000E+00 -0.00000000000E+00 -0.75361978463E+01  0.75361982778E+01  0.25500000000E-02 0. -1.
    5000001    1    1    2    0    0 -0.70731302993E+02 -0.78800004915E+02  0.11872818394E+04  0.11944787667E+04  0.77000000000E+02 0.  0.
   -5000001    1    1    2    0    0  0.70731302993E+02  0.78800004915E+02  0.10843376712E+04  0.10922131400E+04  0.77000000000E+02 0.  0.
<mgrwt>
<rscale>  0 0.26211577E+03</rscale>
<asrwt>0</asrwt>
<pdfrwt beam="1">  1        2 0.32559356E+00 0.26211577E+03</pdfrwt>
<pdfrwt beam="2">  1       -2 0.10766001E-02 0.26211577E+03</pdfrwt>
<totfact> 0.12340203E+04</totfact>
</mgrwt>
</event>
<event>
 4    1  0.6853809E-004  0.2983292E+03  0.7818608E-02  0.1086079E+00
         -2   -1    0    0    0  501 -0.00000000000E+00  0.00000000000E+00  0.24940042634E+03  0.24940042635E+03  0.25500000000E-02 0. -1.
          2   -1    0    0  501    0  0.00000000000E+00 -0.00000000000E+00 -0.89214263601E+02  0.89214263637E+02  0.25500000000E-02 0.  1.
    5000001    1    1    2    0    0  0.74139458451E+02  0.89424804177E+02  0.14044910439E+03  0.19785956087E+03  0.77000000000E+02 0.  0.
   -5000001    1    1    2    0    0 -0.74139458451E+02 -0.89424804177E+02  0.19737058343E+02  0.14075512912E+03  0.77000000000E+02 0.  0.
<mgrwt>
<rscale>  0 0.29832918E+03</rscale>
<asrwt>0</asrwt>
<pdfrwt beam="1">  1        2 0.12744895E-01 0.29832918E+03</pdfrwt>
<pdfrwt beam="2">  1       -2 0.35628632E-01 0.29832918E+03</pdfrwt>
<totfact> 0.35211427E+03</totfact>
</mgrwt>
</event>
<event>
 4    1  0.6853809E-004  0.1789138E+03  0.7818608E-02  0.1168858E+00
          2   -1    0    0  501    0  0.00000000000E+00  0.00000000000E+00  0.18442211453E+04  0.18442211453E+04  0.25500000000E-02 0.  1.
         -2   -1    0    0    0  501 -0.00000000000E+00 -0.00000000000E+00 -0.43392504114E+01  0.43392511607E+01  0.25500000000E-02 0. -1.
    5000001    1    1    2    0    0  0.11173927591E+02  0.40305886724E+02  0.11059527964E+04  0.11094187708E+04  0.77000000000E+02 0.  0.
   -5000001    1    1    2    0    0 -0.11173927591E+02 -0.40305886724E+02  0.73392909846E+03  0.73914162562E+03  0.77000000000E+02 0.  0.
<mgrwt>
<rscale>  0 0.17891381E+03</rscale>
<asrwt>0</asrwt>
<pdfrwt beam="1">  1        2 0.26345938E+00 0.17891381E+03</pdfrwt>
<pdfrwt beam="2">  1       -2 0.61989482E-03 0.17891381E+03</pdfrwt>
<totfact> 0.43700992E+04</totfact>
</mgrwt>
</event>
<event>
 4    1  0.6853809E-004  0.9968869E+03  0.7818608E-02  0.9311966E-01
         -2   -1    0    0    0  501 -0.00000000000E+00  0.00000000000E+00  0.34822249247E+03  0.34822249248E+03  0.25500000000E-02 0. -1.
          2   -1    0    0  501    0  0.00000000000E+00 -0.00000000000E+00 -0.71346874006E+03  0.71346874006E+03  0.25500000000E-02 0.  1.
    5000001    1    1    2    0    0 -0.32011731496E+03  0.84624457434E+02 -0.57084761232E+03  0.66440378583E+03  0.77000000000E+02 0.  0.
   -5000001    1    1    2    0    0  0.32011731496E+03 -0.84624457434E+02  0.20560136473E+03  0.39728744671E+03  0.77000000000E+02 0.  0.
<mgrwt>
<rscale>  0 0.99688688E+03</rscale>
<asrwt>0</asrwt>
<pdfrwt beam="1">  1        2 0.10192411E+00 0.99688688E+03</pdfrwt>
<pdfrwt beam="2">  1       -2 0.49746071E-01 0.99688688E+03</pdfrwt>
<totfact> 0.16778484E+02</totfact>
</mgrwt>
</event>
<event>
 4    1  0.6853809E-004  0.2190058E+03  0.7818608E-02  0.1134626E+00
          2   -1    0    0  501    0  0.00000000000E+00  0.00000000000E+00  0.21548887522E+04  0.21548887522E+04  0.25500000000E-02 0.  1.
         -2   -1    0    0    0  501 -0.00000000000E+00 -0.00000000000E+00 -0.55645021325E+01  0.55645027168E+01  0.25500000000E-02 0. -1.
    5000001    1    1    2    0    0 -0.68423394081E+02  0.15972484032E+02  0.74378553327E+03  0.75105445915E+03  0.77000000000E+02 0.  0.
   -5000001    1    1    2    0    0  0.68423394081E+02 -0.15972484032E+02  0.14055387168E+04  0.14093987958E+04  0.77000000000E+02 0.  0.
<mgrwt>
<rscale>  0 0.21900579E+03</rscale>
<asrwt>0</asrwt>
<pdfrwt beam="1">  1        2 0.30784193E+00 0.21900579E+03</pdfrwt>
<pdfrwt beam="2">  1       -2 0.79492717E-03 0.21900579E+03</pdfrwt>
<totfact> 0.21893559E+04</totfact>
</mgrwt>
</event>
<event>
 4    1  0.6853809E-004  0.2352530E+03  0.7818608E-02  0.1122996E+00
         -2   -1    0    0    0  501 -0.00000000000E+00  0.00000000000E+00  0.79234620847E+01  0.79234624950E+01  0.25500000000E-02 0. -1.
          2   -1    0    0  501    0  0.00000000000E+00 -0.00000000000E+00 -0.17462049788E+04  0.17462049788E+04  0.25500000000E-02 0.  1.
    5000001    1    1    2    0    0  0.50555117194E+02  0.63205129953E+02 -0.59454038657E+03  0.60494460869E+03  0.77000000000E+02 0.  0.
   -5000001    1    1    2    0    0 -0.50555117194E+02 -0.63205129953E+02 -0.11437411302E+04  0.11491838327E+04  0.77000000000E+02 0.  0.
<mgrwt>
<rscale>  0 0.23525296E+03</rscale>
<asrwt>0</asrwt>
<pdfrwt beam="1">  1        2 0.24945761E+00 0.23525296E+03</pdfrwt>
<pdfrwt beam="2">  1       -2 0.11319243E-02 0.23525296E+03</pdfrwt>
<totfact> 0.20793155E+04</totfact>
</mgrwt>
</event>
<event>
 4    1  0.6853809E-004  0.1883767E+03  0.7818608E-02  0.1159934E+00
         -2   -1    0    0    0  501 -0.00000000000E+00  0.00000000000E+00  0.56974239856E+01  0.56974245562E+01  0.25500000000E-02 0. -1.
          2   -1    0    0  501    0  0.00000000000E+00 -0.00000000000E+00 -0.15570971617E+04  0.15570971617E+04  0.25500000000E-02 0.  1.
    5000001    1    1    2    0    0  0.11517300833E+02  0.52899531399E+02 -0.74764657863E+03  0.75354854865E+03  0.77000000000E+02 0.  0.
   -5000001    1    1    2    0    0 -0.11517300833E+02 -0.52899531399E+02 -0.80375315908E+03  0.80924603760E+03  0.77000000000E+02 0.  0.
<mgrwt>
<rscale>  0 0.18837668E+03</rscale>
<asrwt>0</asrwt>
<pdfrwt beam="1">  1        2 0.22244218E+00 0.18837668E+03</pdfrwt>
<pdfrwt beam="2">  1       -2 0.81391875E-03 0.18837668E+03</pdfrwt>
<totfact> 0.40946605E+04</totfact>
</mgrwt>
</event>
<event>
 4    1  0.6853809E-004  0.4003601E+03  0.7818608E-02  0.1043655E+00
         -2   -1    0    0    0  501 -0.00000000000E+00  0.00000000000E+00  0.21258043074E+03  0.21258043076E+03  0.25500000000E-02 0. -1.
          2   -1    0    0  501    0  0.00000000000E+00 -0.00000000000E+00 -0.18850298779E+03  0.18850298781E+03  0.25500000000E-02 0.  1.
    5000001    1    1    2    0    0 -0.11485558640E+02  0.18129762696E+03  0.45897696120E+02  0.20257429775E+03  0.77000000000E+02 0.  0.
   -5000001    1    1    2    0    0  0.11485558640E+02 -0.18129762696E+03 -0.21820253165E+02  0.19850912082E+03  0.77000000000E+02 0.  0.
<mgrwt>
<rscale>  0 0.40036007E+03</rscale>
<asrwt>0</asrwt>
<pdfrwt beam="1">  1        2 0.26928998E-01 0.40036007E+03</pdfrwt>
<pdfrwt beam="2">  1       -2 0.30368633E-01 0.40036007E+03</pdfrwt>
<totfact> 0.19935003E+03</totfact>
</mgrwt>
</event>
<event>
 4    1  0.6853809E-004  0.2134190E+03  0.7818608E-02  0.1138887E+00
          2   -1    0    0  501    0  0.00000000000E+00  0.00000000000E+00  0.18683847760E+04  0.18683847760E+04  0.25500000000E-02 0.  1.
         -2   -1    0    0    0  501 -0.00000000000E+00 -0.00000000000E+00 -0.60945262009E+01  0.60945267344E+01  0.25500000000E-02 0. -1.
    5000001    1    1    2    0    0  0.30192443747E+02 -0.58800916316E+02  0.12209591395E+04  0.12251691115E+04  0.77000000000E+02 0.  0.
   -5000001    1    1    2    0    0 -0.30192443747E+02  0.58800916316E+02  0.64133111026E+03  0.64931019121E+03  0.77000000000E+02 0.  0.
<mgrwt>
<rscale>  0 0.21341903E+03</rscale>
<asrwt>0</asrwt>
<pdfrwt beam="1">  1        2 0.26691224E+00 0.21341903E+03</pdfrwt>
<pdfrwt beam="2">  1       -2 0.87064622E-03 0.21341903E+03</pdfrwt>
<totfact> 0.26390577E+04</totfact>
</mgrwt>
</event>
<event>
 4    1  0.6853809E-004  0.3304990E+03  0.7818608E-02  0.1070916E+00
         -2   -1    0    0    0  501 -0.00000000000E+00  0.00000000000E+00  0.26062164436E+02  0.26062164561E+02  0.25500000000E-02 0. -1.
          2   -1    0    0  501    0  0.00000000000E+00 -0.00000000000E+00 -0.10477794101E+04  0.10477794101E+04  0.25500000000E-02 0.  1.
    5000001    1    1    2    0    0 -0.10733349336E+03  0.97160830079E+02 -0.44445389762E+03  0.47373935112E+03  0.77000000000E+02 0.  0.
   -5000001    1    1    2    0    0  0.10733349336E+03 -0.97160830079E+02 -0.57726334808E+03  0.60010222357E+03  0.77000000000E+02 0.  0.
<mgrwt>
<rscale>  0 0.33049901E+03</rscale>
<asrwt>0</asrwt>
<pdfrwt beam="1">  1        2 0.14968275E+00 0.33049901E+03</pdfrwt>
<pdfrwt beam="2">  1       -2 0.37231670E-02 0.33049901E+03</pdfrwt>
<totfact> 0.83928855E+03</totfact>
</mgrwt>
</event>
<event>
 4    1  0.6853809E-004  0.2057996E+03  0.7818608E-02  0.1144936E+00
          2   -1    0    0  501    0  0.00000000000E+00  0.00000000000E+00  0.23353990448E+04  0.23353990448E+04  0.25500000000E-02 0.  1.
         -2   -1    0    0    0  501 -0.00000000000E+00 -0.00000000000E+00 -0.45338600885E+01  0.45338608056E+01  0.25500000000E-02 0. -1.
    5000001    1    1    2    0    0  0.97694950904E+01 -0.57961253607E+02  0.15600246861E+04  0.15630294211E+04  0.77000000000E+02 0.  0.
   -5000001    1    1    2    0    0 -0.97694950904E+01  0.57961253607E+02  0.77084049865E+03  0.77690348456E+03  0.77000000000E+02 0.  0.
<mgrwt>
<rscale>  0 0.20579964E+03</rscale>
<asrwt>0</asrwt>
<pdfrwt beam="1">  1        2 0.33362953E+00 0.20579964E+03</pdfrwt>
<pdfrwt beam="2">  1       -2 0.64769221E-03 0.20579964E+03</pdfrwt>
<totfact> 0.23957250E+04</totfact>
</mgrwt>
</event>
<event>
 4    1  0.6853809E-004  0.4640981E+03  0.7818608E-02  0.1023599E+00
         -2   -1    0    0    0  501 -0.00000000000E+00  0.00000000000E+00  0.63533762258E+02  0.63533762309E+02  0.25500000000E-02 0. -1.
          2   -1    0    0  501    0  0.00000000000E+00 -0.00000000000E+00 -0.84752979724E+03  0.84752979725E+03  0.25500000000E-02 0.  1.
    5000001    1    1    2    0    0 -0.59010055930E+02  0.11633815599E+03 -0.73708231414E+03  0.75248660523E+03  0.77000000000E+02 0.  0.
   -5000001    1    1    2    0    0  0.59010055930E+02 -0.11633815599E+03 -0.46913720850E+02  0.15857695433E+03  0.77000000000E+02 0.  0.
<mgrwt>
<rscale>  0 0.46409808E+03</rscale>
<asrwt>0</asrwt>
<pdfrwt beam="1">  1        2 0.12107568E+00 0.46409808E+03</pdfrwt>
<pdfrwt beam="2">  1       -2 0.90762523E-02 0.46409808E+03</pdfrwt>
<totfact> 0.28216936E+03</totfact>
</mgrwt>
</event>
<event>
 4    1  0.6853809E-004  0.1827630E+03  0.7818608E-02  0.1165155E+00
          2   -1    0    0  501    0  0.00000000000E+00  0.00000000000E+00  0.57962042299E+02  0.57962042355E+02  0.25500000000E-02 0.  1.
         -2   -1    0    0    0  501 -0.00000000000E+00 -0.00000000000E+00 -0.14406974813E+03  0.14406974815E+03  0.25500000000E-02 0. -1.
    5000001    1    1    2    0    0  0.42161439088E+02 -0.11700479141E+02 -0.67946635085E+02  0.11162541546E+03  0.77000000000E+02 0.  0.
   -5000001    1    1    2    0    0 -0.42161439088E+02  0.11700479141E+02 -0.18161070749E+02  0.90406375046E+02  0.77000000000E+02 0.  0.
<mgrwt>
<rscale>  0 0.18276298E+03</rscale>
<asrwt>0</asrwt>
<pdfrwt beam="1">  1        2 0.82802918E-02 0.18276298E+03</pdfrwt>
<pdfrwt beam="2">  1       -2 0.20581392E-01 0.18276298E+03</pdfrwt>
<totfact> 0.15558784E+04</totfact>
</mgrwt>
</event>
<event>
 4    1  0.6853809E-004  0.2103351E+03  0.7818608E-02  0.1141301E+00
          2   -1    0    0  501    0  0.00000000000E+00  0.00000000000E+00  0.68678384221E+03  0.68678384221E+03  0.25500000000E-02 0.  1.
         -2   -1    0    0    0  501 -0.00000000000E+00 -0.00000000000E+00 -0.16104357340E+02  0.16104357542E+02  0.25500000000E-02 0. -1.
    5000001    1    1    2    0    0 -0.18296539908E+02 -0.59220284961E+02  0.21534298065E+03  0.23694599562E+03  0.77000000000E+02 0.  0.
   -5000001    1    1    2    0    0  0.18296539908E+02  0.59220284961E+02  0.45533650421E+03  0.46594220413E+03  0.77000000000E+02 0.  0.
<mgrwt>
<rscale>  0 0.21033509E+03</rscale>
<asrwt>0</asrwt>
<pdfrwt beam="1">  1        2 0.98111973E-01 0.21033509E+03</pdfrwt>
<pdfrwt beam="2">  1       -2 0.23006226E-02 0.21033509E+03</pdfrwt>
<totfact> 0.28776851E+04</totfact>
</mgrwt>
</event>
<event>
 4    1  0.6853809E-004  0.3612117E+03  0.7818608E-02  0.1058105E+00
         -2   -1    0    0    0  501 -0.00000000000E+00  0.00000000000E+00  0.68249545237E+02  0.68249545284E+02  0.25500000000E-02 0. -1.
          2   -1    0    0  501    0  0.00000000000E+00 -0.00000000000E+00 -0.47792961328E+03  0.47792961329E+03  0.25500000000E-02 0.  1.
    5000001    1    1    2    0    0 -0.15723569458E+03 -0.32119217134E+02 -0.25107024722E+03  0.30776610729E+03  0.77000000000E+02 0.  0.
   -5000001    1    1    2    0    0  0.15723569458E+03  0.32119217134E+02 -0.15860982082E+03  0.23841305128E+03  0.77000000000E+02 0.  0.
<mgrwt>
<rscale>  0 0.36121173E+03</rscale>
<asrwt>0</asrwt>
<pdfrwt beam="1">  1        2 0.68275657E-01 0.36121173E+03</pdfrwt>
<pdfrwt beam="2">  1       -2 0.97499353E-02 0.36121173E+03</pdfrwt>
<totfact> 0.49419767E+03</totfact>
</mgrwt>
</event>
<event>
 4    1  0.6853809E-004  0.1670057E+03  0.7818608E-02  0.1181007E+00
         -2   -1    0    0    0  501 -0.00000000000E+00  0.00000000000E+00  0.80503960092E+01  0.80503964131E+01  0.25500000000E-02 0. -1.
          2   -1    0    0  501    0  0.00000000000E+00 -0.00000000000E+00 -0.86613422212E+03  0.86613422213E+03  0.25500000000E-02 0.  1.
    5000001    1    1    2    0    0  0.29551650409E+02  0.13054535207E+02 -0.42876831421E+03  0.43682374959E+03  0.77000000000E+02 0.  0.
   -5000001    1    1    2    0    0 -0.29551650409E+02 -0.13054535207E+02 -0.42931551190E+03  0.43736086896E+03  0.77000000000E+02 0.  0.
<mgrwt>
<rscale>  0 0.16700567E+03</rscale>
<asrwt>0</asrwt>
<pdfrwt beam="1">  1        2 0.12373340E+00 0.16700567E+03</pdfrwt>
<pdfrwt beam="2">  1       -2 0.11500572E-02 0.16700567E+03</pdfrwt>
<totfact> 0.58405493E+04</totfact>
</mgrwt>
</event>
<event>
 4    1  0.6853809E-004  0.6492731E+03  0.7818608E-02  0.9808144E-01
          2   -1    0    0  501    0  0.00000000000E+00  0.00000000000E+00  0.79171958173E+03  0.79171958174E+03  0.25500000000E-02 0.  1.
         -2   -1    0    0    0  501 -0.00000000000E+00 -0.00000000000E+00 -0.13311391046E+03  0.13311391048E+03  0.25500000000E-02 0. -1.
    5000001    1    1    2    0    0 -0.63430263116E+02 -0.29365167861E+03  0.46596627620E+03  0.55973947260E+03  0.77000000000E+02 0.  0.
   -5000001    1    1    2    0    0  0.63430263116E+02  0.29365167861E+03  0.19263939508E+03  0.36509401962E+03  0.77000000000E+02 0.  0.
<mgrwt>
<rscale>  0 0.64927310E+03</rscale>
<asrwt>0</asrwt>
<pdfrwt beam="1">  1        2 0.11310279E+00 0.64927310E+03</pdfrwt>
<pdfrwt beam="2">  1       -2 0.19016274E-01 0.64927310E+03</pdfrwt>
<totfact> 0.90071373E+02</totfact>
</mgrwt>
</event>
<event>
 4    1  0.6853809E-004  0.2921162E+03  0.7818608E-02  0.1089249E+00
         -2   -1    0    0    0  501 -0.00000000000E+00  0.00000000000E+00  0.55199094146E+02  0.55199094205E+02  0.25500000000E-02 0. -1.
          2   -1    0    0  501    0  0.00000000000E+00 -0.00000000000E+00 -0.38647316762E+03  0.38647316763E+03  0.25500000000E-02 0.  1.
    5000001    1    1    2    0    0  0.14747972747E+02  0.10452451432E+03 -0.66939813226E+02  0.14680877150E+03  0.77000000000E+02 0.  0.
   -5000001    1    1    2    0    0 -0.14747972747E+02 -0.10452451432E+03 -0.26433426025E+03  0.29486349034E+03  0.77000000000E+02 0.  0.
<mgrwt>
<rscale>  0 0.29211620E+03</rscale>
<asrwt>0</asrwt>
<pdfrwt beam="1">  1        2 0.55210451E-01 0.29211620E+03</pdfrwt>
<pdfrwt beam="2">  1       -2 0.78855851E-02 0.29211620E+03</pdfrwt>
<totfact> 0.86625825E+03</totfact>
</mgrwt>
</event>
<event>
 4    1  0.6853809E-004  0.2878828E+03  0.7818608E-02  0.1091460E+00
         -2   -1    0    0    0  501 -0.00000000000E+00  0.00000000000E+00  0.48841146408E+02  0.48841146475E+02  0.25500000000E-02 0. -1.
          2   -1    0    0  501    0  0.00000000000E+00 -0.00000000000E+00 -0.42421451464E+03  0.42421451465E+03  0.25500000000E-02 0.  1.
    5000001    1    1    2    0    0 -0.86412006704E+02  0.67978685737E+02 -0.27310247345E+03  0.30430592768E+03  0.77000000000E+02 0.  0.
   -5000001    1    1    2    0    0  0.86412006704E+02 -0.67978685737E+02 -0.10227089478E+03  0.16874973344E+03  0.77000000000E+02 0.  0.
<mgrwt>
<rscale>  0 0.28788278E+03</rscale>
<asrwt>0</asrwt>
<pdfrwt beam="1">  1        2 0.60602071E-01 0.28788278E+03</pdfrwt>
<pdfrwt beam="2">  1       -2 0.69773069E-02 0.28788278E+03</pdfrwt>
<totfact> 0.94674676E+03</totfact>
</mgrwt>
</event>
<event>
 4    1  0.6853809E-004  0.2750801E+03  0.7818608E-02  0.1098407E+00
          2   -1    0    0  501    0  0.00000000000E+00  0.00000000000E+00  0.10886855391E+04  0.10886855391E+04  0.25500000000E-02 0.  1.
         -2   -1    0    0    0  501 -0.00000000000E+00 -0.00000000000E+00 -0.17376241348E+02  0.17376241535E+02  0.25500000000E-02 0. -1.
    5000001    1    1    2    0    0  0.82101945449E+02 -0.24324470935E+02  0.83804596528E+03  0.84592106562E+03  0.77000000000E+02 0.  0.
   -5000001    1    1    2    0    0 -0.82101945449E+02  0.24324470935E+02  0.23326333243E+03  0.26014071498E+03  0.77000000000E+02 0.  0.
<mgrwt>
<rscale>  0 0.27508008E+03</rscale>
<asrwt>0</asrwt>
<pdfrwt beam="1">  1        2 0.15552651E+00 0.27508008E+03</pdfrwt>
<pdfrwt beam="2">  1       -2 0.24823201E-02 0.27508008E+03</pdfrwt>
<totfact> 0.14485396E+04</totfact>
</mgrwt>
</event>
