<event>
 8    1  0.7685004E-052  0.1334637E+04  0.7818608E-02  0.9002540E-01
         -2   -1    0    0    0  501 -0.00000000000E+00  0.00000000000E+00  0.69473735497E+03  0.69473735497E+03  0.25500000000E-02 0. -1.
          2   -1    0    0  501    0  0.00000000000E+00 -0.00000000000E+00 -0.64098194335E+03  0.64098194336E+03  0.25500000000E-02 0.  1.
     200001    2    1    2    0    0  0.64368388215E+02 -0.86776829949E+02 -0.21417805876E+03  0.65805356055E+03  0.61277136036E+03 0.  0.
    5000001    2    3    3    0    0  0.84716981561E+00 -0.32464560291E+03 -0.31457038584E+02  0.33524638970E+03  0.77492653489E+02 0.  0.
        -13    1    4    4    0    0  0.11029806039E+02 -0.14285889082E+03 -0.45104649108E+02  0.15021571104E+03  0.10566000000E+00 0. -1.
     200003    1    4    4    0    0 -0.10182636223E+02 -0.18178671208E+03  0.13647610524E+02  0.18503067866E+03  0.30000000000E+02 0. -1.
     200000    1    3    3    0    0  0.63521218399E+02  0.23786877296E+03 -0.18272102018E+03  0.32280717085E+03  0.10100000000E+03 0.  1.
    -200001    1    1    2    0    0 -0.64368388215E+02  0.86776829949E+02  0.26793347038E+03  0.67766573778E+03  0.61300000000E+03 0. -1.
<mgrwt>
<rscale>  0 0.13346372E+04</rscale>
<asrwt>0</asrwt>
<pdfrwt beam="1">  1        2 0.91568849E-01 0.13346372E+04</pdfrwt>
<pdfrwt beam="2">  1       -2 0.99248194E-01 0.13346372E+04</pdfrwt>
<totfact> 0.41287299E+01</totfact>
</mgrwt>
</event>
<event>
 8    1  0.7685004E-052  0.1371467E+04  0.7818608E-02  0.8974735E-01
         -2   -1    0    0    0  501 -0.00000000000E+00  0.00000000000E+00  0.53683820559E+03  0.53683820560E+03  0.25500000000E-02 0. -1.
          2   -1    0    0  501    0  0.00000000000E+00 -0.00000000000E+00 -0.87592610568E+03  0.87592610568E+03  0.25500000000E-02 0.  1.
     200001    2    1    2    0    0 -0.45016369369E+02 -0.28370118034E+03 -0.28229594255E+03  0.73342112873E+03  0.61294593534E+03 0.  0.
    5000001    2    3    3    0    0 -0.41748681262E+02 -0.34713493342E+03 -0.39764514391E+03  0.56746644495E+03  0.20408549993E+03 0.  0.
        -13    1    4    4    0    0 -0.98927923459E+02 -0.31749382513E+03 -0.30989883748E+03  0.45456172702E+03  0.10566000000E+00 0. -1.
     200003    1    4    4    0    0  0.57179242197E+02 -0.29641108293E+02 -0.87746306428E+02  0.11290471793E+03  0.30000000000E+02 0. -1.
     200000    1    3    3    0    0 -0.32676881066E+01  0.63433753079E+02  0.11534920136E+03  0.16595468378E+03  0.10100000000E+03 0. -1.
    -200001    1    1    2    0    0  0.45016369369E+02  0.28370118034E+03 -0.56791957536E+02  0.67934318255E+03  0.61300000000E+03 0. -1.
<mgrwt>
<rscale>  0 0.13714672E+04</rscale>
<asrwt>0</asrwt>
<pdfrwt beam="1">  1        2 0.12513230E+00 0.13714672E+04</pdfrwt>
<pdfrwt beam="2">  1       -2 0.76691172E-01 0.13714672E+04</pdfrwt>
<totfact> 0.50071172E+01</totfact>
</mgrwt>
</event>
<event>
 8    1  0.7685004E-052  0.2011653E+04  0.7818608E-02  0.8601192E-01
         -2   -1    0    0    0  501 -0.00000000000E+00  0.00000000000E+00  0.10293410791E+04  0.10293410791E+04  0.25500000000E-02 0. -1.
          2   -1    0    0  501    0  0.00000000000E+00 -0.00000000000E+00 -0.98284879095E+03  0.98284879096E+03  0.25500000000E-02 0.  1.
     200001    2    1    2    0    0  0.45383994763E+03  0.40603380645E+03  0.53893275983E+03  0.10176544165E+04  0.61183154694E+03 0.  0.
    5000001    2    3    3    0    0  0.39400541435E+03  0.44781742276E+03  0.16390490100E+03  0.62246719906E+03  0.69425403611E+02 0.  0.
        -13    1    4    4    0    0  0.29848646804E+03  0.34576366049E+03  0.13804738981E+03  0.47718316558E+03  0.10566000000E+00 0. -1.
     200003    1    4    4    0    0  0.95518946316E+02  0.10205376227E+03  0.25857511189E+02  0.14528403348E+03  0.30000000000E+02 0.  1.
     200000    1    3    3    0    0  0.59834533278E+02 -0.41783616306E+02  0.37502785882E+03  0.39518721748E+03  0.10100000000E+03 0. -1.
    -200001    1    1    2    0    0 -0.45383994763E+03 -0.40603380645E+03 -0.49244047172E+03  0.99453545348E+03  0.61300000000E+03 0. -1.
<mgrwt>
<rscale>  0 0.20116527E+04</rscale>
<asrwt>0</asrwt>
<pdfrwt beam="1">  1        2 0.14040697E+00 0.20116527E+04</pdfrwt>
<pdfrwt beam="2">  1       -2 0.14704873E+00 0.20116527E+04</pdfrwt>
<totfact> 0.84690626E+00</totfact>
</mgrwt>
</event>
<event>
 8    1  0.7685004E-052  0.1839812E+04  0.7818608E-02  0.8685410E-01
          2   -1    0    0  501    0  0.00000000000E+00  0.00000000000E+00  0.27177858883E+04  0.27177858883E+04  0.25500000000E-02 0.  1.
         -2   -1    0    0    0  501 -0.00000000000E+00 -0.00000000000E+00 -0.31136636695E+03  0.31136636697E+03  0.25500000000E-02 0. -1.
     200001    2    1    2    0    0  0.52160324199E+03  0.39833672373E+03  0.15314191406E+04  0.17753034790E+04  0.61295658137E+03 0.  0.
    5000001    2    3    3    0    0 -0.46966134644E+01  0.34986689817E+02  0.59303937035E+03  0.63522787698E+03  0.22488360159E+03 0.  0.
        -13    1    4    4    0    0  0.71838020070E+02  0.59308105717E+02  0.10780226174E+03  0.14247628340E+03  0.10566000000E+00 0. -1.
     200003    1    4    4    0    0 -0.76534633535E+02 -0.24321415900E+02  0.48523710861E+03  0.49275159358E+03  0.30000000000E+02 0. -1.
     200000    1    3    3    0    0  0.52629985546E+03  0.36335003391E+03  0.93837977028E+03  0.11400756020E+04  0.10100000000E+03 0. -1.
    -200001    1    1    2    0    0 -0.52160324199E+03 -0.39833672373E+03  0.87500038068E+03  0.12538487763E+04  0.61300000000E+03 0. -1.
<mgrwt>
<rscale>  0 0.18398121E+04</rscale>
<asrwt>0</asrwt>
<pdfrwt beam="1">  1        2 0.38825513E+00 0.18398121E+04</pdfrwt>
<pdfrwt beam="2">  1       -2 0.44480909E-01 0.18398121E+04</pdfrwt>
<totfact> 0.15269770E+01</totfact>
</mgrwt>
</event>
<event>
 8    1  0.7685004E-052  0.1803609E+04  0.7818608E-02  0.8704383E-01
         -2   -1    0    0    0  501 -0.00000000000E+00  0.00000000000E+00  0.40315737622E+03  0.40315737623E+03  0.25500000000E-02 0. -1.
          2   -1    0    0  501    0  0.00000000000E+00 -0.00000000000E+00 -0.20172054759E+04  0.20172054759E+04  0.25500000000E-02 0.  1.
     200001    2    1    2    0    0  0.33341259459E+03  0.47618562857E+03 -0.12379200633E+04  0.14956153132E+04  0.60539439277E+03 0.  0.
    5000001    2    3    3    0    0  0.33660273600E+03  0.95359393183E+02 -0.26451733048E+03  0.44549499682E+03  0.78112472226E+02 0.  0.
        -13    1    4    4    0    0  0.28757315194E+03  0.72724109524E+02 -0.22201914441E+03  0.37051265224E+03  0.10566000000E+00 0. -1.
     200003    1    4    4    0    0  0.49029584067E+02  0.22635283659E+02 -0.42498186066E+02  0.74982344582E+02  0.30000000000E+02 0.  1.
     200000    1    3    3    0    0 -0.31901414100E+01  0.38082623539E+03 -0.97340273281E+03  0.10501203163E+04  0.10100000000E+03 0.  1.
    -200001    1    1    2    0    0 -0.33341259459E+03 -0.47618562857E+03 -0.37612803643E+03  0.92474753900E+03  0.61300000000E+03 0. -1.
<mgrwt>
<rscale>  0 0.18036089E+04</rscale>
<asrwt>0</asrwt>
<pdfrwt beam="1">  1        2 0.28817220E+00 0.18036089E+04</pdfrwt>
<pdfrwt beam="2">  1       -2 0.57593912E-01 0.18036089E+04</pdfrwt>
<totfact> 0.21004520E+01</totfact>
</mgrwt>
</event>
<event>
 8    1  0.7685004E-052  0.1687500E+04  0.7818608E-02  0.8768526E-01
         -2   -1    0    0    0  501 -0.00000000000E+00  0.00000000000E+00  0.29339729571E+04  0.29339729571E+04  0.25500000000E-02 0. -1.
          2   -1    0    0  501    0  0.00000000000E+00 -0.00000000000E+00 -0.24264505542E+03  0.24264505544E+03  0.25500000000E-02 0.  1.
     200001    2    1    2    0    0  0.12551898705E+03  0.55098377523E+03  0.10656521684E+04  0.13496180874E+04  0.60540589786E+03 0.  0.
    5000001    2    3    3    0    0  0.81529966786E+02  0.33127940309E+03  0.11222785382E+03  0.36502478625E+03  0.65229019669E+02 0.  0.
        -13    1    4    4    0    0  0.28618463961E+02  0.20665273506E+03  0.64639463139E+02  0.21840934216E+03  0.10566000000E+00 0. -1.
     200003    1    4    4    0    0  0.52911502826E+02  0.12462666803E+03  0.47588390680E+02  0.14661544408E+03  0.30000000000E+02 0.  1.
     200000    1    3    3    0    0  0.43989020261E+02  0.21970437214E+03  0.95342431460E+03  0.98459330117E+03  0.10100000000E+03 0.  1.
    -200001    1    1    2    0    0 -0.12551898705E+03 -0.55098377523E+03  0.16256757332E+04  0.18269999251E+04  0.61300000000E+03 0. -1.
<mgrwt>
<rscale>  0 0.16875000E+04</rscale>
<asrwt>0</asrwt>
<pdfrwt beam="1">  1        2 0.34663581E-01 0.16875000E+04</pdfrwt>
<pdfrwt beam="2">  1       -2 0.41913897E+00 0.16875000E+04</pdfrwt>
<totfact> 0.80721372E-01</totfact>
</mgrwt>
</event>
<event>
 8    1  0.7685004E-052  0.1464570E+04  0.7818608E-02  0.8908361E-01
          2   -1    0    0  501    0  0.00000000000E+00  0.00000000000E+00  0.15722304759E+04  0.15722304759E+04  0.25500000000E-02 0.  1.
         -2   -1    0    0    0  501 -0.00000000000E+00 -0.00000000000E+00 -0.34107058703E+03  0.34107058703E+03  0.25500000000E-02 0. -1.
     200001    2    1    2    0    0 -0.82538472716E+02 -0.22725471824E+03  0.10327201111E+04  0.12251116618E+04  0.61313167395E+03 0.  0.
    5000001    2    3    3    0    0 -0.11778793713E+03 -0.93638024610E+02 -0.11302091540E+02  0.16715168849E+03  0.71901821298E+02 0.  0.
        -13    1    4    4    0    0 -0.19121798720E+02 -0.46420055131E+02 -0.18492922858E+02  0.53502000566E+02  0.10566000000E+00 0. -1.
     200003    1    4    4    0    0 -0.98666138411E+02 -0.47217969479E+02  0.71908313171E+01  0.11364968793E+03  0.30000000000E+02 0. -1.
     200000    1    3    3    0    0  0.35249464414E+02 -0.13361669363E+03  0.10440222026E+04  0.10579599733E+04  0.10100000000E+03 0.  1.
    -200001    1    1    2    0    0  0.82538472716E+02  0.22725471824E+03  0.19843977781E+03  0.68818940115E+03  0.61300000000E+03 0. -1.
<mgrwt>
<rscale>  0 0.14645703E+04</rscale>
<asrwt>0</asrwt>
<pdfrwt beam="1">  1        2 0.22460435E+00 0.14645703E+04</pdfrwt>
<pdfrwt beam="2">  1       -2 0.48724370E-01 0.14645703E+04</pdfrwt>
<totfact> 0.51773025E+01</totfact>
</mgrwt>
</event>
<event>
 8    1  0.7685004E-052  0.1639155E+04  0.7818608E-02  0.8796848E-01
         -2   -1    0    0    0  501 -0.00000000000E+00  0.00000000000E+00  0.24522019097E+03  0.24522019098E+03  0.25500000000E-02 0. -1.
          2   -1    0    0  501    0  0.00000000000E+00 -0.00000000000E+00 -0.27392004237E+04  0.27392004237E+04  0.25500000000E-02 0.  1.
     200001    2    1    2    0    0 -0.15712600475E+03 -0.36849516976E+03 -0.57768747401E+03  0.93297619461E+03  0.61338771636E+03 0.  0.
    5000001    2    3    3    0    0 -0.98240242674E+02 -0.15586205236E+03 -0.64831851409E+03  0.68025081121E+03  0.92087707096E+02 0.  0.
        -13    1    4    4    0    0 -0.37534442616E+02 -0.15493596526E+02 -0.66470070032E+02  0.77892023275E+02  0.10566000000E+00 0. -1.
     200003    1    4    4    0    0 -0.60705800058E+02 -0.14036845583E+03 -0.58184844406E+03  0.60235878794E+03  0.30000000000E+02 0. -1.
     200000    1    3    3    0    0 -0.58885762076E+02 -0.21263311740E+03  0.70631040080E+02  0.25272538340E+03  0.10100000000E+03 0. -1.
    -200001    1    1    2    0    0  0.15712600475E+03  0.36849516976E+03 -0.19162927587E+04  0.20514444201E+04  0.61300000000E+03 0.  1.
<mgrwt>
<rscale>  0 0.16391550E+04</rscale>
<asrwt>0</asrwt>
<pdfrwt beam="1">  1        2 0.39131433E+00 0.16391550E+04</pdfrwt>
<pdfrwt beam="2">  1       -2 0.35031457E-01 0.16391550E+04</pdfrwt>
<totfact> 0.24104720E+01</totfact>
</mgrwt>
</event>
<event>
 8    1  0.7685004E-052  0.1330805E+04  0.7818608E-02  0.9005487E-01
          2   -1    0    0  501    0  0.00000000000E+00  0.00000000000E+00  0.20476660778E+04  0.20476660778E+04  0.25500000000E-02 0.  1.
         -2   -1    0    0    0  501 -0.00000000000E+00 -0.00000000000E+00 -0.21622673898E+03  0.21622673900E+03  0.25500000000E-02 0. -1.
     200001    2    1    2    0    0 -0.10310553257E+03  0.22044035533E+03  0.76871662920E+03  0.10131437378E+04  0.61344133894E+03 0.  0.
    5000001    2    3    3    0    0  0.12413613681E+03  0.22193570134E+03  0.70987720174E+03  0.75759708728E+03  0.73228881719E+02 0.  0.
        -13    1    4    4    0    0  0.78950427061E+02  0.80175623857E+02  0.32085838866E+03  0.34001678978E+03  0.10566000000E+00 0. -1.
     200003    1    4    4    0    0  0.45185709753E+02  0.14176007748E+03  0.38901881308E+03  0.41758029751E+03  0.30000000000E+02 0. -1.
     200000    1    3    3    0    0 -0.22724166938E+03 -0.14953460091E+01  0.58839427459E+02  0.25554665051E+03  0.10100000000E+03 0.  1.
    -200001    1    1    2    0    0  0.10310553257E+03 -0.22044035533E+03  0.10627227096E+04  0.12507490790E+04  0.61300000000E+03 0. -1.
<mgrwt>
<rscale>  0 0.13308045E+04</rscale>
<asrwt>0</asrwt>
<pdfrwt beam="1">  1        2 0.29252373E+00 0.13308045E+04</pdfrwt>
<pdfrwt beam="2">  1       -2 0.30889534E-01 0.13308045E+04</pdfrwt>
<totfact> 0.72058427E+01</totfact>
</mgrwt>
</event>
<event>
 8    1  0.7685004E-052  0.2210328E+04  0.7818608E-02  0.8514142E-01
          2   -1    0    0  501    0  0.00000000000E+00  0.00000000000E+00  0.16032843573E+04  0.16032843573E+04  0.25500000000E-02 0.  1.
         -2   -1    0    0    0  501 -0.00000000000E+00 -0.00000000000E+00 -0.76180318708E+03  0.76180318708E+03  0.25500000000E-02 0. -1.
     200001    2    1    2    0    0 -0.17420712697E+03 -0.24446894118E+03  0.13513351217E+04  0.15131290723E+04  0.61101537791E+03 0.  0.
    5000001    2    3    3    0    0  0.13487194695E+03 -0.93098943941E+01  0.71910397623E+02  0.17224940739E+03  0.78877353219E+02 0.  0.
        -13    1    4    4    0    0  0.72289401339E+02 -0.24228282343E+02  0.78739331115E+01  0.76647095170E+02  0.10566000000E+00 0. -1.
     200003    1    4    4    0    0  0.62582545615E+02  0.14918387948E+02  0.64036464511E+02  0.95602312219E+02  0.30000000000E+02 0. -1.
     200000    1    3    3    0    0 -0.30907907393E+03 -0.23515904679E+03  0.12794247241E+04  0.13408796649E+04  0.10100000000E+03 0.  1.
    -200001    1    1    2    0    0  0.17420712697E+03  0.24446894118E+03 -0.50985395148E+03  0.85195847207E+03  0.61300000000E+03 0. -1.
<mgrwt>
<rscale>  0 0.22103277E+04</rscale>
<asrwt>0</asrwt>
<pdfrwt beam="1">  1        2 0.22904062E+00 0.22103277E+04</pdfrwt>
<pdfrwt beam="2">  1       -2 0.10882903E+00 0.22103277E+04</pdfrwt>
<totfact> 0.79769545E+00</totfact>
</mgrwt>
</event>
<event>
 8    1  0.7685004E-052  0.1916996E+04  0.7818608E-02  0.8646442E-01
          2   -1    0    0  501    0  0.00000000000E+00  0.00000000000E+00  0.19240881272E+04  0.19240881272E+04  0.25500000000E-02 0.  1.
         -2   -1    0    0    0  501 -0.00000000000E+00 -0.00000000000E+00 -0.47748251624E+03  0.47748251625E+03  0.25500000000E-02 0. -1.
     200001    2    1    2    0    0 -0.45579323971E+03  0.55541567871E+03  0.94661650967E+03  0.13329303134E+04  0.60364422516E+03 0.  0.
    5000001    2    3    3    0    0  0.16572488340E+02  0.14050217630E+02 -0.52163187705E+02  0.98439395130E+02  0.80605585271E+02 0.  0.
        -13    1    4    4    0    0  0.15005692897E+02  0.28827513875E+02 -0.55994171237E+02  0.64742217695E+02  0.10566000000E+00 0. -1.
     200003    1    4    4    0    0  0.15667954431E+01 -0.14777296245E+02  0.38309835318E+01  0.33697177435E+02  0.30000000000E+02 0.  1.
     200000    1    3    3    0    0 -0.47236572805E+03  0.54136546108E+03  0.99877969738E+03  0.12344909183E+04  0.10100000000E+03 0.  1.
    -200001    1    1    2    0    0  0.45579323971E+03 -0.55541567871E+03  0.49998910127E+03  0.10686403300E+04  0.61300000000E+03 0. -1.
<mgrwt>
<rscale>  0 0.19169960E+04</rscale>
<asrwt>0</asrwt>
<pdfrwt beam="1">  1        2 0.27486973E+00 0.19169960E+04</pdfrwt>
<pdfrwt beam="2">  1       -2 0.68211789E-01 0.19169960E+04</pdfrwt>
<totfact> 0.16205357E+01</totfact>
</mgrwt>
</event>
<event>
 8    1  0.7685004E-052  0.1269952E+04  0.7818608E-02  0.9053739E-01
         -2   -1    0    0    0  501 -0.00000000000E+00  0.00000000000E+00  0.31109022243E+03  0.31109022244E+03  0.25500000000E-02 0.  1.
          2   -1    0    0  501    0  0.00000000000E+00 -0.00000000000E+00 -0.12960690530E+04  0.12960690530E+04  0.25500000000E-02 0. -1.
     200001    2    1    2    0    0  0.82502744023E+02 -0.10420409376E+03 -0.62093883660E+03  0.88192875131E+03  0.61201967913E+03 0.  0.
    5000001    2    3    3    0    0  0.13242011126E+03 -0.24990449506E+03 -0.93415005787E+02  0.32317769531E+03  0.12541976289E+03 0.  0.
        -13    1    4    4    0    0  0.21977917104E+02 -0.16517052295E+03 -0.42618270476E+02  0.17199028645E+03  0.10566000000E+00 0. -1.
     200003    1    4    4    0    0  0.11044219416E+03 -0.84733972110E+02 -0.50796735311E+02  0.15118740886E+03  0.30000000000E+02 0. -1.
     200000    1    3    3    0    0 -0.49917367240E+02  0.14570040130E+03 -0.52752383082E+03  0.55875105599E+03  0.10100000000E+03 0. -1.
    -200001    1    1    2    0    0 -0.82502744023E+02  0.10420409376E+03 -0.36403999396E+03  0.72523052413E+03  0.61300000000E+03 0.  1.
<mgrwt>
<rscale>  0 0.12699518E+04</rscale>
<asrwt>0</asrwt>
<pdfrwt beam="1">  1        2 0.18515272E+00 0.12699518E+04</pdfrwt>
<pdfrwt beam="2">  1       -2 0.44441461E-01 0.12699518E+04</pdfrwt>
<totfact> 0.88975596E+01</totfact>
</mgrwt>
</event>
<event>
 8    1  0.7685004E-052  0.1320043E+04  0.7818608E-02  0.9013820E-01
          2   -1    0    0  501    0  0.00000000000E+00  0.00000000000E+00  0.30169210751E+03  0.30169210752E+03  0.25500000000E-02 0.  1.
         -2   -1    0    0    0  501 -0.00000000000E+00 -0.00000000000E+00 -0.14439511515E+04  0.14439511515E+04  0.25500000000E-02 0. -1.
     200001    2    1    2    0    0 -0.79100837965E+02 -0.21134625382E+03 -0.69960180754E+03  0.95656873115E+03  0.61209220443E+03 0.  0.
    5000001    2    3    3    0    0  0.16380093111E+02 -0.36114692311E+03 -0.63984821243E+03  0.74366419656E+03  0.11373343737E+03 0.  0.
        -13    1    4    4    0    0  0.54005531189E+02 -0.10915819381E+03 -0.18591441681E+03  0.22225276199E+03  0.10566000000E+00 0. -1.
     200003    1    4    4    0    0 -0.37625438078E+02 -0.25198872931E+03 -0.45393379563E+03  0.52141143457E+03  0.30000000000E+02 0. -1.
     200000    1    3    3    0    0 -0.95480931076E+02  0.14980066929E+03 -0.59753595112E+02  0.21290453458E+03  0.10100000000E+03 0.  1.
    -200001    1    1    2    0    0  0.79100837965E+02  0.21134625382E+03 -0.44265723648E+03  0.78907452790E+03  0.61300000000E+03 0.  1.
<mgrwt>
<rscale>  0 0.13200434E+04</rscale>
<asrwt>0</asrwt>
<pdfrwt beam="1">  1        2 0.43098873E-01 0.13200434E+04</pdfrwt>
<pdfrwt beam="2">  1       -2 0.20627873E+00 0.13200434E+04</pdfrwt>
<totfact> 0.14052086E+01</totfact>
</mgrwt>
</event>
<event>
 8    1  0.7685004E-052  0.1335184E+04  0.7818608E-02  0.9002120E-01
         -2   -1    0    0    0  501 -0.00000000000E+00  0.00000000000E+00  0.24394333326E+03  0.24394333327E+03  0.25500000000E-02 0. -1.
          2   -1    0    0  501    0  0.00000000000E+00 -0.00000000000E+00 -0.18269774475E+04  0.18269774475E+04  0.25500000000E-02 0.  1.
     200001    2    1    2    0    0  0.37220777627E+02  0.18689226976E+03 -0.10762655751E+04  0.12530592650E+04  0.61277714265E+03 0.  0.
    5000001    2    3    3    0    0  0.24093792083E+03  0.73703923378E+01 -0.81308288696E+03  0.86165805616E+03  0.15246448864E+03 0.  0.
        -13    1    4    4    0    0  0.18500700415E+03  0.18856690016E+02 -0.37209486595E+03  0.41597808449E+03  0.10566000000E+00 0. -1.
     200003    1    4    4    0    0  0.55930916684E+02 -0.11486297678E+02 -0.44098802101E+03  0.44567997167E+03  0.30000000000E+02 0. -1.
     200000    1    3    3    0    0 -0.20371714321E+03  0.17952187743E+03 -0.26318268815E+03  0.39140120881E+03  0.10100000000E+03 0.  1.
    -200001    1    1    2    0    0 -0.37220777627E+02 -0.18689226976E+03 -0.50676853912E+03  0.81786151580E+03  0.61300000000E+03 0.  1.
<mgrwt>
<rscale>  0 0.13351838E+04</rscale>
<asrwt>0</asrwt>
<pdfrwt beam="1">  1        2 0.26099677E+00 0.13351838E+04</pdfrwt>
<pdfrwt beam="2">  1       -2 0.34849048E-01 0.13351838E+04</pdfrwt>
<totfact> 0.74461190E+01</totfact>
</mgrwt>
</event>
<event>
 8    1  0.7685004E-052  0.1634957E+04  0.7818608E-02  0.8799356E-01
         -2   -1    0    0    0  501 -0.00000000000E+00  0.00000000000E+00  0.35281619601E+03  0.35281619602E+03  0.25500000000E-02 0.  1.
          2   -1    0    0  501    0  0.00000000000E+00 -0.00000000000E+00 -0.18941046230E+04  0.18941046230E+04  0.25500000000E-02 0. -1.
     200001    2    1    2    0    0  0.44365396579E+03 -0.54493156946E+02 -0.35260469065E+03  0.83676608617E+03  0.61322839920E+03 0.  0.
    5000001    2    3    3    0    0  0.24662612273E+03  0.12677171775E+03  0.86724454621E+02  0.31246843825E+03  0.11497774149E+03 0.  0.
        -13    1    4    4    0    0  0.85656803011E+02  0.56708099086E+02 -0.20258191544E+02  0.10470578729E+03  0.10566000000E+00 0. -1.
     200003    1    4    4    0    0  0.16096931972E+03  0.70063618662E+02  0.10698264616E+03  0.20776265095E+03  0.30000000000E+02 0. -1.
     200000    1    3    3    0    0  0.19702784306E+03 -0.18126487469E+03 -0.43932914527E+03  0.52429764793E+03  0.10100000000E+03 0.  1.
    -200001    1    1    2    0    0 -0.44365396579E+03  0.54493156946E+02 -0.11886837364E+04  0.14101547329E+04  0.61300000000E+03 0. -1.
<mgrwt>
<rscale>  0 0.16349566E+04</rscale>
<asrwt>0</asrwt>
<pdfrwt beam="1">  1        2 0.27058637E+00 0.16349566E+04</pdfrwt>
<pdfrwt beam="2">  1       -2 0.50402315E-01 0.16349566E+04</pdfrwt>
<totfact> 0.32457255E+01</totfact>
</mgrwt>
</event>
<event>
 8    1  0.7685004E-052  0.2885634E+04  0.7818608E-02  0.8277165E-01
         -2   -1    0    0    0  501 -0.00000000000E+00  0.00000000000E+00  0.14079254520E+04  0.14079254520E+04  0.25500000000E-02 0. -1.
          2   -1    0    0  501    0  0.00000000000E+00 -0.00000000000E+00 -0.14785729889E+04  0.14785729889E+04  0.25500000000E-02 0.  1.
     200001    2    1    2    0    0  0.10706273212E+04  0.31991710232E+03  0.64070988837E+03  0.14269135000E+04  0.61398954572E+03 0.  0.
    5000001    2    3    3    0    0  0.67108735358E+03  0.77159026663E+02  0.79007270378E+02  0.68916388121E+03  0.11132364911E+03 0.  0.
        -13    1    4    4    0    0  0.21685154554E+03  0.14968620974E+02 -0.22817929983E+02  0.21856193975E+03  0.10566000000E+00 0. -1.
     200003    1    4    4    0    0  0.45423580805E+03  0.62190405688E+02  0.10182520036E+03  0.47060194146E+03  0.30000000000E+02 0. -1.
     200000    1    3    3    0    0  0.39953996763E+03  0.24275807566E+03  0.56170261799E+03  0.73774961884E+03  0.10100000000E+03 0.  1.
    -200001    1    1    2    0    0 -0.10706273212E+04 -0.31991710232E+03 -0.71135742522E+03  0.14595849409E+04  0.61300000000E+03 0.  1.
<mgrwt>
<rscale>  0 0.28856338E+04</rscale>
<asrwt>0</asrwt>
<pdfrwt beam="1">  1        2 0.21122471E+00 0.28856338E+04</pdfrwt>
<pdfrwt beam="2">  1       -2 0.20113221E+00 0.28856338E+04</pdfrwt>
<totfact> 0.17080170E+00</totfact>
</mgrwt>
</event>
<event>
 8    1  0.7685004E-052  0.1907852E+04  0.7818608E-02  0.8650958E-01
          2   -1    0    0  501    0  0.00000000000E+00  0.00000000000E+00  0.67321918761E+03  0.67321918761E+03  0.25500000000E-02 0.  1.
         -2   -1    0    0    0  501 -0.00000000000E+00 -0.00000000000E+00 -0.13516770874E+04  0.13516770874E+04  0.25500000000E-02 0. -1.
     200001    2    1    2    0    0 -0.57308222475E+03 -0.36254308364E+03 -0.49356772092E+02  0.91521255762E+03  0.61263138254E+03 0.  0.
    5000001    2    3    3    0    0 -0.21120221517E+03 -0.46244477993E+03 -0.94423540300E+02  0.52384380076E+03  0.83874742653E+02 0.  0.
        -13    1    4    4    0    0 -0.18974086458E+01 -0.42129928817E+01  0.76724458379E+01  0.89569558311E+01  0.10566000000E+00 0. -1.
     200003    1    4    4    0    0 -0.20930480653E+03 -0.45823178705E+03 -0.10209598614E+03  0.51488684493E+03  0.30000000000E+02 0. -1.
     200000    1    3    3    0    0 -0.36188000957E+03  0.99901696295E+02  0.45066768207E+02  0.39136875686E+03  0.10100000000E+03 0.  1.
    -200001    1    1    2    0    0  0.57308222475E+03  0.36254308364E+03 -0.62910112774E+03  0.11096837174E+04  0.61300000000E+03 0. -1.
<mgrwt>
<rscale>  0 0.19078521E+04</rscale>
<asrwt>0</asrwt>
<pdfrwt beam="1">  1        2 0.96174171E-01 0.19078521E+04</pdfrwt>
<pdfrwt beam="2">  1       -2 0.19309672E+00 0.19078521E+04</pdfrwt>
<totfact> 0.65487633E+00</totfact>
</mgrwt>
</event>
<event>
 8    1  0.7685004E-052  0.1718075E+04  0.7818608E-02  0.8751122E-01
         -2   -1    0    0    0  501 -0.00000000000E+00  0.00000000000E+00  0.95104896500E+03  0.95104896500E+03  0.25500000000E-02 0. -1.
          2   -1    0    0  501    0  0.00000000000E+00 -0.00000000000E+00 -0.77592762260E+03  0.77592762260E+03  0.25500000000E-02 0.  1.
     200001    2    1    2    0    0  0.33165914598E+03 -0.50053488990E+03  0.46923769540E+02  0.85937265561E+03  0.61301431952E+03 0.  0.
    5000001    2    3    3    0    0 -0.10832636027E+03 -0.36000754647E+03 -0.51876881197E+01  0.38371334057E+03  0.76609280004E+02 0.  0.
        -13    1    4    4    0    0 -0.44281883922E+02 -0.24189163285E+03 -0.74567713325E+01  0.24602451481E+03  0.10566000000E+00 0. -1.
     200003    1    4    4    0    0 -0.64044476347E+02 -0.11811591362E+03  0.22690832128E+01  0.13768882576E+03  0.30000000000E+02 0. -1.
     200000    1    3    3    0    0  0.43998550625E+03 -0.14052734344E+03  0.52111457659E+02  0.47565931504E+03  0.10100000000E+03 0.  1.
    -200001    1    1    2    0    0 -0.33165914598E+03  0.50053488990E+03  0.12819757286E+03  0.86760393199E+03  0.61300000000E+03 0.  1.
<mgrwt>
<rscale>  0 0.17180747E+04</rscale>
<asrwt>0</asrwt>
<pdfrwt beam="1">  1        2 0.11084680E+00 0.17180747E+04</pdfrwt>
<pdfrwt beam="2">  1       -2 0.13586414E+00 0.17180747E+04</pdfrwt>
<totfact> 0.14617744E+01</totfact>
</mgrwt>
</event>
<event>
 8    1  0.7685004E-052  0.1735448E+04  0.7818608E-02  0.8741402E-01
         -2   -1    0    0    0  501 -0.00000000000E+00  0.00000000000E+00  0.12035169236E+04  0.12035169236E+04  0.25500000000E-02 0. -1.
          2   -1    0    0  501    0  0.00000000000E+00 -0.00000000000E+00 -0.62562028438E+03  0.62562028439E+03  0.25500000000E-02 0.  1.
     200001    2    1    2    0    0 -0.39986453247E+03 -0.27002224018E+03  0.68891019545E+03  0.10411672440E+04  0.61370051171E+03 0.  0.
    5000001    2    3    3    0    0  0.69387554706E+02  0.57666235331E+02 -0.22096705009E+02  0.12284863328E+03  0.80395863581E+02 0.  0.
        -13    1    4    4    0    0  0.13493242309E+02  0.29898632268E+02 -0.39601801337E+02  0.51422851270E+02  0.10566000000E+00 0. -1.
     200003    1    4    4    0    0  0.55894312397E+02  0.27767603062E+02  0.17505096328E+02  0.71425782009E+02  0.30000000000E+02 0. -1.
     200000    1    3    3    0    0 -0.46925208718E+03 -0.32768847551E+03  0.71100690045E+03  0.91831861072E+03  0.10100000000E+03 0.  1.
    -200001    1    1    2    0    0  0.39986453247E+03  0.27002224018E+03 -0.11101355621E+03  0.78796996401E+03  0.61300000000E+03 0. -1.
<mgrwt>
<rscale>  0 0.17354476E+04</rscale>
<asrwt>0</asrwt>
<pdfrwt beam="1">  1        2 0.89374327E-01 0.17354476E+04</pdfrwt>
<pdfrwt beam="2">  1       -2 0.17193099E+00 0.17354476E+04</pdfrwt>
<totfact> 0.10135119E+01</totfact>
</mgrwt>
</event>
<event>
 8    1  0.7685004E-052  0.1331371E+04  0.7818608E-02  0.9005051E-01
         -2   -1    0    0    0  501 -0.00000000000E+00  0.00000000000E+00  0.29075221228E+03  0.29075221229E+03  0.25500000000E-02 0. -1.
          2   -1    0    0  501    0  0.00000000000E+00 -0.00000000000E+00 -0.15241069493E+04  0.15241069493E+04  0.25500000000E-02 0.  1.
     200001    2    1    2    0    0  0.14898478880E+03 -0.51168656911E+02 -0.89865308795E+03  0.10988920586E+04  0.61251259997E+03 0.  0.
    5000001    2    3    3    0    0  0.18272792256E+03  0.18314671438E+03 -0.75306066577E+03  0.80318875168E+03  0.10525964008E+03 0.  0.
        -13    1    4    4    0    0  0.34502121691E+02  0.37531158777E+01 -0.42381255725E+02  0.54778319442E+02  0.10566000000E+00 0. -1.
     200003    1    4    4    0    0  0.14822580087E+03  0.17939359850E+03 -0.71067941004E+03  0.74841043224E+03  0.30000000000E+02 0. -1.
     200000    1    3    3    0    0 -0.33743133761E+02 -0.23431537129E+03 -0.14559242218E+03  0.29570330687E+03  0.10100000000E+03 0. -1.
    -200001    1    1    2    0    0 -0.14898478880E+03  0.51168656911E+02 -0.33470164909E+03  0.71596710305E+03  0.61300000000E+03 0.  1.
<mgrwt>
<rscale>  0 0.13313714E+04</rscale>
<asrwt>0</asrwt>
<pdfrwt beam="1">  1        2 0.21772956E+00 0.13313714E+04</pdfrwt>
<pdfrwt beam="2">  1       -2 0.41536031E-01 0.13313714E+04</pdfrwt>
<totfact> 0.76243484E+01</totfact>
</mgrwt>
</event>
<event>
 8    1  0.7685004E-052  0.1381587E+04  0.7818608E-02  0.8967256E-01
          2   -1    0    0  501    0  0.00000000000E+00  0.00000000000E+00  0.54303437524E+03  0.54303437524E+03  0.25500000000E-02 0.  1.
         -2   -1    0    0    0  501 -0.00000000000E+00 -0.00000000000E+00 -0.87875789678E+03  0.87875789678E+03  0.25500000000E-02 0. -1.
     200001    2    1    2    0    0 -0.10114890854E+03  0.26765240732E+03 -0.31171033977E+03  0.74487680778E+03  0.61303279684E+03 0.  0.
    5000001    2    3    3    0    0 -0.18947949115E+03  0.18235639557E+03  0.10876403877E+03  0.29534660362E+03  0.79016881524E+02 0.  0.
        -13    1    4    4    0    0  0.62375973948E+01  0.11389463372E+02  0.54800408632E+01  0.14095017171E+02  0.10566000000E+00 0. -1.
     200003    1    4    4    0    0 -0.19571708854E+03  0.17096693220E+03  0.10328399791E+03  0.28125158644E+03  0.30000000000E+02 0. -1.
     200000    1    3    3    0    0  0.88330582608E+02  0.85296011752E+02 -0.42047437854E+03  0.44953020416E+03  0.10100000000E+03 0. -1.
    -200001    1    1    2    0    0  0.10114890854E+03 -0.26765240732E+03 -0.24013181773E+02  0.67691546425E+03  0.61300000000E+03 0.  1.
<mgrwt>
<rscale>  0 0.13815871E+04</rscale>
<asrwt>0</asrwt>
<pdfrwt beam="1">  1        2 0.77576340E-01 0.13815871E+04</pdfrwt>
<pdfrwt beam="2">  1       -2 0.12553684E+00 0.13815871E+04</pdfrwt>
<totfact> 0.28247468E+01</totfact>
</mgrwt>
</event>
<event>
 8    1  0.7685004E-052  0.1262627E+04  0.7818608E-02  0.9059739E-01
         -2   -1    0    0    0  501 -0.00000000000E+00  0.00000000000E+00  0.31808893987E+03  0.31808893988E+03  0.25500000000E-02 0.  1.
          2   -1    0    0  501    0  0.00000000000E+00 -0.00000000000E+00 -0.12529717997E+04  0.12529717997E+04  0.25500000000E-02 0. -1.
     200001    2    1    2    0    0 -0.43130167004E+02 -0.30200722407E+02 -0.28837772305E+03  0.67858654565E+03  0.61200138386E+03 0.  0.
    5000001    2    3    3    0    0 -0.14519991023E+03 -0.18425837705E+03 -0.36509279586E+03  0.45444775867E+03  0.13489200246E+03 0.  0.
        -13    1    4    4    0    0 -0.14772702995E+03 -0.12970500628E+03 -0.32661915114E+03  0.38121745119E+03  0.10566000000E+00 0. -1.
     200003    1    4    4    0    0  0.25271197279E+01 -0.54553370765E+02 -0.38473644724E+02  0.73230307485E+02  0.30000000000E+02 0. -1.
     200000    1    3    3    0    0  0.10206974322E+03  0.15405765464E+03  0.76715072810E+02  0.22413878698E+03  0.10100000000E+03 0.  1.
    -200001    1    1    2    0    0  0.43130167004E+02  0.30200722407E+02 -0.64650513677E+03  0.89247419392E+03  0.61300000000E+03 0. -1.
<mgrwt>
<rscale>  0 0.12626266E+04</rscale>
<asrwt>0</asrwt>
<pdfrwt beam="1">  1        2 0.17899597E+00 0.12626266E+04</pdfrwt>
<pdfrwt beam="2">  1       -2 0.45441278E-01 0.12626266E+04</pdfrwt>
<totfact> 0.89998557E+01</totfact>
</mgrwt>
</event>
<event>
 8    1  0.7685004E-052  0.2709694E+04  0.7818608E-02  0.8331866E-01
          2   -1    0    0  501    0  0.00000000000E+00  0.00000000000E+00  0.32728473510E+04  0.32728473510E+04  0.25500000000E-02 0.  1.
         -2   -1    0    0    0  501 -0.00000000000E+00 -0.00000000000E+00 -0.56086032388E+03  0.56086032389E+03  0.25500000000E-02 0. -1.
     200001    2    1    2    0    0 -0.88927735611E+03 -0.59602686473E+03  0.56413599544E+03  0.13567952231E+04  0.61366246139E+03 0.  0.
    5000001    2    3    3    0    0 -0.15115992394E+03 -0.14667684876E+03  0.12912759685E+03  0.38408453263E+03  0.29408089256E+03 0.  0.
        -13    1    4    4    0    0 -0.40398189827E+02 -0.52134136660E+02  0.20628637028E+03  0.21657345099E+03  0.10566000000E+00 0. -1.
     200003    1    4    4    0    0 -0.11076173411E+03 -0.94542712100E+02 -0.77158773425E+02  0.16751108164E+03  0.30000000000E+02 0. -1.
     200000    1    3    3    0    0 -0.73811743217E+03 -0.44935001597E+03  0.43500839859E+03  0.97271069048E+03  0.10100000000E+03 0. -1.
    -200001    1    1    2    0    0  0.88927735611E+03  0.59602686473E+03  0.21478510317E+04  0.24769124518E+04  0.61300000000E+03 0.  1.
<mgrwt>
<rscale>  0 0.27096939E+04</rscale>
<asrwt>0</asrwt>
<pdfrwt beam="1">  1        2 0.46754962E+00 0.27096939E+04</pdfrwt>
<pdfrwt beam="2">  1       -2 0.80122904E-01 0.27096939E+04</pdfrwt>
<totfact> 0.19973685E+00</totfact>
</mgrwt>
</event>
<event>
 8    1  0.7685004E-052  0.1749004E+04  0.7818608E-02  0.8733898E-01
          2   -1    0    0  501    0  0.00000000000E+00  0.00000000000E+00  0.13867426885E+04  0.13867426885E+04  0.25500000000E-02 0.  1.
         -2   -1    0    0    0  501 -0.00000000000E+00 -0.00000000000E+00 -0.55147516037E+03  0.55147516038E+03  0.25500000000E-02 0. -1.
     200001    2    1    2    0    0  0.52339368743E+03  0.32593564820E+03  0.52323895657E+03  0.10144723058E+04  0.61253575798E+03 0.  0.
    5000001    2    3    3    0    0  0.33890193821E+03  0.19413517335E+03  0.62940104209E+03  0.74450942114E+03  0.74870669391E+02 0.  0.
        -13    1    4    4    0    0  0.85403054069E+02  0.66686234771E+02  0.12886000570E+03  0.16836165771E+03  0.10566000000E+00 0. -1.
     200003    1    4    4    0    0  0.25349888414E+03  0.12744893857E+03  0.50054103639E+03  0.57614776344E+03  0.30000000000E+02 0. -1.
     200000    1    3    3    0    0  0.18449174923E+03  0.13180047485E+03 -0.10616208552E+03  0.26996288468E+03  0.10100000000E+03 0. -1.
    -200001    1    1    2    0    0 -0.52339368743E+03 -0.32593564820E+03  0.31202857153E+03  0.92374554303E+03  0.61300000000E+03 0. -1.
<mgrwt>
<rscale>  0 0.17490045E+04</rscale>
<asrwt>0</asrwt>
<pdfrwt beam="1">  1        2 0.19810610E+00 0.17490045E+04</pdfrwt>
<pdfrwt beam="2">  1       -2 0.78782166E-01 0.17490045E+04</pdfrwt>
<totfact> 0.22881253E+01</totfact>
</mgrwt>
</event>
<event>
 8    1  0.7685004E-052  0.2083250E+04  0.7818608E-02  0.8568658E-01
         -2   -1    0    0    0  501 -0.00000000000E+00  0.00000000000E+00  0.87685798306E+03  0.87685798306E+03  0.25500000000E-02 0. -1.
          2   -1    0    0  501    0  0.00000000000E+00 -0.00000000000E+00 -0.12373529728E+04  0.12373529728E+04  0.25500000000E-02 0.  1.
     200001    2    1    2    0    0 -0.22360679701E+03  0.44189704402E+03  0.51082894009E+03  0.93937165286E+03  0.61335136666E+03 0.  0.
    5000001    2    3    3    0    0 -0.33678101123E+03  0.46775443207E+03  0.24790512151E+03  0.63472933528E+03  0.95962083930E+02 0.  0.
        -13    1    4    4    0    0 -0.10399210681E+03  0.18308089694E+03  0.51535812774E+02  0.21676928810E+03  0.10566000000E+00 0. -1.
     200003    1    4    4    0    0 -0.23278890442E+03  0.28467353513E+03  0.19636930873E+03  0.41796004718E+03  0.30000000000E+02 0. -1.
     200000    1    3    3    0    0  0.11317421422E+03 -0.25857388050E+02  0.26292381859E+03  0.30464231758E+03  0.10100000000E+03 0.  1.
    -200001    1    1    2    0    0  0.22360679701E+03 -0.44189704402E+03 -0.87132392982E+03  0.11748393030E+04  0.61300000000E+03 0.  1.
<mgrwt>
<rscale>  0 0.20832502E+04</rscale>
<asrwt>0</asrwt>
<pdfrwt beam="1">  1        2 0.17676471E+00 0.20832502E+04</pdfrwt>
<pdfrwt beam="2">  1       -2 0.12526543E+00 0.20832502E+04</pdfrwt>
<totfact> 0.89973721E+00</totfact>
</mgrwt>
</event>
<event>
 8    1  0.7685004E-052  0.1320098E+04  0.7818608E-02  0.9013778E-01
         -2   -1    0    0    0  501 -0.00000000000E+00  0.00000000000E+00  0.41514979619E+03  0.41514979620E+03  0.25500000000E-02 0. -1.
          2   -1    0    0  501    0  0.00000000000E+00 -0.00000000000E+00 -0.10494149686E+04  0.10494149686E+04  0.25500000000E-02 0.  1.
     200001    2    1    2    0    0 -0.73560811370E+02 -0.59294345564E+02 -0.63632462955E+02  0.62176128742E+03  0.61123726638E+03 0.  0.
    5000001    2    3    3    0    0 -0.50430474211E+02  0.94514281588E+02 -0.29467019481E+03  0.32549866774E+03  0.87422404667E+02 0.  0.
        -13    1    4    4    0    0 -0.53849921987E+02  0.67420687685E+02 -0.13091475522E+03  0.15679300853E+03  0.10566000000E+00 0. -1.
     200003    1    4    4    0    0  0.34194477759E+01  0.27093593902E+02 -0.16375543959E+03  0.16870565921E+03  0.30000000000E+02 0. -1.
     200000    1    3    3    0    0 -0.23130337159E+02 -0.15380862715E+03  0.23103773185E+03  0.29626261968E+03  0.10100000000E+03 0. -1.
    -200001    1    1    2    0    0  0.73560811370E+02  0.59294345564E+02 -0.57063270947E+03  0.84280347739E+03  0.61300000000E+03 0.  1.
<mgrwt>
<rscale>  0 0.13200976E+04</rscale>
<asrwt>0</asrwt>
<pdfrwt beam="1">  1        2 0.14991642E+00 0.13200976E+04</pdfrwt>
<pdfrwt beam="2">  1       -2 0.59307114E-01 0.13200976E+04</pdfrwt>
<totfact> 0.68124959E+01</totfact>
</mgrwt>
</event>
<event>
 8    1  0.7685004E-052  0.1372580E+04  0.7818608E-02  0.8973909E-01
          2   -1    0    0  501    0  0.00000000000E+00  0.00000000000E+00  0.23354048451E+04  0.23354048451E+04  0.25500000000E-02 0.  1.
         -2   -1    0    0    0  501 -0.00000000000E+00 -0.00000000000E+00 -0.20167547051E+03  0.20167547053E+03  0.25500000000E-02 0. -1.
     200001    2    1    2    0    0  0.27734749650E+03  0.72490803807E+02  0.12665912470E+04  0.14371375523E+04  0.61557648314E+03 0.  0.
    5000001    2    3    3    0    0 -0.11223620372E+03 -0.73476979565E+02  0.74994881497E+03  0.76616627428E+03  0.81189302370E+02 0.  0.
        -13    1    4    4    0    0 -0.65126118679E+02 -0.44712845438E+02  0.57250489735E+03  0.57792951000E+03  0.10566000000E+00 0. -1.
     200003    1    4    4    0    0 -0.47110085043E+02 -0.28764134127E+02  0.17744391763E+03  0.18823676428E+03  0.30000000000E+02 0. -1.
     200000    1    3    3    0    0  0.38958370022E+03  0.14596778337E+03  0.51664243205E+03  0.67097127797E+03  0.10100000000E+03 0. -1.
    -200001    1    1    2    0    0 -0.27734749650E+03 -0.72490803807E+02  0.86713812758E+03  0.10999427634E+04  0.61300000000E+03 0.  1.
<mgrwt>
<rscale>  0 0.13725799E+04</rscale>
<asrwt>0</asrwt>
<pdfrwt beam="1">  1        2 0.33362926E+00 0.13725799E+04</pdfrwt>
<pdfrwt beam="2">  1       -2 0.28810781E-01 0.13725799E+04</pdfrwt>
<totfact> 0.58126622E+01</totfact>
</mgrwt>
</event>
<event>
 8    1  0.7685004E-052  0.3216575E+04  0.7818608E-02  0.8184454E-01
          2   -1    0    0  501    0  0.00000000000E+00  0.00000000000E+00  0.35613634104E+04  0.35613634104E+04  0.25500000000E-02 0.  1.
         -2   -1    0    0    0  501 -0.00000000000E+00 -0.00000000000E+00 -0.72629157398E+03  0.72629157399E+03  0.25500000000E-02 0. -1.
     200001    2    1    2    0    0  0.14421030289E+04 -0.11588678042E+03  0.18835926574E+04  0.24507629026E+04  0.60433981669E+03 0.  0.
    5000001    2    3    3    0    0  0.40894625873E+03 -0.41722623662E+02  0.18526526928E+03  0.45892200759E+03  0.85489000458E+02 0.  0.
        -13    1    4    4    0    0  0.57649489638E+02  0.49665108699E+01 -0.96186279748E-01  0.57863203347E+02  0.10566000000E+00 0. -1.
     200003    1    4    4    0    0  0.35129676909E+03 -0.46689134532E+02  0.18536145556E+03  0.40105880424E+03  0.30000000000E+02 0. -1.
     200000    1    3    3    0    0  0.10331567702E+04 -0.74164156757E+02  0.16983273881E+04  0.19918408950E+04  0.10100000000E+03 0.  1.
    -200001    1    1    2    0    0 -0.14421030289E+04  0.11588678042E+03  0.95147917904E+03  0.18368920818E+04  0.61300000000E+03 0. -1.
<mgrwt>
<rscale>  0 0.32165747E+04</rscale>
<asrwt>0</asrwt>
<pdfrwt beam="1">  1        2 0.50876620E+00 0.32165747E+04</pdfrwt>
<pdfrwt beam="2">  1       -2 0.10375594E+00 0.32165747E+04</pdfrwt>
<totfact> 0.70526478E-01</totfact>
</mgrwt>
</event>
<event>
 8    1  0.7685004E-052  0.1323944E+04  0.7818608E-02  0.9010790E-01
         -2   -1    0    0    0  501 -0.00000000000E+00  0.00000000000E+00  0.32485586333E+03  0.32485586334E+03  0.25500000000E-02 0. -1.
          2   -1    0    0  501    0  0.00000000000E+00 -0.00000000000E+00 -0.13489263946E+04  0.13489263946E+04  0.25500000000E-02 0.  1.
     200001    2    1    2    0    0 -0.24471645984E+03 -0.18157686122E+02 -0.57070958720E+03  0.87283220152E+03  0.61311562679E+03 0.  0.
    5000001    2    3    3    0    0 -0.13787619874E+03  0.14924637227E+03 -0.36373404906E+03  0.56872887444E+03  0.38712497770E+03 0.  0.
        -13    1    4    4    0    0 -0.25297628819E+03  0.10754073492E+02 -0.18838036459E+03  0.31559440015E+03  0.10566000000E+00 0. -1.
     200003    1    4    4    0    0  0.11510008945E+03  0.13849229878E+03 -0.17535368447E+03  0.25313447428E+03  0.30000000000E+02 0. -1.
     200000    1    3    3    0    0 -0.10684026110E+03 -0.16740405839E+03 -0.20697553814E+03  0.30410332709E+03  0.10100000000E+03 0. -1.
    -200001    1    1    2    0    0  0.24471645984E+03  0.18157686122E+02 -0.45336094410E+03  0.80095005644E+03  0.61300000000E+03 0. -1.
<mgrwt>
<rscale>  0 0.13239436E+04</rscale>
<asrwt>0</asrwt>
<pdfrwt beam="1">  1        2 0.19270377E+00 0.13239436E+04</pdfrwt>
<pdfrwt beam="2">  1       -2 0.46407981E-01 0.13239436E+04</pdfrwt>
<totfact> 0.76017737E+01</totfact>
</mgrwt>
</event>
<event>
 8    1  0.7685004E-052  0.1336330E+04  0.7818608E-02  0.9001241E-01
          2   -1    0    0  501    0  0.00000000000E+00  0.00000000000E+00  0.37207664670E+04  0.37207664670E+04  0.25500000000E-02 0.  1.
         -2   -1    0    0    0  501 -0.00000000000E+00 -0.00000000000E+00 -0.11998730116E+03  0.11998730118E+03  0.25500000000E-02 0. -1.
     200001    2    1    2    0    0 -0.13349209106E+03 -0.79380769292E+02  0.11852634028E+04  0.13438342968E+04  0.61393797603E+03 0.  0.
    5000001    2    3    3    0    0 -0.32761463067E+03  0.41827543544E+01  0.96768143126E+03  0.10241323462E+04  0.71350322736E+02 0.  0.
        -13    1    4    4    0    0 -0.15065035943E+03  0.30015860534E+01  0.53194849502E+03  0.55287770152E+03  0.10566000000E+00 0. -1.
     200003    1    4    4    0    0 -0.17696427123E+03  0.11811683010E+01  0.43573293624E+03  0.47125464473E+03  0.30000000000E+02 0. -1.
     200000    1    3    3    0    0  0.19412253960E+03 -0.83563523646E+02  0.21758197152E+03  0.31970195057E+03  0.10100000000E+03 0. -1.
    -200001    1    1    2    0    0  0.13349209106E+03  0.79380769292E+02  0.24155157631E+04  0.24969194714E+04  0.61300000000E+03 0.  1.
<mgrwt>
<rscale>  0 0.13363304E+04</rscale>
<asrwt>0</asrwt>
<pdfrwt beam="1">  1        2 0.53153801E+00 0.13363304E+04</pdfrwt>
<pdfrwt beam="2">  1       -2 0.17141045E-01 0.13363304E+04</pdfrwt>
<totfact> 0.24367277E+01</totfact>
</mgrwt>
</event>
<event>
 8    1  0.7685004E-052  0.1685984E+04  0.7818608E-02  0.8769399E-01
          2   -1    0    0  501    0  0.00000000000E+00  0.00000000000E+00  0.64454995657E+03  0.64454995657E+03  0.25500000000E-02 0.  1.
         -2   -1    0    0    0  501 -0.00000000000E+00 -0.00000000000E+00 -0.11025302231E+04  0.11025302231E+04  0.25500000000E-02 0. -1.
     200001    2    1    2    0    0  0.35112642754E+03  0.31420351976E+03  0.11986485893E+03  0.78184051565E+03  0.61228538081E+03 0.  0.
    5000001    2    3    3    0    0 -0.45703060209E+01  0.31713506551E+03  0.11409358617E+03  0.41202560543E+03  0.23696458734E+03 0.  0.
        -13    1    4    4    0    0 -0.11353690998E+02  0.13159496482E+03 -0.69453894476E+02  0.14923134954E+03  0.10566000000E+00 0. -1.
     200003    1    4    4    0    0  0.67833849771E+01  0.18554010070E+03  0.18354748064E+03  0.26279425589E+03  0.30000000000E+02 0. -1.
     200000    1    3    3    0    0  0.35569673356E+03 -0.29315457497E+01  0.57712727687E+01  0.36981491022E+03  0.10100000000E+03 0. -1.
    -200001    1    1    2    0    0 -0.35112642754E+03 -0.31420351976E+03 -0.57784512542E+03  0.96523966398E+03  0.61300000000E+03 0. -1.
<mgrwt>
<rscale>  0 0.16859844E+04</rscale>
<asrwt>0</asrwt>
<pdfrwt beam="1">  1        2 0.92078565E-01 0.16859844E+04</pdfrwt>
<pdfrwt beam="2">  1       -2 0.15750432E+00 0.16859844E+04</pdfrwt>
<totfact> 0.12494363E+01</totfact>
</mgrwt>
</event>
<event>
 8    1  0.7685004E-052  0.1676099E+04  0.7818608E-02  0.8775115E-01
         -2   -1    0    0    0  501 -0.00000000000E+00  0.00000000000E+00  0.21120634123E+03  0.21120634124E+03  0.25500000000E-02 0. -1.
          2   -1    0    0  501    0  0.00000000000E+00 -0.00000000000E+00 -0.33253117327E+04  0.33253117327E+04  0.25500000000E-02 0.  1.
     200001    2    1    2    0    0  0.34874285262E+03 -0.19986088125E+03 -0.24138342551E+04  0.25227554718E+04  0.61329716303E+03 0.  0.
    5000001    2    3    3    0    0 -0.72490406687E+02 -0.10057770390E+03 -0.14924333451E+04  0.14997817453E+04  0.81346545650E+02 0.  0.
        -13    1    4    4    0    0 -0.55681318018E+02 -0.66233145015E+02 -0.12186481188E+04  0.12217162057E+04  0.10566000000E+00 0. -1.
     200003    1    4    4    0    0 -0.16809088669E+02 -0.34344558884E+02 -0.27378522630E+03  0.27806553963E+03  0.30000000000E+02 0.  1.
     200000    1    3    3    0    0  0.42123325931E+03 -0.99283177353E+02 -0.92140091004E+03  0.10229737265E+04  0.10100000000E+03 0. -1.
    -200001    1    1    2    0    0 -0.34874285262E+03  0.19986088125E+03 -0.70027113639E+03  0.10137626022E+04  0.61300000000E+03 0. -1.
<mgrwt>
<rscale>  0 0.16760990E+04</rscale>
<asrwt>0</asrwt>
<pdfrwt beam="1">  1        2 0.47504450E+00 0.16760990E+04</pdfrwt>
<pdfrwt beam="2">  1       -2 0.30172336E-01 0.16760990E+04</pdfrwt>
<totfact> 0.14930809E+01</totfact>
</mgrwt>
</event>
<event>
 8    1  0.7685004E-052  0.1325006E+04  0.7818608E-02  0.9009967E-01
          2   -1    0    0  501    0  0.00000000000E+00  0.00000000000E+00  0.17198414409E+04  0.17198414409E+04  0.25500000000E-02 0.  1.
         -2   -1    0    0    0  501 -0.00000000000E+00 -0.00000000000E+00 -0.25520380225E+03  0.25520380226E+03  0.25500000000E-02 0. -1.
     200001    2    1    2    0    0  0.10932514911E+03  0.16112497126E+03  0.49488938531E+03  0.81138983050E+03  0.61280070884E+03 0.  0.
    5000001    2    3    3    0    0  0.64728315069E+02  0.37896899027E+03  0.34060327065E+03  0.52251252193E+03  0.95924435049E+02 0.  0.
        -13    1    4    4    0    0  0.61827563061E+01 -0.35680742281E+00  0.21795438330E+02  0.22658466036E+02  0.10566000000E+00 0. -1.
     200003    1    4    4    0    0  0.58545558763E+02  0.37932579769E+03  0.31880783232E+03  0.49985405590E+03  0.30000000000E+02 0. -1.
     200000    1    3    3    0    0  0.44596834041E+02 -0.21784401901E+03  0.15428611466E+03  0.28887730856E+03  0.10100000000E+03 0. -1.
    -200001    1    1    2    0    0 -0.10932514911E+03 -0.16112497126E+03  0.96974825337E+03  0.11636554127E+04  0.61300000000E+03 0.  1.
<mgrwt>
<rscale>  0 0.13250058E+04</rscale>
<asrwt>0</asrwt>
<pdfrwt beam="1">  1        2 0.24569164E+00 0.13250058E+04</pdfrwt>
<pdfrwt beam="2">  1       -2 0.36457685E-01 0.13250058E+04</pdfrwt>
<totfact> 0.77637482E+01</totfact>
</mgrwt>
</event>
<event>
 8    1  0.7685004E-052  0.1489668E+04  0.7818608E-02  0.8891353E-01
          2   -1    0    0  501    0  0.00000000000E+00  0.00000000000E+00  0.29880449551E+04  0.29880449551E+04  0.25500000000E-02 0.  1.
         -2   -1    0    0    0  501 -0.00000000000E+00 -0.00000000000E+00 -0.18566572668E+03  0.18566572670E+03  0.25500000000E-02 0. -1.
     200001    2    1    2    0    0  0.29689063775E+03  0.29188461582E+03  0.15636092757E+04  0.17302216186E+04  0.61274154647E+03 0.  0.
    5000001    2    3    3    0    0 -0.10438537812E+03  0.35716225261E+02  0.59295362191E+02  0.14914412666E+03  0.80969590752E+02 0.  0.
        -13    1    4    4    0    0 -0.84177116433E+02  0.48715777674E+02  0.51017918309E+02  0.10982646802E+03  0.10566000000E+00 0. -1.
     200003    1    4    4    0    0 -0.20208261688E+02 -0.12999552413E+02  0.82774438816E+01  0.39317658636E+02  0.30000000000E+02 0. -1.
     200000    1    3    3    0    0  0.40127601587E+03  0.25616839056E+03  0.15043139135E+04  0.15810774920E+04  0.10100000000E+03 0.  1.
    -200001    1    1    2    0    0 -0.29689063775E+03 -0.29188461582E+03  0.12387699527E+04  0.14434890632E+04  0.61300000000E+03 0. -1.
<mgrwt>
<rscale>  0 0.14896678E+04</rscale>
<asrwt>0</asrwt>
<pdfrwt beam="1">  1        2 0.42686358E+00 0.14896678E+04</pdfrwt>
<pdfrwt beam="2">  1       -2 0.26523674E-01 0.14896678E+04</pdfrwt>
<totfact> 0.30020532E+01</totfact>
</mgrwt>
</event>
<event>
 8    1  0.7685004E-052  0.1541722E+04  0.7818608E-02  0.8857173E-01
         -2   -1    0    0    0  501 -0.00000000000E+00  0.00000000000E+00  0.16962715486E+03  0.16962715488E+03  0.25500000000E-02 0. -1.
          2   -1    0    0  501    0  0.00000000000E+00 -0.00000000000E+00 -0.35031334341E+04  0.35031334341E+04  0.25500000000E-02 0.  1.
     200001    2    1    2    0    0  0.44862449685E+03  0.11437852240E+03 -0.18158866388E+04  0.19717947579E+04  0.61333832154E+03 0.  0.
    5000001    2    3    3    0    0  0.12855781944E+03  0.75871019800E+02 -0.27171965465E+03  0.39110561049E+03  0.23842924160E+03 0.  0.
        -13    1    4    4    0    0  0.41515718481E+02 -0.15191291843E+02 -0.25700376969E+03  0.26077821809E+03  0.10566000000E+00 0. -1.
     200003    1    4    4    0    0  0.87042100957E+02  0.91062311644E+02 -0.14715884963E+02  0.13032739241E+03  0.30000000000E+02 0. -1.
     200000    1    3    3    0    0  0.32006667741E+03  0.38507502599E+02 -0.15441669842E+04  0.15806891474E+04  0.10100000000E+03 0.  1.
    -200001    1    1    2    0    0 -0.44862449685E+03 -0.11437852240E+03 -0.15176196405E+04  0.17009658311E+04  0.61300000000E+03 0.  1.
<mgrwt>
<rscale>  0 0.15417218E+04</rscale>
<asrwt>0</asrwt>
<pdfrwt beam="1">  1        2 0.50044759E+00 0.15417218E+04</pdfrwt>
<pdfrwt beam="2">  1       -2 0.24232453E-01 0.15417218E+04</pdfrwt>
<totfact> 0.17695151E+01</totfact>
</mgrwt>
</event>
<event>
 8    1  0.7685004E-052  0.1754573E+04  0.7818608E-02  0.8730837E-01
         -2   -1    0    0    0  501 -0.00000000000E+00  0.00000000000E+00  0.75554079547E+03  0.75554079548E+03  0.25500000000E-02 0. -1.
          2   -1    0    0  501    0  0.00000000000E+00 -0.00000000000E+00 -0.10186496791E+04  0.10186496791E+04  0.25500000000E-02 0.  1.
     200001    2    1    2    0    0 -0.51729675266E+02  0.32448310827E+02 -0.76344656187E+03  0.98056862220E+03  0.61231962065E+03 0.  0.
    5000001    2    3    3    0    0 -0.19588441042E+03 -0.20701102391E+03 -0.36819967147E+03  0.48605627147E+03  0.13948273978E+03 0.  0.
        -13    1    4    4    0    0 -0.11134295544E+03 -0.69601282440E+02 -0.78151465267E+02  0.15280462994E+03  0.10566000000E+00 0. -1.
     200003    1    4    4    0    0 -0.84541454983E+02 -0.13740974147E+03 -0.29004820620E+03  0.33325164153E+03  0.30000000000E+02 0. -1.
     200000    1    3    3    0    0  0.14415473515E+03  0.23945933473E+03 -0.39524689040E+03  0.49451235074E+03  0.10100000000E+03 0.  1.
    -200001    1    1    2    0    0  0.51729675266E+02 -0.32448310827E+02  0.50033767829E+03  0.79362185233E+03  0.61300000000E+03 0. -1.
<mgrwt>
<rscale>  0 0.17545728E+04</rscale>
<asrwt>0</asrwt>
<pdfrwt beam="1">  1        2 0.14552138E+00 0.17545728E+04</pdfrwt>
<pdfrwt beam="2">  1       -2 0.10793440E+00 0.17545728E+04</pdfrwt>
<totfact> 0.17880984E+01</totfact>
</mgrwt>
</event>
<event>
 8    1  0.7685004E-052  0.1326399E+04  0.7818608E-02  0.9008889E-01
          2   -1    0    0  501    0  0.00000000000E+00  0.00000000000E+00  0.28507695258E+04  0.28507695258E+04  0.25500000000E-02 0.  1.
         -2   -1    0    0    0  501 -0.00000000000E+00 -0.00000000000E+00 -0.15428582117E+03  0.15428582119E+03  0.25500000000E-02 0. -1.
     200001    2    1    2    0    0  0.96019537935E+02  0.50406227704E+02  0.82888458663E+03  0.10364375565E+04  0.61269291748E+03 0.  0.
    5000001    2    3    3    0    0  0.14342561531E+03  0.11281163777E+03  0.68488922216E+00  0.19842949559E+03  0.77951413746E+02 0.  0.
        -13    1    4    4    0    0 -0.74650136309E+01  0.93603904963E+01  0.50299562559E+01  0.12986722555E+02  0.10566000000E+00 0. -1.
     200003    1    4    4    0    0  0.15089062894E+03  0.10345124727E+03 -0.43450670338E+01  0.18544277304E+03  0.30000000000E+02 0. -1.
     200000    1    3    3    0    0 -0.47406077376E+02 -0.62405410061E+02  0.82819969741E+03  0.83800806092E+03  0.10100000000E+03 0.  1.
    -200001    1    1    2    0    0 -0.96019537935E+02 -0.50406227704E+02  0.18675991180E+04  0.19686177905E+04  0.61300000000E+03 0.  1.
<mgrwt>
<rscale>  0 0.13263986E+04</rscale>
<asrwt>0</asrwt>
<pdfrwt beam="1">  1        2 0.40725276E+00 0.13263986E+04</pdfrwt>
<pdfrwt beam="2">  1       -2 0.22040833E-01 0.13263986E+04</pdfrwt>
<totfact> 0.50605329E+01</totfact>
</mgrwt>
</event>
<event>
 8    1  0.7685004E-052  0.1273655E+04  0.7818608E-02  0.9050722E-01
         -2   -1    0    0    0  501 -0.00000000000E+00  0.00000000000E+00  0.27875933116E+03  0.27875933117E+03  0.25500000000E-02 0. -1.
          2   -1    0    0  501    0  0.00000000000E+00 -0.00000000000E+00 -0.14548364453E+04  0.14548364453E+04  0.25500000000E-02 0.  1.
     200001    2    1    2    0    0 -0.72423651673E+02  0.15432187807E+03 -0.55180945643E+03  0.84222630435E+03  0.61301798029E+03 0.  0.
    5000001    2    3    3    0    0  0.67818276478E+02  0.27753694081E+03 -0.56031947549E+02  0.30292482242E+03  0.83652834709E+02 0.  0.
        -13    1    4    4    0    0  0.65843542434E+02  0.24357235897E+03 -0.48843796490E+02  0.25699920964E+03  0.10566000000E+00 0. -1.
     200003    1    4    4    0    0  0.19747340440E+01  0.33964581844E+02 -0.71881510589E+01  0.45925612789E+02  0.30000000000E+02 0.  1.
     200000    1    3    3    0    0 -0.14024192815E+03 -0.12321506274E+03 -0.49577750888E+03  0.53930148192E+03  0.10100000000E+03 0.  1.
    -200001    1    1    2    0    0  0.72423651673E+02 -0.15432187807E+03 -0.62426765774E+03  0.89136947215E+03  0.61300000000E+03 0.  1.
<mgrwt>
<rscale>  0 0.12736550E+04</rscale>
<asrwt>0</asrwt>
<pdfrwt beam="1">  1        2 0.20783377E+00 0.12736550E+04</pdfrwt>
<pdfrwt beam="2">  1       -2 0.39822762E-01 0.12736550E+04</pdfrwt>
<totfact> 0.90513855E+01</totfact>
</mgrwt>
</event>
<event>
 8    1  0.7685004E-052  0.1669127E+04  0.7818608E-02  0.8779171E-01
          2   -1    0    0  501    0  0.00000000000E+00  0.00000000000E+00  0.78616869773E+03  0.78616869774E+03  0.25500000000E-02 0.  1.
         -2   -1    0    0    0  501 -0.00000000000E+00 -0.00000000000E+00 -0.88593709659E+03  0.88593709659E+03  0.25500000000E-02 0. -1.
     200001    2    1    2    0    0 -0.51652312922E+02 -0.17041320482E+03  0.48800010796E+03  0.80437920179E+03  0.61414426081E+03 0.  0.
    5000001    2    3    3    0    0  0.20549956910E+03 -0.56648068387E+01  0.23966704468E+00  0.22010155136E+03  0.78628700467E+02 0.  0.
        -13    1    4    4    0    0  0.92489438753E+02 -0.33117459210E+02  0.13919643749E+02  0.99221116863E+02  0.10566000000E+00 0. -1.
     200003    1    4    4    0    0  0.11301013034E+03  0.27452652372E+02 -0.13679976705E+02  0.12088043450E+03  0.30000000000E+02 0. -1.
     200000    1    3    3    0    0 -0.25715188202E+03 -0.16474839798E+03  0.48776044091E+03  0.58427765042E+03  0.10100000000E+03 0.  1.
    -200001    1    1    2    0    0  0.51652312922E+02  0.17041320482E+03 -0.58776850681E+03  0.86772659254E+03  0.61300000000E+03 0. -1.
<mgrwt>
<rscale>  0 0.16691267E+04</rscale>
<asrwt>0</asrwt>
<pdfrwt beam="1">  1        2 0.11230981E+00 0.16691267E+04</pdfrwt>
<pdfrwt beam="2">  1       -2 0.12656244E+00 0.16691267E+04</pdfrwt>
<totfact> 0.17275863E+01</totfact>
</mgrwt>
</event>
<event>
 8    1  0.7685004E-052  0.2310638E+04  0.7818608E-02  0.8473739E-01
         -2   -1    0    0    0  501 -0.00000000000E+00  0.00000000000E+00  0.10455536542E+04  0.10455536542E+04  0.25500000000E-02 0. -1.
          2   -1    0    0  501    0  0.00000000000E+00 -0.00000000000E+00 -0.12766073451E+04  0.12766073451E+04  0.25500000000E-02 0.  1.
     200001    2    1    2    0    0 -0.33681665939E+03  0.79848528729E+03  0.34316609609E+03  0.11152966408E+04  0.61245359943E+03 0.  0.
    5000001    2    3    3    0    0 -0.37513928601E+03  0.49564235012E+03  0.45276781920E+03  0.77559676444E+03  0.10080089165E+03 0.  0.
        -13    1    4    4    0    0 -0.94843895174E+02  0.19859855613E+03  0.16573712671E+03  0.27550963192E+03  0.10566000000E+00 0. -1.
     200003    1    4    4    0    0 -0.28029539084E+03  0.29704379399E+03  0.28703069250E+03  0.50008713252E+03  0.30000000000E+02 0. -1.
     200000    1    3    3    0    0  0.38322626618E+02  0.30284293717E+03 -0.10960172311E+03  0.33969987638E+03  0.10100000000E+03 0.  1.
    -200001    1    1    2    0    0  0.33681665939E+03 -0.79848528729E+03 -0.57421978691E+03  0.12068643585E+04  0.61300000000E+03 0.  1.
<mgrwt>
<rscale>  0 0.23106376E+04</rscale>
<asrwt>0</asrwt>
<pdfrwt beam="1">  1        2 0.18237248E+00 0.23106376E+04</pdfrwt>
<pdfrwt beam="2">  1       -2 0.14936481E+00 0.23106376E+04</pdfrwt>
<totfact> 0.53377253E+00</totfact>
</mgrwt>
</event>
<event>
 8    1  0.7685004E-052  0.1597104E+04  0.7818608E-02  0.8822329E-01
          2   -1    0    0  501    0  0.00000000000E+00  0.00000000000E+00  0.40657013632E+03  0.40657013633E+03  0.25500000000E-02 0.  1.
         -2   -1    0    0    0  501 -0.00000000000E+00 -0.00000000000E+00 -0.15684502915E+04  0.15684502915E+04  0.25500000000E-02 0. -1.
     200001    2    1    2    0    0  0.19879788688E+03 -0.19796498190E+03 -0.11093086433E+04  0.12988226034E+04  0.61454353385E+03 0.  0.
    5000001    2    3    3    0    0 -0.53614618118E+02 -0.21532330464E+03 -0.95853201836E+03  0.98745790614E+03  0.83969240685E+02 0.  0.
        -13    1    4    4    0    0 -0.54891371785E+02 -0.18753641915E+03 -0.82340375554E+03  0.84627225348E+03  0.10566000000E+00 0. -1.
     200003    1    4    4    0    0  0.12767536674E+01 -0.27786885485E+02 -0.13512826281E+03  0.14118565266E+03  0.30000000000E+02 0.  1.
     200000    1    3    3    0    0  0.25241250500E+03  0.17358322736E+02 -0.15077662497E+03  0.31136469724E+03  0.10100000000E+03 0.  1.
    -200001    1    1    2    0    0 -0.19879788688E+03  0.19796498190E+03 -0.52571511817E+02  0.67619782441E+03  0.61300000000E+03 0.  1.
<mgrwt>
<rscale>  0 0.15971037E+04</rscale>
<asrwt>0</asrwt>
<pdfrwt beam="1">  1        2 0.58081449E-01 0.15971037E+04</pdfrwt>
<pdfrwt beam="2">  1       -2 0.22406432E+00 0.15971037E+04</pdfrwt>
<totfact> 0.76000458E+00</totfact>
</mgrwt>
</event>
<event>
 8    1  0.7685004E-052  0.1901025E+04  0.7818608E-02  0.8654346E-01
          2   -1    0    0  501    0  0.00000000000E+00  0.00000000000E+00  0.20345980997E+04  0.20345980997E+04  0.25500000000E-02 0.  1.
         -2   -1    0    0    0  501 -0.00000000000E+00 -0.00000000000E+00 -0.44405522905E+03  0.44405522906E+03  0.25500000000E-02 0. -1.
     200001    2    1    2    0    0 -0.40157329401E+03  0.28258859126E+03  0.96503045339E+02  0.79074295733E+03  0.61224518327E+03 0.  0.
    5000001    2    3    3    0    0 -0.38880573031E+03  0.41302330045E+03  0.17007703569E+03  0.60966188129E+03  0.14492504543E+03 0.  0.
        -13    1    4    4    0    0 -0.27665306940E+03  0.35777210962E+03  0.99811095905E+02  0.46314152185E+03  0.10566000000E+00 0. -1.
     200003    1    4    4    0    0 -0.11215266091E+03  0.55251190832E+02  0.70265939787E+02  0.14652035944E+03  0.30000000000E+02 0. -1.
     200000    1    3    3    0    0 -0.12767563705E+02 -0.13043470919E+03 -0.73573990353E+02  0.18108107604E+03  0.10100000000E+03 0. -1.
    -200001    1    1    2    0    0  0.40157329401E+03 -0.28258859126E+03  0.14940398253E+04  0.16879103714E+04  0.61300000000E+03 0.  1.
<mgrwt>
<rscale>  0 0.19010249E+04</rscale>
<asrwt>0</asrwt>
<pdfrwt beam="1">  1        2 0.29065687E+00 0.19010249E+04</pdfrwt>
<pdfrwt beam="2">  1       -2 0.63436462E-01 0.19010249E+04</pdfrwt>
<totfact> 0.16640920E+01</totfact>
</mgrwt>
</event>
<event>
 8    1  0.7685004E-052  0.1273128E+04  0.7818608E-02  0.9051150E-01
          2   -1    0    0  501    0  0.00000000000E+00  0.00000000000E+00  0.21808801370E+04  0.21808801370E+04  0.25500000000E-02 0.  1.
         -2   -1    0    0    0  501 -0.00000000000E+00 -0.00000000000E+00 -0.18580296723E+03  0.18580296725E+03  0.25500000000E-02 0. -1.
     200001    2    1    2    0    0 -0.24561680129E+02  0.49223085316E+02  0.69427870432E+03  0.92763069520E+03  0.61273942190E+03 0.  0.
    5000001    2    3    3    0    0 -0.12981495910E+03 -0.63175619645E+02  0.72188496045E+03  0.74141891526E+03  0.87983119115E+02 0.  0.
        -13    1    4    4    0    0 -0.45937440769E+02  0.16829484232E+02  0.18668020919E+03  0.19298443375E+03  0.10566000000E+00 0. -1.
     200003    1    4    4    0    0 -0.83877518333E+02 -0.80005103877E+02  0.53520475127E+03  0.54843448151E+03  0.30000000000E+02 0. -1.
     200000    1    3    3    0    0  0.10525327897E+03  0.11239870496E+03 -0.27606256137E+02  0.18621177994E+03  0.10100000000E+03 0. -1.
    -200001    1    1    2    0    0  0.24561680129E+02 -0.49223085316E+02  0.13007984655E+04  0.14390524090E+04  0.61300000000E+03 0.  1.
<mgrwt>
<rscale>  0 0.12731284E+04</rscale>
<asrwt>0</asrwt>
<pdfrwt beam="1">  1        2 0.31155429E+00 0.12731284E+04</pdfrwt>
<pdfrwt beam="2">  1       -2 0.26543282E-01 0.12731284E+04</pdfrwt>
<totfact> 0.81840297E+01</totfact>
</mgrwt>
</event>
<event>
 8    1  0.7685004E-052  0.1642319E+04  0.7818608E-02  0.8794963E-01
          2   -1    0    0  501    0  0.00000000000E+00  0.00000000000E+00  0.39440434893E+04  0.39440434893E+04  0.25500000000E-02 0.  1.
         -2   -1    0    0    0  501 -0.00000000000E+00 -0.00000000000E+00 -0.17096743283E+03  0.17096743285E+03  0.25500000000E-02 0. -1.
     200001    2    1    2    0    0 -0.24259450840E+03  0.24059277305E+02  0.66213888702E+03  0.93489614174E+03  0.61332857899E+03 0.  0.
    5000001    2    3    3    0    0 -0.18521865749E+03 -0.27337537813E+03  0.34670431090E+03  0.48605392633E+03  0.83692841098E+02 0.  0.
        -13    1    4    4    0    0 -0.17771425371E+02 -0.16939387344E+01  0.33144797620E+02  0.37646802806E+02  0.10566000000E+00 0. -1.
     200003    1    4    4    0    0 -0.16744723211E+03 -0.27168143940E+03  0.31355951328E+03  0.44840712352E+03  0.30000000000E+02 0. -1.
     200000    1    3    3    0    0 -0.57375850911E+02  0.29743465544E+03  0.31543457612E+03  0.44884221541E+03  0.10100000000E+03 0.  1.
    -200001    1    1    2    0    0  0.24259450840E+03 -0.24059277305E+02  0.31109371695E+04  0.31801147804E+04  0.61300000000E+03 0.  1.
<mgrwt>
<rscale>  0 0.16423191E+04</rscale>
<asrwt>0</asrwt>
<pdfrwt beam="1">  1        2 0.56343473E+00 0.16423191E+04</pdfrwt>
<pdfrwt beam="2">  1       -2 0.24423921E-01 0.16423191E+04</pdfrwt>
<totfact> 0.90328900E+00</totfact>
</mgrwt>
</event>
<event>
 8    1  0.7685004E-052  0.1871759E+04  0.7818608E-02  0.8669043E-01
          2   -1    0    0  501    0  0.00000000000E+00  0.00000000000E+00  0.89198647526E+03  0.89198647526E+03  0.25500000000E-02 0.  1.
         -2   -1    0    0    0  501 -0.00000000000E+00 -0.00000000000E+00 -0.98193273022E+03  0.98193273023E+03  0.25500000000E-02 0. -1.
     200001    2    1    2    0    0  0.43424667158E+03 -0.55174916229E+03 -0.12913982295E+03  0.94101918639E+03  0.61306011567E+03 0.  0.
    5000001    2    3    3    0    0  0.15760627948E+03 -0.47035903907E+03 -0.30534383733E+03  0.58831093106E+03  0.82447120314E+02 0.  0.
        -13    1    4    4    0    0  0.96160967845E+02 -0.35879116653E+03 -0.21347092431E+03  0.42842488210E+03  0.10566000000E+00 0. -1.
     200003    1    4    4    0    0  0.61445311638E+02 -0.11156787254E+03 -0.91872913019E+02  0.15988604896E+03  0.30000000000E+02 0. -1.
     200000    1    3    3    0    0  0.27664039210E+03 -0.81390123214E+02  0.17620401437E+03  0.35270825533E+03  0.10100000000E+03 0.  1.
    -200001    1    1    2    0    0 -0.43424667158E+03  0.55174916229E+03  0.39193567989E+02  0.93290001910E+03  0.61300000000E+03 0.  1.
<mgrwt>
<rscale>  0 0.18717593E+04</rscale>
<asrwt>0</asrwt>
<pdfrwt beam="1">  1        2 0.12742664E+00 0.18717593E+04</pdfrwt>
<pdfrwt beam="2">  1       -2 0.14027610E+00 0.18717593E+04</pdfrwt>
<totfact> 0.11075487E+01</totfact>
</mgrwt>
</event>
<event>
 8    1  0.7685004E-052  0.1285591E+04  0.7818608E-02  0.9041071E-01
         -2   -1    0    0    0  501 -0.00000000000E+00  0.00000000000E+00  0.20329421144E+03  0.20329421145E+03  0.25500000000E-02 0. -1.
          2   -1    0    0  501    0  0.00000000000E+00 -0.00000000000E+00 -0.20324520818E+04  0.20324520818E+04  0.25500000000E-02 0.  1.
     200001    2    1    2    0    0  0.18328532797E+03 -0.37629659609E+02 -0.99721896716E+03  0.11855554337E+04  0.61325893004E+03 0.  0.
    5000001    2    3    3    0    0 -0.41118638013E+01 -0.12445702562E+03 -0.93445290436E+03  0.94723363949E+03  0.92427694270E+02 0.  0.
        -13    1    4    4    0    0 -0.26010408034E+02 -0.10782466427E+03 -0.58530236323E+03  0.59571936943E+03  0.10566000000E+00 0. -1.
     200003    1    4    4    0    0  0.21898544233E+02 -0.16632361352E+02 -0.34915054114E+03  0.35151427006E+03  0.30000000000E+02 0. -1.
     200000    1    3    3    0    0  0.18739719177E+03  0.86827366015E+02 -0.62766062800E+02  0.23832179425E+03  0.10100000000E+03 0. -1.
    -200001    1    1    2    0    0 -0.18328532797E+03  0.37629659609E+02 -0.83193890316E+03  0.10501908595E+04  0.61300000000E+03 0. -1.
<mgrwt>
<rscale>  0 0.12855905E+04</rscale>
<asrwt>0</asrwt>
<pdfrwt beam="1">  1        2 0.29035029E+00 0.12855905E+04</pdfrwt>
<pdfrwt beam="2">  1       -2 0.29042031E-01 0.12855905E+04</pdfrwt>
<totfact> 0.82572979E+01</totfact>
</mgrwt>
</event>
<event>
 8    1  0.7685004E-052  0.2089270E+04  0.7818608E-02  0.8565985E-01
         -2   -1    0    0    0  501 -0.00000000000E+00  0.00000000000E+00  0.33808005268E+03  0.33808005269E+03  0.25500000000E-02 0. -1.
          2   -1    0    0  501    0  0.00000000000E+00 -0.00000000000E+00 -0.32278214528E+04  0.32278214528E+04  0.25500000000E-02 0.  1.
     200001    2    1    2    0    0 -0.41397555943E+03 -0.55567422532E+03 -0.22745451235E+04  0.24548726727E+04  0.61048727410E+03 0.  0.
    5000001    2    3    3    0    0 -0.15959907337E+03 -0.34812386374E+02 -0.13189397825E+04  0.13326485330E+04  0.98316815656E+02 0.  0.
        -13    1    4    4    0    0 -0.75844513512E+02 -0.54321098442E+02 -0.49718224663E+03  0.50585904113E+03  0.10566000000E+00 0. -1.
     200003    1    4    4    0    0 -0.83754559860E+02  0.19508712068E+02 -0.82175753586E+03  0.82678949188E+03  0.30000000000E+02 0. -1.
     200000    1    3    3    0    0 -0.25437648606E+03 -0.52086183895E+03 -0.95560534104E+03  0.11222241397E+04  0.10100000000E+03 0.  1.
    -200001    1    1    2    0    0  0.41397555943E+03  0.55567422532E+03 -0.61519627660E+03  0.11110288328E+04  0.61300000000E+03 0. -1.
<mgrwt>
<rscale>  0 0.20892698E+04</rscale>
<asrwt>0</asrwt>
<pdfrwt beam="1">  1        2 0.46111733E+00 0.20892698E+04</pdfrwt>
<pdfrwt beam="2">  1       -2 0.48297152E-01 0.20892698E+04</pdfrwt>
<totfact> 0.65812562E+00</totfact>
</mgrwt>
</event>
<event>
 8    1  0.7685004E-052  0.1590905E+04  0.7818608E-02  0.8826155E-01
         -2   -1    0    0    0  501 -0.00000000000E+00  0.00000000000E+00  0.40098518599E+03  0.40098518600E+03  0.25500000000E-02 0. -1.
          2   -1    0    0  501    0  0.00000000000E+00 -0.00000000000E+00 -0.15779748282E+04  0.15779748282E+04  0.25500000000E-02 0.  1.
     200001    2    1    2    0    0  0.17904630182E+02  0.48484852276E+03 -0.40569424637E+03  0.88075044702E+03  0.61297215482E+03 0.  0.
    5000001    2    3    3    0    0 -0.18141075934E+03  0.50775264962E+03 -0.21538485576E+03  0.58635294757E+03  0.81832305574E+02 0.  0.
        -13    1    4    4    0    0 -0.17105949289E+01 -0.27886858505E+01 -0.16217719417E+01  0.36529730426E+01  0.10566000000E+00 0. -1.
     200003    1    4    4    0    0 -0.17970016441E+03  0.51054133547E+03 -0.21376308382E+03  0.58269997453E+03  0.30000000000E+02 0. -1.
     200000    1    3    3    0    0  0.19931538952E+03 -0.22904126856E+02 -0.19030939061E+03  0.29439749945E+03  0.10100000000E+03 0.  1.
    -200001    1    1    2    0    0 -0.17904630182E+02 -0.48484852276E+03 -0.77129539582E+03  0.10982095672E+04  0.61300000000E+03 0.  1.
<mgrwt>
<rscale>  0 0.15909048E+04</rscale>
<asrwt>0</asrwt>
<pdfrwt beam="1">  1        2 0.22542497E+00 0.15909048E+04</pdfrwt>
<pdfrwt beam="2">  1       -2 0.57283599E-01 0.15909048E+04</pdfrwt>
<totfact> 0.36485998E+01</totfact>
</mgrwt>
</event>
<event>
 8    1  0.7685004E-052  0.1568334E+04  0.7818608E-02  0.8840241E-01
          2   -1    0    0  501    0  0.00000000000E+00  0.00000000000E+00  0.59203083592E+03  0.59203083593E+03  0.25500000000E-02 0.  1.
         -2   -1    0    0    0  501 -0.00000000000E+00 -0.00000000000E+00 -0.10386590630E+04  0.10386590631E+04  0.25500000000E-02 0. -1.
     200001    2    1    2    0    0  0.47183087805E+03  0.10357856926E+03 -0.30307446172E+03  0.83713487187E+03  0.61285215742E+03 0.  0.
    5000001    2    3    3    0    0  0.35005132223E+03  0.32501219199E+03 -0.98569747766E+02  0.49671412114E+03  0.94021645568E+02 0.  0.
        -13    1    4    4    0    0  0.51160586399E+02  0.85355171306E+02 -0.43120690466E+02  0.10845421144E+03  0.10566000000E+00 0. -1.
     200003    1    4    4    0    0  0.29889073583E+03  0.23965702068E+03 -0.55449057300E+02  0.38825990970E+03  0.30000000000E+02 0. -1.
     200000    1    3    3    0    0  0.12177955583E+03 -0.22143362273E+03 -0.20450471395E+03  0.34042075072E+03  0.10100000000E+03 0. -1.
    -200001    1    1    2    0    0 -0.47183087805E+03 -0.10357856926E+03 -0.14355376541E+03  0.79355502711E+03  0.61300000000E+03 0.  1.
<mgrwt>
<rscale>  0 0.15683344E+04</rscale>
<asrwt>0</asrwt>
<pdfrwt beam="1">  1        2 0.84575834E-01 0.15683344E+04</pdfrwt>
<pdfrwt beam="2">  1       -2 0.14837987E+00 0.15683344E+04</pdfrwt>
<totfact> 0.16367694E+01</totfact>
</mgrwt>
</event>
<event>
 8    1  0.7685004E-052  0.1760953E+04  0.7818608E-02  0.8727344E-01
          2   -1    0    0  501    0  0.00000000000E+00  0.00000000000E+00  0.73359531391E+03  0.73359531391E+03  0.25500000000E-02 0.  1.
         -2   -1    0    0    0  501 -0.00000000000E+00 -0.00000000000E+00 -0.10567667899E+04  0.10567667899E+04  0.25500000000E-02 0. -1.
     200001    2    1    2    0    0 -0.16632933199E+03 -0.39892567105E+03 -0.63165783546E+03  0.97935040742E+03  0.61100610612E+03 0.  0.
    5000001    2    3    3    0    0 -0.24312691863E+02  0.12496661534E+03 -0.12835639822E+02  0.15002914059E+03  0.78334075856E+02 0.  0.
        -13    1    4    4    0    0 -0.22218489185E+02  0.91563012110E+02  0.17461809018E+02  0.95824696121E+02  0.10566000000E+00 0. -1.
     200003    1    4    4    0    0 -0.20942026779E+01  0.33403603228E+02 -0.30297448840E+02  0.54204444465E+02  0.30000000000E+02 0.  1.
     200000    1    3    3    0    0 -0.14201664012E+03 -0.52389228639E+03 -0.61882219564E+03  0.82932126684E+03  0.10100000000E+03 0.  1.
    -200001    1    1    2    0    0  0.16632933199E+03  0.39892567105E+03  0.30848635947E+03  0.81101169639E+03  0.61300000000E+03 0.  1.
<mgrwt>
<rscale>  0 0.17609533E+04</rscale>
<asrwt>0</asrwt>
<pdfrwt beam="1">  1        2 0.10479933E+00 0.17609533E+04</pdfrwt>
<pdfrwt beam="2">  1       -2 0.15096668E+00 0.17609533E+04</pdfrwt>
<totfact> 0.11870676E+01</totfact>
</mgrwt>
</event>
<event>
 8    1  0.7685004E-052  0.1320506E+04  0.7818608E-02  0.9013460E-01
          2   -1    0    0  501    0  0.00000000000E+00  0.00000000000E+00  0.19677152517E+04  0.19677152517E+04  0.25500000000E-02 0. -1.
         -2   -1    0    0    0  501 -0.00000000000E+00 -0.00000000000E+00 -0.22154318345E+03  0.22154318346E+03  0.25500000000E-02 0.  1.
     200001    2    1    2    0    0  0.14991932293E+03 -0.19654158349E+03  0.84942952424E+03  0.10752473994E+04  0.61116450808E+03 0.  0.
    5000001    2    3    3    0    0  0.74282435109E+02  0.11359370185E+03  0.62320294401E+03  0.67116287906E+03  0.20894088049E+03 0.  0.
        -13    1    4    4    0    0  0.57837185015E+01  0.13911725670E+03  0.22050749230E+03  0.26078847336E+03  0.10566000000E+00 0. -1.
     200003    1    4    4    0    0  0.68498716608E+02 -0.25523554849E+02  0.40269545171E+03  0.41037440570E+03  0.30000000000E+02 0. -1.
     200000    1    3    3    0    0  0.75636887822E+02 -0.31013528534E+03  0.22622658024E+03  0.40408452039E+03  0.10100000000E+03 0.  1.
    -200001    1    1    2    0    0 -0.14991932293E+03  0.19654158349E+03  0.89674254397E+03  0.11140110357E+04  0.61300000000E+03 0. -1.
<mgrwt>
<rscale>  0 0.13205058E+04</rscale>
<asrwt>0</asrwt>
<pdfrwt beam="1">  1        2 0.28110217E+00 0.13205058E+04</pdfrwt>
<pdfrwt beam="2">  1       -2 0.31649027E-01 0.13205058E+04</pdfrwt>
<totfact> 0.75728877E+01</totfact>
</mgrwt>
</event>
<event>
 8    1  0.7685004E-052  0.1315833E+04  0.7818608E-02  0.9017103E-01
          2   -1    0    0  501    0  0.00000000000E+00  0.00000000000E+00  0.31001269173E+04  0.31001269173E+04  0.25500000000E-02 0.  1.
         -2   -1    0    0    0  501 -0.00000000000E+00 -0.00000000000E+00 -0.13962470010E+03  0.13962470013E+03  0.25500000000E-02 0. -1.
     200001    2    1    2    0    0 -0.34764984032E+02 -0.17414562269E+03  0.10850997554E+04  0.12587320073E+04  0.61272300839E+03 0.  0.
    5000001    2    3    3    0    0  0.80768858426E+02 -0.14733783119E+03  0.17481574190E+02  0.17980832728E+03  0.61590454885E+02 0.  0.
        -13    1    4    4    0    0  0.33124185572E+02 -0.33845777845E+02 -0.13772361801E+02  0.49319747175E+02  0.10566000000E+00 0. -1.
     200003    1    4    4    0    0  0.47644672853E+02 -0.11349205334E+03  0.31253935991E+02  0.13048858011E+03  0.30000000000E+02 0. -1.
     200000    1    3    3    0    0 -0.11553384246E+03 -0.26807791501E+02  0.10676181812E+04  0.10789236800E+04  0.10100000000E+03 0.  1.
    -200001    1    1    2    0    0  0.34764984032E+02  0.17414562269E+03  0.18754024617E+04  0.19810196101E+04  0.61300000000E+03 0.  1.
<mgrwt>
<rscale>  0 0.13158333E+04</rscale>
<asrwt>0</asrwt>
<pdfrwt beam="1">  1        2 0.44287517E+00 0.13158333E+04</pdfrwt>
<pdfrwt beam="2">  1       -2 0.19946390E-01 0.13158333E+04</pdfrwt>
<totfact> 0.43983855E+01</totfact>
</mgrwt>
</event>
<event>
 8    1  0.7685004E-052  0.1680410E+04  0.7818608E-02  0.8772617E-01
          2   -1    0    0  501    0  0.00000000000E+00  0.00000000000E+00  0.92527645990E+03  0.92527645990E+03  0.25500000000E-02 0.  1.
         -2   -1    0    0    0  501 -0.00000000000E+00 -0.00000000000E+00 -0.76295507982E+03  0.76295507982E+03  0.25500000000E-02 0. -1.
     200001    2    1    2    0    0  0.36971430886E+03 -0.22953666292E+03  0.45838295558E+03  0.88027287352E+03  0.61269049943E+03 0.  0.
    5000001    2    3    3    0    0  0.32371177836E+03  0.57345318818E+02  0.14190463285E+02  0.33997159232E+03  0.85448892912E+02 0.  0.
        -13    1    4    4    0    0  0.11896924809E+03  0.48233130307E+02  0.31303962916E+02  0.13213654343E+03  0.10566000000E+00 0. -1.
     200003    1    4    4    0    0  0.20474253027E+03  0.91121885109E+01 -0.17113499632E+02  0.20783504890E+03  0.30000000000E+02 0. -1.
     200000    1    3    3    0    0  0.46002530502E+02 -0.28688198173E+03  0.44419249229E+03  0.54030128120E+03  0.10100000000E+03 0.  1.
    -200001    1    1    2    0    0 -0.36971430886E+03  0.22953666292E+03 -0.29606157550E+03  0.80795866620E+03  0.61300000000E+03 0. -1.
<mgrwt>
<rscale>  0 0.16804099E+04</rscale>
<asrwt>0</asrwt>
<pdfrwt beam="1">  1        2 0.13218235E+00 0.16804099E+04</pdfrwt>
<pdfrwt beam="2">  1       -2 0.10899358E+00 0.16804099E+04</pdfrwt>
<totfact> 0.20101991E+01</totfact>
</mgrwt>
</event>
<event>
 8    1  0.7685004E-052  0.2318483E+04  0.7818608E-02  0.8470669E-01
          2   -1    0    0  501    0  0.00000000000E+00  0.00000000000E+00  0.13815648325E+04  0.13815648325E+04  0.25500000000E-02 0.  1.
         -2   -1    0    0    0  501 -0.00000000000E+00 -0.00000000000E+00 -0.97269465240E+03  0.97269465240E+03  0.25500000000E-02 0. -1.
     200001    2    1    2    0    0  0.67783293015E+03 -0.69320974153E+03  0.32285515169E+02  0.11469557796E+04  0.61193788819E+03 0.  0.
    5000001    2    3    3    0    0  0.69641131727E+03 -0.68418999791E+03 -0.93712472450E+02  0.98415834376E+03  0.81737029752E+02 0.  0.
        -13    1    4    4    0    0  0.48981224367E+03 -0.44495832605E+03 -0.76955311848E+02  0.66620272977E+03  0.10566000000E+00 0. -1.
     200003    1    4    4    0    0  0.20659907360E+03 -0.23923167186E+03 -0.16757160602E+02  0.31795561399E+03  0.30000000000E+02 0. -1.
     200000    1    3    3    0    0 -0.18578387123E+02 -0.90197436178E+01  0.12599798762E+03  0.16279743587E+03  0.10100000000E+03 0.  1.
    -200001    1    1    2    0    0 -0.67783293015E+03  0.69320974153E+03  0.37658466496E+03  0.12073037053E+04  0.61300000000E+03 0.  1.
<mgrwt>
<rscale>  0 0.23184829E+04</rscale>
<asrwt>0</asrwt>
<pdfrwt beam="1">  1        2 0.19736641E+00 0.23184829E+04</pdfrwt>
<pdfrwt beam="2">  1       -2 0.13895638E+00 0.23184829E+04</pdfrwt>
<totfact> 0.56436461E+00</totfact>
</mgrwt>
</event>
<event>
 8    1  0.7685004E-052  0.1718847E+04  0.7818608E-02  0.8750687E-01
          2   -1    0    0  501    0  0.00000000000E+00  0.00000000000E+00  0.12927725652E+04  0.12927725652E+04  0.25500000000E-02 0.  1.
         -2   -1    0    0    0  501 -0.00000000000E+00 -0.00000000000E+00 -0.57133728544E+03  0.57133728544E+03  0.25500000000E-02 0. -1.
     200001    2    1    2    0    0 -0.42886764725E+03 -0.47119863096E+02  0.81658649842E+03  0.11084839546E+04  0.61300524285E+03 0.  0.
    5000001    2    3    3    0    0 -0.12841886935E+03 -0.25194899933E+03  0.61237580194E+03  0.67938320677E+03  0.81164737227E+02 0.  0.
        -13    1    4    4    0    0  0.33095768478E+01 -0.11110878407E+02  0.59218720739E+01  0.13018627070E+02  0.10566000000E+00 0. -1.
     200003    1    4    4    0    0 -0.13172844619E+03 -0.24083812093E+03  0.60645392987E+03  0.66636457970E+03  0.30000000000E+02 0. -1.
     200000    1    3    3    0    0 -0.30044877791E+03  0.20482913624E+03  0.20421069647E+03  0.42910074779E+03  0.10100000000E+03 0. -1.
    -200001    1    1    2    0    0  0.42886764725E+03  0.47119863096E+02 -0.95151218692E+02  0.75562589605E+03  0.61300000000E+03 0. -1.
<mgrwt>
<rscale>  0 0.17188475E+04</rscale>
<asrwt>0</asrwt>
<pdfrwt beam="1">  1        2 0.18468179E+00 0.17188475E+04</pdfrwt>
<pdfrwt beam="2">  1       -2 0.81619613E-01 0.17188475E+04</pdfrwt>
<totfact> 0.23853106E+01</totfact>
</mgrwt>
</event>
<event>
 8    1  0.7685004E-052  0.1705605E+04  0.7818608E-02  0.8758174E-01
         -2   -1    0    0    0  501 -0.00000000000E+00  0.00000000000E+00  0.59008905732E+03  0.59008905732E+03  0.25500000000E-02 0. -1.
          2   -1    0    0  501    0  0.00000000000E+00 -0.00000000000E+00 -0.12324788790E+04  0.12324788790E+04  0.25500000000E-02 0.  1.
     200001    2    1    2    0    0  0.78432552466E+02 -0.41428297292E+03 -0.76148836913E+03  0.10690856798E+04  0.62072345486E+03 0.  0.
    5000001    2    3    3    0    0 -0.13742002940E+03 -0.38286293194E+03 -0.71101326007E+03  0.82346749495E+03  0.84205522996E+02 0.  0.
        -13    1    4    4    0    0 -0.89619064171E+02 -0.20224944483E+03 -0.44581244318E+03  0.49767977683E+03  0.10566000000E+00 0. -1.
     200003    1    4    4    0    0 -0.47800965229E+02 -0.18061348711E+03 -0.26520081689E+03  0.32578771813E+03  0.30000000000E+02 0. -1.
     200000    1    3    3    0    0  0.21585258187E+03 -0.31420040974E+02 -0.50475109053E+02  0.24561818481E+03  0.10100000000E+03 0. -1.
    -200001    1    1    2    0    0 -0.78432552466E+02  0.41428297292E+03  0.11909854746E+03  0.75348225656E+03  0.61300000000E+03 0. -1.
<mgrwt>
<rscale>  0 0.17056052E+04</rscale>
<asrwt>0</asrwt>
<pdfrwt beam="1">  1        2 0.17606841E+00 0.17056052E+04</pdfrwt>
<pdfrwt beam="2">  1       -2 0.84298437E-01 0.17056052E+04</pdfrwt>
<totfact> 0.23987614E+01</totfact>
</mgrwt>
</event>
<event>
 8    1  0.7685004E-052  0.2156224E+04  0.7818608E-02  0.8536873E-01
         -2   -1    0    0    0  501 -0.00000000000E+00  0.00000000000E+00  0.13408897860E+04  0.13408897860E+04  0.25500000000E-02 0. -1.
          2   -1    0    0  501    0  0.00000000000E+00 -0.00000000000E+00 -0.86683157814E+03  0.86683157814E+03  0.25500000000E-02 0.  1.
     200001    2    1    2    0    0  0.29004520918E+03  0.83217807538E+03  0.13525384879E+03  0.10820198201E+04  0.61304707405E+03 0.  0.
    5000001    2    3    3    0    0  0.42671476629E+03  0.76010081192E+03  0.48158475088E+02  0.87791126109E+03  0.92575415618E+02 0.  0.
        -13    1    4    4    0    0  0.32781856131E+03  0.51598465467E+03  0.41854967866E+02  0.61274547937E+03  0.10566000000E+00 0. -1.
     200003    1    4    4    0    0  0.98896204974E+02  0.24411615725E+03  0.63035072223E+01  0.26516578171E+03  0.30000000000E+02 0. -1.
     200000    1    3    3    0    0 -0.13666955711E+03  0.72077263466E+02  0.87095373701E+02  0.20410855903E+03  0.10100000000E+03 0. -1.
    -200001    1    1    2    0    0 -0.29004520918E+03 -0.83217807538E+03  0.33880435908E+03  0.11257015440E+04  0.61300000000E+03 0. -1.
<mgrwt>
<rscale>  0 0.21562241E+04</rscale>
<asrwt>0</asrwt>
<pdfrwt beam="1">  1        2 0.12383308E+00 0.21562241E+04</pdfrwt>
<pdfrwt beam="2">  1       -2 0.19155568E+00 0.21562241E+04</pdfrwt>
<totfact> 0.47663405E+00</totfact>
</mgrwt>
</event>
<event>
 8    1  0.7685004E-052  0.2432374E+04  0.7818608E-02  0.8427482E-01
         -2   -1    0    0    0  501 -0.00000000000E+00  0.00000000000E+00  0.10188616936E+04  0.10188616937E+04  0.25500000000E-02 0. -1.
          2   -1    0    0  501    0  0.00000000000E+00 -0.00000000000E+00 -0.14517290472E+04  0.14517290472E+04  0.25500000000E-02 0.  1.
     200001    2    1    2    0    0 -0.13149651038E+03  0.10090255176E+04 -0.48056464987E+03  0.12816971966E+04  0.61349938364E+03 0.  0.
    5000001    2    3    3    0    0 -0.32310854256E+02  0.15955707320E+03 -0.23667887955E+03  0.38664652689E+03  0.25879759239E+03 0.  0.
        -13    1    4    4    0    0  0.25921077329E+02  0.12350192547E+03  0.12196982111E+02  0.12678093462E+03  0.10566000000E+00 0. -1.
     200003    1    4    4    0    0 -0.58231931585E+02  0.36055147721E+02 -0.24887586166E+03  0.25986559228E+03  0.30000000000E+02 0. -1.
     200000    1    3    3    0    0 -0.99185656124E+02  0.84946844442E+03 -0.24388577032E+03  0.89505066975E+03  0.10100000000E+03 0.  1.
    -200001    1    1    2    0    0  0.13149651038E+03 -0.10090255176E+04  0.47697296291E+02  0.11888935442E+04  0.61300000000E+03 0. -1.
<mgrwt>
<rscale>  0 0.24323742E+04</rscale>
<asrwt>0</asrwt>
<pdfrwt beam="1">  1        2 0.20738986E+00 0.24323742E+04</pdfrwt>
<pdfrwt beam="2">  1       -2 0.14555167E+00 0.24323742E+04</pdfrwt>
<totfact> 0.45407772E+00</totfact>
</mgrwt>
</event>
<event>
 8    1  0.7685004E-052  0.1652629E+04  0.7818608E-02  0.8788852E-01
         -2   -1    0    0    0  501 -0.00000000000E+00  0.00000000000E+00  0.48830914272E+03  0.48830914273E+03  0.25500000000E-02 0.  1.
          2   -1    0    0  501    0  0.00000000000E+00 -0.00000000000E+00 -0.13982863083E+04  0.13982863083E+04  0.25500000000E-02 0. -1.
     200001    2    1    2    0    0  0.15258348775E+03  0.53264078548E+03 -0.46822031061E+03  0.94962904499E+03  0.61284348469E+03 0.  0.
    5000001    2    3    3    0    0  0.26150234781E+03  0.28275489700E+03 -0.47738204198E+03  0.65878335968E+03  0.24034993510E+03 0.  0.
        -13    1    4    4    0    0  0.13138509643E+03  0.28978641874E+03 -0.36407015285E+03  0.48351349455E+03  0.10566000000E+00 0. -1.
     200003    1    4    4    0    0  0.13011725138E+03 -0.70315217469E+01 -0.11331188913E+03  0.17526986513E+03  0.30000000000E+02 0. -1.
     200000    1    3    3    0    0 -0.10891886006E+03  0.24988588849E+03  0.91617313700E+01  0.29084568531E+03  0.10100000000E+03 0.  1.
    -200001    1    1    2    0    0 -0.15258348775E+03 -0.53264078548E+03 -0.44175685492E+03  0.93696640599E+03  0.61300000000E+03 0.  1.
<mgrwt>
<rscale>  0 0.16526294E+04</rscale>
<asrwt>0</asrwt>
<pdfrwt beam="1">  1        2 0.19975518E+00 0.16526294E+04</pdfrwt>
<pdfrwt beam="2">  1       -2 0.69758450E-01 0.16526294E+04</pdfrwt>
<totfact> 0.29731140E+01</totfact>
</mgrwt>
</event>
<event>
 8    1  0.7685004E-052  0.1227466E+04  0.7818608E-02  0.9089150E-01
         -2   -1    0    0    0  501 -0.00000000000E+00  0.00000000000E+00  0.15353333076E+03  0.15353333079E+03  0.25500000000E-02 0. -1.
          2   -1    0    0  501    0  0.00000000000E+00 -0.00000000000E+00 -0.24533313734E+04  0.24533313735E+04  0.25500000000E-02 0.  1.
     200001    2    1    2    0    0 -0.30856851287E+02  0.79830390554E+01 -0.11639903188E+04  0.13158015532E+04  0.61273517208E+03 0.  0.
    5000001    2    3    3    0    0  0.23983957895E+03 -0.13868432216E+03 -0.47244006691E+03  0.55210618004E+03  0.69751361055E+02 0.  0.
        -13    1    4    4    0    0  0.83177162830E+02 -0.80863697506E+02 -0.18837051239E+03  0.22122576498E+03  0.10566000000E+00 0. -1.
     200003    1    4    4    0    0  0.15666241612E+03 -0.57820624650E+02 -0.28406955452E+03  0.33088041506E+03  0.30000000000E+02 0. -1.
     200000    1    3    3    0    0 -0.27069643024E+03  0.14666736121E+03 -0.69155025185E+03  0.76369537318E+03  0.10100000000E+03 0. -1.
    -200001    1    1    2    0    0  0.30856851287E+02 -0.79830390554E+01 -0.11358077239E+04  0.12910631510E+04  0.61300000000E+03 0. -1.
<mgrwt>
<rscale>  0 0.12274659E+04</rscale>
<asrwt>0</asrwt>
<pdfrwt beam="1">  1        2 0.35047589E+00 0.12274659E+04</pdfrwt>
<pdfrwt beam="2">  1       -2 0.21933335E-01 0.12274659E+04</pdfrwt>
<totfact> 0.83743827E+01</totfact>
</mgrwt>
</event>
<event>
 8    1  0.7685004E-052  0.1666279E+04  0.7818608E-02  0.8780834E-01
          2   -1    0    0  501    0  0.00000000000E+00  0.00000000000E+00  0.59901908416E+03  0.59901908416E+03  0.25500000000E-02 0.  1.
         -2   -1    0    0    0  501 -0.00000000000E+00 -0.00000000000E+00 -0.11587630746E+04  0.11587630746E+04  0.25500000000E-02 0. -1.
     200001    2    1    2    0    0 -0.39218182319E+03  0.26055621996E+03  0.48498577268E+02  0.77420493895E+03  0.61265410249E+03 0.  0.
    5000001    2    3    3    0    0 -0.29695655627E+03 -0.49370811801E+02 -0.18501444841E+03  0.36207395293E+03  0.79034978959E+02 0.  0.
        -13    1    4    4    0    0 -0.99861572093E+02 -0.45450015323E+02 -0.45863636134E+02  0.11891813048E+03  0.10566000000E+00 0. -1.
     200003    1    4    4    0    0 -0.19709498418E+03 -0.39207964785E+01 -0.13915081228E+03  0.24315582245E+03  0.30000000000E+02 0. -1.
     200000    1    3    3    0    0 -0.95225266919E+02  0.30992703176E+03  0.23351302568E+03  0.41213098602E+03  0.10100000000E+03 0.  1.
    -200001    1    1    2    0    0  0.39218182319E+03 -0.26055621996E+03 -0.60824256775E+03  0.98357721986E+03  0.61300000000E+03 0. -1.
<mgrwt>
<rscale>  0 0.16662787E+04</rscale>
<asrwt>0</asrwt>
<pdfrwt beam="1">  1        2 0.85574155E-01 0.16662787E+04</pdfrwt>
<pdfrwt beam="2">  1       -2 0.16553758E+00 0.16662787E+04</pdfrwt>
<totfact> 0.11922514E+01</totfact>
</mgrwt>
</event>
<event>
 8    1  0.7685004E-052  0.1420299E+04  0.7818608E-02  0.8939255E-01
          2   -1    0    0  501    0  0.00000000000E+00  0.00000000000E+00  0.10288196117E+04  0.10288196117E+04  0.25500000000E-02 0.  1.
         -2   -1    0    0    0  501 -0.00000000000E+00 -0.00000000000E+00 -0.49018540563E+03  0.49018540564E+03  0.25500000000E-02 0. -1.
     200001    2    1    2    0    0  0.65519265476E+02  0.59260719478E+02 -0.10282088222E+03  0.62735585018E+03  0.61253458834E+03 0.  0.
    5000001    2    3    3    0    0  0.19640720135E+03 -0.14951512844E+03 -0.21523045898E+03  0.33829544234E+03  0.84788521999E+02 0.  0.
        -13    1    4    4    0    0  0.36706242169E+02 -0.54026889719E+01 -0.76990797899E+01  0.37892271718E+02  0.10566000000E+00 0. -1.
     200003    1    4    4    0    0  0.15970095918E+03 -0.14411243947E+03 -0.20753137919E+03  0.30040317063E+03  0.30000000000E+02 0. -1.
     200000    1    3    3    0    0 -0.13088793587E+03  0.20877584792E+03  0.11240957676E+03  0.28906040784E+03  0.10100000000E+03 0. -1.
    -200001    1    1    2    0    0 -0.65519265476E+02 -0.59260719478E+02  0.64145508832E+03  0.89164916719E+03  0.61300000000E+03 0.  1.
<mgrwt>
<rscale>  0 0.14202991E+04</rscale>
<asrwt>0</asrwt>
<pdfrwt beam="1">  1        2 0.14697423E+00 0.14202991E+04</pdfrwt>
<pdfrwt beam="2">  1       -2 0.70026486E-01 0.14202991E+04</pdfrwt>
<totfact> 0.48749852E+01</totfact>
</mgrwt>
</event>
<event>
 8    1  0.7685004E-052  0.1424522E+04  0.7818608E-02  0.8936257E-01
         -2   -1    0    0    0  501 -0.00000000000E+00  0.00000000000E+00  0.15257787477E+03  0.15257787480E+03  0.25500000000E-02 0. -1.
          2   -1    0    0  501    0  0.00000000000E+00 -0.00000000000E+00 -0.33249632315E+04  0.33249632315E+04  0.25500000000E-02 0.  1.
     200001    2    1    2    0    0  0.48708497862E+02 -0.16738197383E+03 -0.23618864725E+04  0.24464898543E+04  0.61352722454E+03 0.  0.
    5000001    2    3    3    0    0  0.20280305285E+03  0.79798887581E+02 -0.73122155818E+03  0.78693793498E+03  0.19258609931E+03 0.  0.
        -13    1    4    4    0    0  0.17119299688E+03  0.76041297953E+02 -0.30120490265E+03  0.35470230577E+03  0.10566000000E+00 0. -1.
     200003    1    4    4    0    0  0.31610055973E+02  0.37575896283E+01 -0.43001665553E+03  0.43223562920E+03  0.30000000000E+02 0. -1.
     200000    1    3    3    0    0 -0.15409455499E+03 -0.24718086141E+03 -0.16306649143E+04  0.16595519193E+04  0.10100000000E+03 0. -1.
    -200001    1    1    2    0    0 -0.48708497862E+02  0.16738197383E+03 -0.81049888423E+03  0.10310512520E+04  0.61300000000E+03 0. -1.
<mgrwt>
<rscale>  0 0.14245221E+04</rscale>
<asrwt>0</asrwt>
<pdfrwt beam="1">  1        2 0.47499470E+00 0.14245221E+04</pdfrwt>
<pdfrwt beam="2">  1       -2 0.21796841E-01 0.14245221E+04</pdfrwt>
<totfact> 0.27639294E+01</totfact>
</mgrwt>
</event>
<event>
 8    1  0.7685004E-052  0.1258972E+04  0.7818608E-02  0.9062749E-01
         -2   -1    0    0    0  501 -0.00000000000E+00  0.00000000000E+00  0.22401031500E+03  0.22401031502E+03  0.25500000000E-02 0. -1.
          2   -1    0    0  501    0  0.00000000000E+00 -0.00000000000E+00 -0.17689023858E+04  0.17689023858E+04  0.25500000000E-02 0.  1.
     200001    2    1    2    0    0  0.71073355446E+02  0.28206623668E+02 -0.96292476966E+03  0.11442066415E+04  0.61330065306E+03 0.  0.
    5000001    2    3    3    0    0  0.47758853173E+02  0.29777373238E+03 -0.62991878257E+03  0.70340739069E+03  0.83870023751E+02 0.  0.
        -13    1    4    4    0    0  0.60847543814E+02  0.15469981766E+03 -0.33832411647E+03  0.37695845411E+03  0.10566000000E+00 0. -1.
     200003    1    4    4    0    0 -0.13088690641E+02  0.14307391472E+03 -0.29159466610E+03  0.32644893658E+03  0.30000000000E+02 0. -1.
     200000    1    3    3    0    0  0.23314502273E+02 -0.26956710871E+03 -0.33300598709E+03  0.44079925086E+03  0.10100000000E+03 0. -1.
    -200001    1    1    2    0    0 -0.71073355446E+02 -0.28206623668E+02 -0.58196730114E+03  0.84870605929E+03  0.61300000000E+03 0. -1.
<mgrwt>
<rscale>  0 0.12589716E+04</rscale>
<asrwt>0</asrwt>
<pdfrwt beam="1">  1        2 0.25270033E+00 0.12589716E+04</pdfrwt>
<pdfrwt beam="2">  1       -2 0.32001474E-01 0.12589716E+04</pdfrwt>
<totfact> 0.94281009E+01</totfact>
</mgrwt>
</event>
<event>
 8    1  0.7685004E-052  0.1861782E+04  0.7818608E-02  0.8674117E-01
         -2   -1    0    0    0  501 -0.00000000000E+00  0.00000000000E+00  0.34112913564E+03  0.34112913565E+03  0.25500000000E-02 0. -1.
          2   -1    0    0  501    0  0.00000000000E+00 -0.00000000000E+00 -0.25402650672E+04  0.25402650672E+04  0.25500000000E-02 0.  1.
     200001    2    1    2    0    0 -0.67595008717E+03 -0.18165128283E+03 -0.11457495045E+04  0.14759413671E+04  0.61298881151E+03 0.  0.
    5000001    2    3    3    0    0 -0.69160688507E+03 -0.29485126854E+03 -0.81065965968E+03  0.11077762191E+04  0.68860102282E+02 0.  0.
        -13    1    4    4    0    0 -0.12187573213E+03 -0.37826676193E+02 -0.16579212262E+03  0.20921661167E+03  0.10566000000E+00 0. -1.
     200003    1    4    4    0    0 -0.56973115294E+03 -0.25702459235E+03 -0.64486753706E+03  0.89855960740E+03  0.30000000000E+02 0. -1.
     200000    1    3    3    0    0  0.15656797902E+02  0.11319998571E+03 -0.33508984483E+03  0.36816514799E+03  0.10100000000E+03 0.  1.
    -200001    1    1    2    0    0  0.67595008717E+03  0.18165128283E+03 -0.10533864270E+04  0.14054528358E+04  0.61300000000E+03 0. -1.
<mgrwt>
<rscale>  0 0.18617824E+04</rscale>
<asrwt>0</asrwt>
<pdfrwt beam="1">  1        2 0.36289500E+00 0.18617824E+04</pdfrwt>
<pdfrwt beam="2">  1       -2 0.48732735E-01 0.18617824E+04</pdfrwt>
<totfact> 0.15775781E+01</totfact>
</mgrwt>
</event>
<event>
 8    1  0.7685004E-052  0.1338379E+04  0.7818608E-02  0.8999672E-01
         -2   -1    0    0    0  501 -0.00000000000E+00  0.00000000000E+00  0.34364760996E+03  0.34364760997E+03  0.25500000000E-02 0. -1.
          2   -1    0    0  501    0  0.00000000000E+00 -0.00000000000E+00 -0.13031206108E+04  0.13031206108E+04  0.25500000000E-02 0.  1.
     200001    2    1    2    0    0  0.20345155955E+03  0.34210670187E+01 -0.69792196637E+03  0.94993094823E+03  0.61144868509E+03 0.  0.
    5000001    2    3    3    0    0  0.21795559470E+03 -0.56264837723E+02  0.35670039541E+00  0.24171708879E+03  0.88071848792E+02 0.  0.
        -13    1    4    4    0    0  0.11376465794E+03 -0.68155230987E+02 -0.15275848538E+01  0.13262683585E+03  0.10566000000E+00 0. -1.
     200003    1    4    4    0    0  0.10419093676E+03  0.11890393264E+02  0.18842852492E+01  0.10909025294E+03  0.30000000000E+02 0. -1.
     200000    1    3    3    0    0 -0.14504035154E+02  0.59685904742E+02 -0.69827866676E+03  0.70821385945E+03  0.10100000000E+03 0.  1.
    -200001    1    1    2    0    0 -0.20345155955E+03 -0.34210670187E+01 -0.26155103450E+03  0.69683727256E+03  0.61300000000E+03 0. -1.
<mgrwt>
<rscale>  0 0.13383785E+04</rscale>
<asrwt>0</asrwt>
<pdfrwt beam="1">  1        2 0.18616009E+00 0.13383785E+04</pdfrwt>
<pdfrwt beam="2">  1       -2 0.49092516E-01 0.13383785E+04</pdfrwt>
<totfact> 0.71840746E+01</totfact>
</mgrwt>
</event>
<event>
 8    1  0.7685004E-052  0.1728861E+04  0.7818608E-02  0.8745073E-01
         -2   -1    0    0    0  501 -0.00000000000E+00  0.00000000000E+00  0.41823540232E+03  0.41823540233E+03  0.25500000000E-02 0. -1.
          2   -1    0    0  501    0  0.00000000000E+00 -0.00000000000E+00 -0.17866503891E+04  0.17866503891E+04  0.25500000000E-02 0.  1.
     200001    2    1    2    0    0 -0.25567061865E+03  0.10977976426E+03  0.76407984211E+01  0.67298579931E+03  0.61272542170E+03 0.  0.
    5000001    2    3    3    0    0 -0.24672843715E+03  0.28008236317E+03  0.14408375951E+03  0.43236032387E+03  0.16387271905E+03 0.  0.
        -13    1    4    4    0    0  0.22735352750E+02  0.37411222646E+02  0.15439802037E+02  0.46420841176E+02  0.10566000000E+00 0. -1.
     200003    1    4    4    0    0 -0.26946378990E+03  0.24267114052E+03  0.12864395747E+03  0.38593948269E+03  0.30000000000E+02 0. -1.
     200000    1    3    3    0    0 -0.89421815005E+01 -0.17030259890E+03 -0.13644296109E+03  0.24062547544E+03  0.10100000000E+03 0.  1.
    -200001    1    1    2    0    0  0.25567061865E+03 -0.10977976426E+03 -0.13760557852E+04  0.15318999921E+04  0.61300000000E+03 0.  1.
<mgrwt>
<rscale>  0 0.17288614E+04</rscale>
<asrwt>0</asrwt>
<pdfrwt beam="1">  1        2 0.25523577E+00 0.17288614E+04</pdfrwt>
<pdfrwt beam="2">  1       -2 0.59747916E-01 0.17288614E+04</pdfrwt>
<totfact> 0.25717433E+01</totfact>
</mgrwt>
</event>
<event>
 8    1  0.7685004E-052  0.1351339E+04  0.7818608E-02  0.8989815E-01
          2   -1    0    0  501    0  0.00000000000E+00  0.00000000000E+00  0.27985676473E+04  0.27985676473E+04  0.25500000000E-02 0.  1.
         -2   -1    0    0    0  501 -0.00000000000E+00 -0.00000000000E+00 -0.16312973509E+03  0.16312973511E+03  0.25500000000E-02 0. -1.
     200001    2    1    2    0    0  0.14594541886E+03 -0.23760689150E+03  0.11902317320E+04  0.13672862047E+04  0.61242378269E+03 0.  0.
    5000001    2    3    3    0    0  0.32307035190E+03  0.30859491701E+02  0.51343517394E+03  0.61117640991E+03  0.67780275079E+02 0.  0.
        -13    1    4    4    0    0  0.15435795582E+03  0.31569742231E+02  0.28448970564E+03  0.32520367607E+03  0.10566000000E+00 0. -1.
     200003    1    4    4    0    0  0.16871239608E+03 -0.71025052959E+00  0.22894546830E+03  0.28597273384E+03  0.30000000000E+02 0. -1.
     200000    1    3    3    0    0 -0.17712493304E+03 -0.26846638320E+03  0.67679655808E+03  0.75610979484E+03  0.10100000000E+03 0.  1.
    -200001    1    1    2    0    0 -0.14594541886E+03  0.23760689150E+03  0.14452061802E+04  0.15944111776E+04  0.61300000000E+03 0.  1.
<mgrwt>
<rscale>  0 0.13513395E+04</rscale>
<asrwt>0</asrwt>
<pdfrwt beam="1">  1        2 0.39979537E+00 0.13513395E+04</pdfrwt>
<pdfrwt beam="2">  1       -2 0.23304248E-01 0.13513395E+04</pdfrwt>
<totfact> 0.48787168E+01</totfact>
</mgrwt>
</event>
<event>
 8    1  0.7685004E-052  0.1351047E+04  0.7818608E-02  0.8990036E-01
         -2   -1    0    0    0  501 -0.00000000000E+00  0.00000000000E+00  0.24688044695E+03  0.24688044696E+03  0.25500000000E-02 0. -1.
          2   -1    0    0  501    0  0.00000000000E+00 -0.00000000000E+00 -0.18483919956E+04  0.18483919956E+04  0.25500000000E-02 0.  1.
     200001    2    1    2    0    0  0.17068154067E+03  0.22116813781E+03 -0.87426950436E+03  0.11039614296E+04  0.61346241792E+03 0.  0.
    5000001    2    3    3    0    0  0.37833876758E+03  0.21049362688E+03 -0.51986908372E+03  0.68083482059E+03  0.76317748310E+02 0.  0.
        -13    1    4    4    0    0  0.20726338133E+03  0.85664394230E+02 -0.29383922366E+03  0.36964577396E+03  0.10566000000E+00 0. -1.
     200003    1    4    4    0    0  0.17107538625E+03  0.12482923265E+03 -0.22602986005E+03  0.31118904662E+03  0.30000000000E+02 0.  1.
     200000    1    3    3    0    0 -0.20765722691E+03  0.10674510935E+02 -0.35440042064E+03  0.42312660898E+03  0.10100000000E+03 0. -1.
    -200001    1    1    2    0    0 -0.17068154067E+03 -0.22116813781E+03 -0.72724204428E+03  0.99131101299E+03  0.61300000000E+03 0. -1.
<mgrwt>
<rscale>  0 0.13510468E+04</rscale>
<asrwt>0</asrwt>
<pdfrwt beam="1">  1        2 0.26405599E+00 0.13510468E+04</pdfrwt>
<pdfrwt beam="2">  1       -2 0.35268636E-01 0.13510468E+04</pdfrwt>
<totfact> 0.70870218E+01</totfact>
</mgrwt>
</event>
<event>
 8    1  0.7685004E-052  0.1463938E+04  0.7818608E-02  0.8908794E-01
         -2   -1    0    0    0  501 -0.00000000000E+00  0.00000000000E+00  0.70494647941E+03  0.70494647942E+03  0.25500000000E-02 0. -1.
          2   -1    0    0  501    0  0.00000000000E+00 -0.00000000000E+00 -0.76002739366E+03  0.76002739367E+03  0.25500000000E-02 0.  1.
     200001    2    1    2    0    0  0.91078188852E+02  0.30038184374E+03  0.22025976678E+03  0.72328257668E+03  0.61326897226E+03 0.  0.
    5000001    2    3    3    0    0 -0.21490070359E+03  0.27194511832E+03  0.92992677172E+02  0.37567699262E+03  0.11112652698E+03 0.  0.
        -13    1    4    4    0    0 -0.69441107295E+02  0.16473151324E+03  0.65797662972E+02  0.19049378586E+03  0.10566000000E+00 0. -1.
     200003    1    4    4    0    0 -0.14545959629E+03  0.10721360508E+03  0.27195014200E+02  0.18518320676E+03  0.30000000000E+02 0. -1.
     200000    1    3    3    0    0  0.30597889244E+03  0.28436725425E+02  0.12726708961E+03  0.34760558406E+03  0.10100000000E+03 0.  1.
    -200001    1    1    2    0    0 -0.91078188852E+02 -0.30038184374E+03 -0.27534068103E+03  0.74169129641E+03  0.61300000000E+03 0.  1.
<mgrwt>
<rscale>  0 0.14639380E+04</rscale>
<asrwt>0</asrwt>
<pdfrwt beam="1">  1        2 0.10857534E+00 0.14639380E+04</pdfrwt>
<pdfrwt beam="2">  1       -2 0.10070664E+00 0.14639380E+04</pdfrwt>
<totfact> 0.32010769E+01</totfact>
</mgrwt>
</event>
<event>
 8    1  0.7685004E-052  0.2066087E+04  0.7818608E-02  0.8576331E-01
         -2   -1    0    0    0  501 -0.00000000000E+00  0.00000000000E+00  0.59467733390E+03  0.59467733391E+03  0.25500000000E-02 0. -1.
          2   -1    0    0  501    0  0.00000000000E+00 -0.00000000000E+00 -0.17945508072E+04  0.17945508072E+04  0.25500000000E-02 0.  1.
     200001    2    1    2    0    0  0.77583293798E+03  0.29652149473E+03 -0.64894740248E+03  0.12191297350E+04  0.61261964964E+03 0.  0.
    5000001    2    3    3    0    0  0.82956609472E+03  0.30680256299E+03 -0.46086312088E+03  0.99874450529E+03  0.52802012224E+02 0.  0.
        -13    1    4    4    0    0  0.34943666031E+03  0.11440204982E+03 -0.20312959951E+03  0.42006601140E+03  0.10566000000E+00 0. -1.
     200003    1    4    4    0    0  0.48012943441E+03  0.19240051317E+03 -0.25773352137E+03  0.57867849389E+03  0.30000000000E+02 0. -1.
     200000    1    3    3    0    0 -0.53733156740E+02 -0.10281068259E+02 -0.18808428160E+03  0.22038522973E+03  0.10100000000E+03 0.  1.
    -200001    1    1    2    0    0 -0.77583293798E+03 -0.29652149473E+03 -0.55092607086E+03  0.11700984061E+04  0.61300000000E+03 0.  1.
<mgrwt>
<rscale>  0 0.20660868E+04</rscale>
<asrwt>0</asrwt>
<pdfrwt beam="1">  1        2 0.25636440E+00 0.20660868E+04</pdfrwt>
<pdfrwt beam="2">  1       -2 0.84953906E-01 0.20660868E+04</pdfrwt>
<totfact> 0.11467859E+01</totfact>
</mgrwt>
</event>
<event>
 8    1  0.7685004E-052  0.1384455E+04  0.7818608E-02  0.8965148E-01
         -2   -1    0    0    0  501 -0.00000000000E+00  0.00000000000E+00  0.37389794264E+03  0.37389794265E+03  0.25500000000E-02 0. -1.
          2   -1    0    0  501    0  0.00000000000E+00 -0.00000000000E+00 -0.12815775625E+04  0.12815775625E+04  0.25500000000E-02 0.  1.
     200001    2    1    2    0    0 -0.11658329074E+03  0.15607278039E+03 -0.14656389857E+03  0.65897336383E+03  0.61222099066E+03 0.  0.
    5000001    2    3    3    0    0 -0.85842985261E+02  0.10416536254E+03 -0.37092367265E+03  0.40564027353E+03  0.93489142190E+02 0.  0.
        -13    1    4    4    0    0  0.17456391264E+02  0.57250702340E+01 -0.42937651348E+02  0.46702838163E+02  0.10566000000E+00 0. -1.
     200003    1    4    4    0    0 -0.10329937653E+03  0.98440292303E+02 -0.32798602131E+03  0.35893743537E+03  0.30000000000E+02 0. -1.
     200000    1    3    3    0    0 -0.30740305481E+02  0.51907417855E+02  0.22435977408E+03  0.25333309029E+03  0.10100000000E+03 0. -1.
    -200001    1    1    2    0    0  0.11658329074E+03 -0.15607278039E+03 -0.76111572126E+03  0.99650214129E+03  0.61300000000E+03 0.  1.
<mgrwt>
<rscale>  0 0.13844554E+04</rscale>
<asrwt>0</asrwt>
<pdfrwt beam="1">  1        2 0.18308251E+00 0.13844554E+04</pdfrwt>
<pdfrwt beam="2">  1       -2 0.53413992E-01 0.13844554E+04</pdfrwt>
<totfact> 0.61929606E+01</totfact>
</mgrwt>
</event>
<event>
 8    1  0.7685004E-052  0.1347967E+04  0.7818608E-02  0.8992369E-01
          2   -1    0    0  501    0  0.00000000000E+00  0.00000000000E+00  0.53305565434E+03  0.53305565434E+03  0.25500000000E-02 0.  1.
         -2   -1    0    0    0  501 -0.00000000000E+00 -0.00000000000E+00 -0.85216915409E+03  0.85216915410E+03  0.25500000000E-02 0. -1.
     200001    2    1    2    0    0 -0.17318112704E+03  0.18404323290E+03 -0.26423209185E+03  0.71990940709E+03  0.62015106363E+03 0.  0.
    5000001    2    3    3    0    0 -0.32990524129E+03  0.21406660162E+03 -0.13029681098E+02  0.40563643367E+03  0.98535098181E+02 0.  0.
        -13    1    4    4    0    0 -0.76838612147E+02  0.49774215097E+02 -0.42625528900E+02  0.10098807694E+03  0.10566000000E+00 0. -1.
     200003    1    4    4    0    0 -0.25306662914E+03  0.16429238653E+03  0.29595847802E+02  0.30464835674E+03  0.30000000000E+02 0. -1.
     200000    1    3    3    0    0  0.15672411424E+03 -0.30023368725E+02 -0.25120241075E+03  0.31427297342E+03  0.10100000000E+03 0.  1.
    -200001    1    1    2    0    0  0.17318112704E+03 -0.18404323290E+03 -0.54881407907E+02  0.66531540135E+03  0.61300000000E+03 0.  1.
<mgrwt>
<rscale>  0 0.13479667E+04</rscale>
<asrwt>0</asrwt>
<pdfrwt beam="1">  1        2 0.76150808E-01 0.13479667E+04</pdfrwt>
<pdfrwt beam="2">  1       -2 0.12173845E+00 0.13479667E+04</pdfrwt>
<totfact> 0.31246536E+01</totfact>
</mgrwt>
</event>
<event>
 8    1  0.7685004E-052  0.1427909E+04  0.7818608E-02  0.8933861E-01
          2   -1    0    0  501    0  0.00000000000E+00  0.00000000000E+00  0.50843013408E+03  0.50843013409E+03  0.25500000000E-02 0.  1.
         -2   -1    0    0    0  501 -0.00000000000E+00 -0.00000000000E+00 -0.10025583288E+04  0.10025583288E+04  0.25500000000E-02 0. -1.
     200001    2    1    2    0    0 -0.20831532702E+03 -0.23482922959E+03 -0.44487170060E+03  0.82052829407E+03  0.61385324698E+03 0.  0.
    5000001    2    3    3    0    0 -0.24824538127E+02 -0.61113577165E+01 -0.49919321264E+03  0.50567505652E+03  0.76549283812E+02 0.  0.
        -13    1    4    4    0    0  0.14603931186E+02 -0.21208024380E+02 -0.10587418379E+03  0.10896058490E+03  0.10566000000E+00 0. -1.
     200003    1    4    4    0    0 -0.39428469313E+02  0.15096666663E+02 -0.39331902885E+03  0.39671447162E+03  0.30000000000E+02 0. -1.
     200000    1    3    3    0    0 -0.18349078890E+03 -0.22871787188E+03  0.54321512039E+02  0.31485323755E+03  0.10100000000E+03 0.  1.
    -200001    1    1    2    0    0  0.20831532702E+03  0.23482922959E+03 -0.49256494135E+02  0.69046016884E+03  0.61300000000E+03 0.  1.
<mgrwt>
<rscale>  0 0.14279088E+04</rscale>
<asrwt>0</asrwt>
<pdfrwt beam="1">  1        2 0.72632877E-01 0.14279088E+04</pdfrwt>
<pdfrwt beam="2">  1       -2 0.14322262E+00 0.14279088E+04</pdfrwt>
<totfact> 0.21676097E+01</totfact>
</mgrwt>
</event>
<event>
 8    1  0.7685004E-052  0.1645380E+04  0.7818608E-02  0.8793144E-01
          2   -1    0    0  501    0  0.00000000000E+00  0.00000000000E+00  0.11791952068E+04  0.11791952068E+04  0.25500000000E-02 0.  1.
         -2   -1    0    0    0  501 -0.00000000000E+00 -0.00000000000E+00 -0.57396687881E+03  0.57396687882E+03  0.25500000000E-02 0. -1.
     200001    2    1    2    0    0 -0.51893938506E+02 -0.17807394611E+03 -0.24820581208E+03  0.68614655500E+03  0.61219903517E+03 0.  0.
    5000001    2    3    3    0    0  0.42324727430E+02 -0.36555457426E+03 -0.23367138512E+03  0.45282619047E+03  0.12258757375E+03 0.  0.
        -13    1    4    4    0    0 -0.24389296764E+02 -0.66334082380E+02 -0.85738263408E+02  0.11111304720E+03  0.10566000000E+00 0. -1.
     200003    1    4    4    0    0  0.66714024195E+02 -0.29922049188E+03 -0.14793312171E+03  0.34171314327E+03  0.30000000000E+02 0. -1.
     200000    1    3    3    0    0 -0.94218665937E+02  0.18748062815E+03 -0.14534426962E+02  0.23332036454E+03  0.10100000000E+03 0. -1.
    -200001    1    1    2    0    0  0.51893938506E+02  0.17807394611E+03  0.85343414005E+03  0.10670155306E+04  0.61300000000E+03 0.  1.
<mgrwt>
<rscale>  0 0.16453802E+04</rscale>
<asrwt>0</asrwt>
<pdfrwt beam="1">  1        2 0.16845646E+00 0.16453802E+04</pdfrwt>
<pdfrwt beam="2">  1       -2 0.81995269E-01 0.16453802E+04</pdfrwt>
<totfact> 0.27516766E+01</totfact>
</mgrwt>
</event>
<event>
 8    1  0.7685004E-052  0.1666893E+04  0.7818608E-02  0.8780475E-01
         -2   -1    0    0    0  501 -0.00000000000E+00  0.00000000000E+00  0.66384869161E+03  0.66384869162E+03  0.25500000000E-02 0. -1.
          2   -1    0    0  501    0  0.00000000000E+00 -0.00000000000E+00 -0.10463724530E+04  0.10463724530E+04  0.25500000000E-02 0.  1.
     200001    2    1    2    0    0 -0.55956332743E+03 -0.19363469297E+02 -0.22654837905E+03  0.86548249789E+03  0.61987879844E+03 0.  0.
    5000001    2    3    3    0    0 -0.64756727482E+03 -0.49105778964E+02 -0.76162639705E+02  0.66189917259E+03  0.10273759801E+03 0.  0.
        -13    1    4    4    0    0 -0.66216402201E+02 -0.67693475344E+00 -0.38391096180E+02  0.76543827910E+02  0.10566000000E+00 0. -1.
     200003    1    4    4    0    0 -0.58135087262E+03 -0.48428844210E+02 -0.37771543524E+02  0.58535534468E+03  0.30000000000E+02 0. -1.
     200000    1    3    3    0    0  0.88003947394E+02  0.29742309667E+02 -0.15038573934E+03  0.20358332530E+03  0.10100000000E+03 0.  1.
    -200001    1    1    2    0    0  0.55956332743E+03  0.19363469297E+02 -0.15597538231E+03  0.84473864670E+03  0.61300000000E+03 0.  1.
<mgrwt>
<rscale>  0 0.16668929E+04</rscale>
<asrwt>0</asrwt>
<pdfrwt beam="1">  1        2 0.14948178E+00 0.16668929E+04</pdfrwt>
<pdfrwt beam="2">  1       -2 0.94835528E-01 0.16668929E+04</pdfrwt>
<totfact> 0.23550826E+01</totfact>
</mgrwt>
</event>
<event>
 8    1  0.7685004E-052  0.1307630E+04  0.7818608E-02  0.9023536E-01
         -2   -1    0    0    0  501 -0.00000000000E+00  0.00000000000E+00  0.33689093669E+03  0.33689093669E+03  0.25500000000E-02 0. -1.
          2   -1    0    0  501    0  0.00000000000E+00 -0.00000000000E+00 -0.12688799604E+04  0.12688799604E+04  0.25500000000E-02 0.  1.
     200001    2    1    2    0    0 -0.15563142250E+03  0.15855642914E+03 -0.52336561142E+03  0.83628836060E+03  0.61327430891E+03 0.  0.
    5000001    2    3    3    0    0  0.52679807573E+02  0.43135077024E+02 -0.56315920578E+03  0.57456295631E+03  0.91315402353E+02 0.  0.
        -13    1    4    4    0    0  0.48053663931E+02  0.27749393497E+02 -0.49772068905E+03  0.50080443182E+03  0.10566000000E+00 0. -1.
     200003    1    4    4    0    0  0.46261436420E+01  0.15385683528E+02 -0.65438516735E+02  0.73758524491E+02  0.30000000000E+02 0. -1.
     200000    1    3    3    0    0 -0.20831123008E+03  0.11542135211E+03  0.39793594363E+02  0.26172540429E+03  0.10100000000E+03 0. -1.
    -200001    1    1    2    0    0  0.15563142250E+03 -0.15855642914E+03 -0.40862341228E+03  0.76948253649E+03  0.61300000000E+03 0.  1.
<mgrwt>
<rscale>  0 0.13076302E+04</rscale>
<asrwt>0</asrwt>
<pdfrwt beam="1">  1        2 0.18126856E+00 0.13076302E+04</pdfrwt>
<pdfrwt beam="2">  1       -2 0.48127277E-01 0.13076302E+04</pdfrwt>
<totfact> 0.78310859E+01</totfact>
</mgrwt>
</event>
<event>
 8    1  0.7685004E-052  0.1317388E+04  0.7818608E-02  0.9015889E-01
          2   -1    0    0  501    0  0.00000000000E+00  0.00000000000E+00  0.62009648211E+03  0.62009648211E+03  0.25500000000E-02 0.  1.
         -2   -1    0    0    0  501 -0.00000000000E+00 -0.00000000000E+00 -0.69969413420E+03  0.69969413420E+03  0.25500000000E-02 0. -1.
     200001    2    1    2    0    0 -0.18549831377E+03 -0.13525228859E+03  0.33817934312E+02  0.65546020062E+03  0.61301029023E+03 0.  0.
    5000001    2    3    3    0    0 -0.36895394836E+03  0.10987212903E+02 -0.64744085433E+02  0.38167664852E+03  0.72370799166E+02 0.  0.
        -13    1    4    4    0    0 -0.30776323061E+02  0.16667245254E+02 -0.16566679678E+02  0.38722669912E+02  0.10566000000E+00 0. -1.
     200003    1    4    4    0    0 -0.33817762530E+03 -0.56800323515E+01 -0.48177405754E+02  0.34295397861E+03  0.30000000000E+02 0. -1.
     200000    1    3    3    0    0  0.18345563459E+03 -0.14623950149E+03  0.98562019745E+02  0.27378355209E+03  0.10100000000E+03 0.  1.
    -200001    1    1    2    0    0  0.18549831377E+03  0.13525228859E+03 -0.11341558640E+03  0.66433041570E+03  0.61300000000E+03 0.  1.
<mgrwt>
<rscale>  0 0.13173881E+04</rscale>
<asrwt>0</asrwt>
<pdfrwt beam="1">  1        2 0.88585212E-01 0.13173881E+04</pdfrwt>
<pdfrwt beam="2">  1       -2 0.99956305E-01 0.13173881E+04</pdfrwt>
<totfact> 0.42298364E+01</totfact>
</mgrwt>
</event>
<event>
 8    1  0.7685004E-052  0.1856472E+04  0.7818608E-02  0.8676831E-01
          2   -1    0    0  501    0  0.00000000000E+00  0.00000000000E+00  0.79601582111E+03  0.79601582111E+03  0.25500000000E-02 0. -1.
         -2   -1    0    0    0  501 -0.00000000000E+00 -0.00000000000E+00 -0.10824187105E+04  0.10824187105E+04  0.25500000000E-02 0.  1.
     200001    2    1    2    0    0 -0.57564685386E+03  0.88086411372E+02 -0.53087123029E+03  0.99828551818E+03  0.61287943059E+03 0.  0.
    5000001    2    3    3    0    0 -0.60969199813E+03  0.10947263106E+03 -0.22257150162E+03  0.67138161038E+03  0.13231252355E+03 0.  0.
        -13    1    4    4    0    0 -0.19521790329E+03 -0.22628463865E+02 -0.53254123077E+02  0.20361259767E+03  0.10566000000E+00 0. -1.
     200003    1    4    4    0    0 -0.41447409484E+03  0.13210109492E+03 -0.16931737854E+03  0.46776901271E+03  0.30000000000E+02 0. -1.
     200000    1    3    3    0    0  0.34045144266E+02 -0.21386219685E+02 -0.30829972867E+03  0.32690390781E+03  0.10100000000E+03 0. -1.
    -200001    1    1    2    0    0  0.57564685386E+03 -0.88086411372E+02  0.24446834085E+03  0.88014901347E+03  0.61300000000E+03 0. -1.
<mgrwt>
<rscale>  0 0.18564724E+04</rscale>
<asrwt>0</asrwt>
<pdfrwt beam="1">  1        2 0.11371655E+00 0.18564724E+04</pdfrwt>
<pdfrwt beam="2">  1       -2 0.15463124E+00 0.18564724E+04</pdfrwt>
<totfact> 0.99624078E+00</totfact>
</mgrwt>
</event>
<event>
 8    1  0.7685004E-052  0.1263322E+04  0.7818608E-02  0.9059168E-01
         -2   -1    0    0    0  501 -0.00000000000E+00  0.00000000000E+00  0.42837484163E+03  0.42837484164E+03  0.25500000000E-02 0. -1.
          2   -1    0    0  501    0  0.00000000000E+00 -0.00000000000E+00 -0.93141724380E+03  0.93141724381E+03  0.25500000000E-02 0.  1.
     200001    2    1    2    0    0  0.14229952405E+02  0.65194935012E+01 -0.85844369563E+02  0.61812626194E+03  0.61193612786E+03 0.  0.
    5000001    2    3    3    0    0 -0.16868818090E+03  0.20321594486E+03 -0.10856617974E+03  0.33026202636E+03  0.16593362544E+03 0.  0.
        -13    1    4    4    0    0 -0.38228070185E+02  0.14040419764E+03 -0.10995546875E+03  0.18238678772E+03  0.10566000000E+00 0. -1.
     200003    1    4    4    0    0 -0.13046011072E+03  0.62811747222E+02  0.13892890125E+01  0.14787523863E+03  0.30000000000E+02 0. -1.
     200000    1    3    3    0    0  0.18291813331E+03 -0.19669645136E+03  0.22721810172E+02  0.28786423558E+03  0.10100000000E+03 0. -1.
    -200001    1    1    2    0    0 -0.14229952405E+02 -0.65194935012E+01 -0.41719803261E+03  0.74166582350E+03  0.61300000000E+03 0.  1.
<mgrwt>
<rscale>  0 0.12633222E+04</rscale>
<asrwt>0</asrwt>
<pdfrwt beam="1">  1        2 0.13305961E+00 0.12633222E+04</pdfrwt>
<pdfrwt beam="2">  1       -2 0.61196406E-01 0.12633222E+04</pdfrwt>
<totfact> 0.75792142E+01</totfact>
</mgrwt>
</event>
<event>
 8    1  0.7685004E-052  0.1310710E+04  0.7818608E-02  0.9021115E-01
          2   -1    0    0  501    0  0.00000000000E+00  0.00000000000E+00  0.11562062660E+04  0.11562062660E+04  0.25500000000E-02 0.  1.
         -2   -1    0    0    0  501 -0.00000000000E+00 -0.00000000000E+00 -0.37146512966E+03  0.37146512967E+03  0.25500000000E-02 0. -1.
     200001    2    1    2    0    0  0.11182014743E+03 -0.16203749709E+03  0.25234753980E+03  0.69222430728E+03  0.61378767902E+03 0.  0.
    5000001    2    3    3    0    0 -0.23374450091E+03 -0.13253620056E+03  0.12986582941E+03  0.31079538590E+03  0.86754262644E+02 0.  0.
        -13    1    4    4    0    0 -0.87970804437E+02 -0.18418173094E+02  0.15711884948E+02  0.91241251779E+02  0.10566000000E+00 0. -1.
     200003    1    4    4    0    0 -0.14577369647E+03 -0.11411802747E+03  0.11415394446E+03  0.21955413413E+03  0.30000000000E+02 0. -1.
     200000    1    3    3    0    0  0.34556464834E+03 -0.29501296526E+02  0.12248171039E+03  0.38142892138E+03  0.10100000000E+03 0.  1.
    -200001    1    1    2    0    0 -0.11182014743E+03  0.16203749709E+03  0.53239359650E+03  0.83544708835E+03  0.61300000000E+03 0. -1.
<mgrwt>
<rscale>  0 0.13107102E+04</rscale>
<asrwt>0</asrwt>
<pdfrwt beam="1">  1        2 0.16517232E+00 0.13107102E+04</pdfrwt>
<pdfrwt beam="2">  1       -2 0.53066447E-01 0.13107102E+04</pdfrwt>
<totfact> 0.74323642E+01</totfact>
</mgrwt>
</event>
<event>
 8    1  0.7685004E-052  0.1322404E+04  0.7818608E-02  0.9011985E-01
         -2   -1    0    0    0  501 -0.00000000000E+00  0.00000000000E+00  0.18222925168E+03  0.18222925169E+03  0.25500000000E-02 0. -1.
          2   -1    0    0  501    0  0.00000000000E+00 -0.00000000000E+00 -0.23991109259E+04  0.23991109259E+04  0.25500000000E-02 0.  1.
     200001    2    1    2    0    0 -0.23522906498E+03 -0.76616742389E+02 -0.11611393396E+04  0.13357223729E+04  0.61213303562E+03 0.  0.
    5000001    2    3    3    0    0  0.38408701444E+02 -0.15693092675E+03 -0.62341148193E+02  0.19603537164E+03  0.91874392827E+02 0.  0.
        -13    1    4    4    0    0  0.91439574111E+01 -0.82945070965E+02 -0.72314084510E+02  0.11042116979E+03  0.10566000000E+00 0. -1.
     200003    1    4    4    0    0  0.29264744033E+02 -0.73985855787E+02  0.99729363173E+01  0.85614201851E+02  0.30000000000E+02 0. -1.
     200000    1    3    3    0    0 -0.27363776642E+03  0.80314184363E+02 -0.10987981914E+04  0.11396870013E+04  0.10100000000E+03 0.  1.
    -200001    1    1    2    0    0  0.23522906498E+03  0.76616742389E+02 -0.10557423346E+04  0.12456178046E+04  0.61300000000E+03 0.  1.
<mgrwt>
<rscale>  0 0.13224042E+04</rscale>
<asrwt>0</asrwt>
<pdfrwt beam="1">  1        2 0.34273011E+00 0.13224042E+04</pdfrwt>
<pdfrwt beam="2">  1       -2 0.26032752E-01 0.13224042E+04</pdfrwt>
<totfact> 0.65149490E+01</totfact>
</mgrwt>
</event>
<event>
 8    1  0.7685004E-052  0.1608901E+04  0.7818608E-02  0.8815099E-01
          2   -1    0    0  501    0  0.00000000000E+00  0.00000000000E+00  0.25017742203E+04  0.25017742203E+04  0.25500000000E-02 0.  1.
         -2   -1    0    0    0  501 -0.00000000000E+00 -0.00000000000E+00 -0.25867254394E+03  0.25867254395E+03  0.25500000000E-02 0. -1.
     200001    2    1    2    0    0 -0.31560145164E+03  0.23623802370E+03  0.54518992619E+03  0.91272221999E+03  0.61677963254E+03 0.  0.
    5000001    2    3    3    0    0 -0.19181702934E+03  0.23574339436E+03  0.62019587820E+03  0.73622938529E+03  0.25499423465E+03 0.  0.
        -13    1    4    4    0    0 -0.97520459748E+02  0.21627418531E+03  0.22009862792E+03  0.32361733649E+03  0.10566000000E+00 0. -1.
     200003    1    4    4    0    0 -0.94296569593E+02  0.19469209054E+02  0.40009725028E+03  0.41261204881E+03  0.30000000000E+02 0. -1.
     200000    1    3    3    0    0 -0.12378442230E+03  0.49462934140E+00 -0.75005952007E+02  0.17649283469E+03  0.10100000000E+03 0. -1.
    -200001    1    1    2    0    0  0.31560145164E+03 -0.23623802370E+03  0.16979117502E+04  0.18477245443E+04  0.61300000000E+03 0.  1.
<mgrwt>
<rscale>  0 0.16089006E+04</rscale>
<asrwt>0</asrwt>
<pdfrwt beam="1">  1        2 0.35739632E+00 0.16089006E+04</pdfrwt>
<pdfrwt beam="2">  1       -2 0.36953220E-01 0.16089006E+04</pdfrwt>
<totfact> 0.29173802E+01</totfact>
</mgrwt>
</event>
<event>
 8    1  0.7685004E-052  0.1727272E+04  0.7818608E-02  0.8745961E-01
         -2   -1    0    0    0  501 -0.00000000000E+00  0.00000000000E+00  0.59771658715E+03  0.59771658716E+03  0.25500000000E-02 0. -1.
          2   -1    0    0  501    0  0.00000000000E+00 -0.00000000000E+00 -0.12478614405E+04  0.12478614405E+04  0.25500000000E-02 0.  1.
     200001    2    1    2    0    0 -0.30374825266E+03 -0.45607935567E+03 -0.42370231254E+02  0.82311513303E+03  0.61274130435E+03 0.  0.
    5000001    2    3    3    0    0 -0.86704297116E+02 -0.54105622712E+03 -0.87668404577E+02  0.56508011248E+03  0.10663164785E+03 0.  0.
        -13    1    4    4    0    0  0.36351246680E+01 -0.10361813508E+02 -0.18477804168E+02  0.21494690540E+02  0.10566000000E+00 0. -1.
     200003    1    4    4    0    0 -0.90339421784E+02 -0.53069441361E+03 -0.69190600410E+02  0.54358542194E+03  0.30000000000E+02 0. -1.
     200000    1    3    3    0    0 -0.21704395554E+03  0.84976871450E+02  0.45298173323E+02  0.25803502054E+03  0.10100000000E+03 0. -1.
    -200001    1    1    2    0    0  0.30374825266E+03  0.45607935567E+03 -0.60777462213E+03  0.10224628947E+04  0.61300000000E+03 0.  1.
<mgrwt>
<rscale>  0 0.17272724E+04</rscale>
<asrwt>0</asrwt>
<pdfrwt beam="1">  1        2 0.17826592E+00 0.17272724E+04</pdfrwt>
<pdfrwt beam="2">  1       -2 0.85388084E-01 0.17272724E+04</pdfrwt>
<totfact> 0.22798248E+01</totfact>
</mgrwt>
</event>
<event>
 8    1  0.7685004E-052  0.1263168E+04  0.7818608E-02  0.9059294E-01
          2   -1    0    0  501    0  0.00000000000E+00  0.00000000000E+00  0.10348603943E+04  0.10348603943E+04  0.25500000000E-02 0.  1.
         -2   -1    0    0    0  501 -0.00000000000E+00 -0.00000000000E+00 -0.38546122330E+03  0.38546122330E+03  0.25500000000E-02 0. -1.
     200001    2    1    2    0    0 -0.92367111869E+02 -0.11972904212E+03  0.34334963286E+03  0.71867922530E+03  0.61297971549E+03 0.  0.
    5000001    2    3    3    0    0 -0.13857562018E+03 -0.34440015772E+03  0.23630581445E+03  0.44615084974E+03  0.73453874176E+02 0.  0.
        -13    1    4    4    0    0 -0.71557721485E+01 -0.62406859205E+02  0.62077249433E+02  0.88314309215E+02  0.10566000000E+00 0. -1.
     200003    1    4    4    0    0 -0.13141984804E+03 -0.28199329852E+03  0.17422856501E+03  0.35783654052E+03  0.30000000000E+02 0. -1.
     200000    1    3    3    0    0  0.46208508315E+02  0.22467111560E+03  0.10704381841E+03  0.27252837556E+03  0.10100000000E+03 0. -1.
    -200001    1    1    2    0    0  0.92367111869E+02  0.11972904212E+03  0.30604953814E+03  0.70164239230E+03  0.61300000000E+03 0. -1.
<mgrwt>
<rscale>  0 0.12631683E+04</rscale>
<asrwt>0</asrwt>
<pdfrwt beam="1">  1        2 0.14783720E+00 0.12631683E+04</pdfrwt>
<pdfrwt beam="2">  1       -2 0.55065889E-01 0.12631683E+04</pdfrwt>
<totfact> 0.81515943E+01</totfact>
</mgrwt>
</event>
<event>
 8    1  0.7685004E-052  0.1475111E+04  0.7818608E-02  0.8901175E-01
          2   -1    0    0  501    0  0.00000000000E+00  0.00000000000E+00  0.43845174359E+03  0.43845174360E+03  0.25500000000E-02 0.  1.
         -2   -1    0    0    0  501 -0.00000000000E+00 -0.00000000000E+00 -0.12407020454E+04  0.12407020454E+04  0.25500000000E-02 0. -1.
     200001    2    1    2    0    0 -0.27912060858E+03 -0.19444436093E+03 -0.14021459926E+03  0.71490423879E+03  0.61295270059E+03 0.  0.
    5000001    2    3    3    0    0  0.11861051881E+03 -0.20229245467E+03 -0.16398158596E+03  0.30378684445E+03  0.10200879344E+03 0.  0.
        -13    1    4    4    0    0  0.86405297133E+01 -0.10127547151E+03 -0.83373496518E+02  0.13146304031E+03  0.10566000000E+00 0. -1.
     200003    1    4    4    0    0  0.10996998910E+03 -0.10101698316E+03 -0.80608089442E+02  0.17232380414E+03  0.30000000000E+02 0. -1.
     200000    1    3    3    0    0 -0.39773112739E+03  0.78480937408E+01  0.23766986704E+02  0.41111739433E+03  0.10100000000E+03 0.  1.
    -200001    1    1    2    0    0  0.27912060858E+03  0.19444436093E+03 -0.66203570252E+03  0.96424955019E+03  0.61300000000E+03 0. -1.
<mgrwt>
<rscale>  0 0.14751108E+04</rscale>
<asrwt>0</asrwt>
<pdfrwt beam="1">  1        2 0.62635964E-01 0.14751108E+04</pdfrwt>
<pdfrwt beam="2">  1       -2 0.17724315E+00 0.14751108E+04</pdfrwt>
<totfact> 0.14317149E+01</totfact>
</mgrwt>
</event>
<event>
 8    1  0.7685004E-052  0.2171620E+04  0.7818608E-02  0.8530334E-01
         -2   -1    0    0    0  501 -0.00000000000E+00  0.00000000000E+00  0.68971624213E+03  0.68971624214E+03  0.25500000000E-02 0. -1.
          2   -1    0    0  501    0  0.00000000000E+00 -0.00000000000E+00 -0.17093739272E+04  0.17093739272E+04  0.25500000000E-02 0.  1.
     200001    2    1    2    0    0 -0.30200839311E+03 -0.71726767760E+02 -0.14388113496E+04  0.15942221099E+04  0.61238242724E+03 0.  0.
    5000001    2    3    3    0    0 -0.41564681828E+03  0.70932020093E+02 -0.10095642533E+04  0.11170226850E+04  0.22522448414E+03 0.  0.
        -13    1    4    4    0    0 -0.85215933531E+02  0.11327909326E+03 -0.34638606059E+03  0.37426891727E+03  0.10566000000E+00 0. -1.
     200003    1    4    4    0    0 -0.33043088475E+03 -0.42347073172E+02 -0.66317819266E+03  0.74275376770E+03  0.30000000000E+02 0. -1.
     200000    1    3    3    0    0  0.11363842517E+03 -0.14265878785E+03 -0.42924709634E+03  0.47719942492E+03  0.10100000000E+03 0.  1.
    -200001    1    1    2    0    0  0.30200839311E+03  0.71726767760E+02  0.41915366450E+03  0.80486805949E+03  0.61300000000E+03 0. -1.
<mgrwt>
<rscale>  0 0.21716196E+04</rscale>
<asrwt>0</asrwt>
<pdfrwt beam="1">  1        2 0.24419628E+00 0.21716196E+04</pdfrwt>
<pdfrwt beam="2">  1       -2 0.98530892E-01 0.21716196E+04</pdfrwt>
<totfact> 0.89318262E+00</totfact>
</mgrwt>
</event>
<event>
 8    1  0.7685004E-052  0.1415390E+04  0.7818608E-02  0.8942753E-01
         -2   -1    0    0    0  501 -0.00000000000E+00  0.00000000000E+00  0.14635925756E+03  0.14635925758E+03  0.25500000000E-02 0. -1.
          2   -1    0    0  501    0  0.00000000000E+00 -0.00000000000E+00 -0.34219359754E+04  0.34219359754E+04  0.25500000000E-02 0.  1.
     200001    2    1    2    0    0 -0.17604340847E+03  0.30231425109E+03 -0.15096095649E+04  0.16665081330E+04  0.61314201543E+03 0.  0.
    5000001    2    3    3    0    0  0.13496055791E+02  0.37638832198E+03 -0.13074946277E+04  0.13624298137E+04  0.69444101440E+02 0.  0.
        -13    1    4    4    0    0  0.57945778276E+01  0.30075931424E+03 -0.10540269471E+04  0.10961124753E+04  0.10566000000E+00 0. -1.
     200003    1    4    4    0    0  0.77014779630E+01  0.75629007742E+02 -0.25346768065E+03  0.26631733836E+03  0.30000000000E+02 0.  1.
     200000    1    3    3    0    0 -0.18953946426E+03 -0.74074070887E+02 -0.20211493713E+03  0.30407831935E+03  0.10100000000E+03 0. -1.
    -200001    1    1    2    0    0  0.17604340847E+03 -0.30231425109E+03 -0.17659671530E+04  0.19017870999E+04  0.61300000000E+03 0. -1.
<mgrwt>
<rscale>  0 0.14153897E+04</rscale>
<asrwt>0</asrwt>
<pdfrwt beam="1">  1        2 0.48884795E+00 0.14153897E+04</pdfrwt>
<pdfrwt beam="2">  1       -2 0.20908468E-01 0.14153897E+04</pdfrwt>
<totfact> 0.26095875E+01</totfact>
</mgrwt>
</event>
<event>
 8    1  0.7685004E-052  0.1469142E+04  0.7818608E-02  0.8905237E-01
          2   -1    0    0  501    0  0.00000000000E+00  0.00000000000E+00  0.18845075687E+04  0.18845075687E+04  0.25500000000E-02 0.  1.
         -2   -1    0    0    0  501 -0.00000000000E+00 -0.00000000000E+00 -0.28633170195E+03  0.28633170196E+03  0.25500000000E-02 0. -1.
     200001    2    1    2    0    0  0.37959514784E+03  0.33585394186E+02  0.59595226036E+03  0.93575157655E+03  0.61257771867E+03 0.  0.
    5000001    2    3    3    0    0  0.12784803783E+03 -0.21794806989E+03  0.20589317353E+03  0.39817108754E+03  0.22869572383E+03 0.  0.
        -13    1    4    4    0    0  0.31402282174E+02 -0.17715147247E+03  0.22446363261E+03  0.28766765729E+03  0.10566000000E+00 0. -1.
     200003    1    4    4    0    0  0.96445755655E+02 -0.40796597420E+02 -0.18570459081E+02  0.11050343024E+03  0.30000000000E+02 0. -1.
     200000    1    3    3    0    0  0.25174711001E+03  0.25153346407E+03  0.39005908683E+03  0.53758048901E+03  0.10100000000E+03 0.  1.
    -200001    1    1    2    0    0 -0.37959514784E+03 -0.33585394186E+02  0.10022236064E+04  0.12350876941E+04  0.61300000000E+03 0.  1.
<mgrwt>
<rscale>  0 0.14691416E+04</rscale>
<asrwt>0</asrwt>
<pdfrwt beam="1">  1        2 0.26921538E+00 0.14691416E+04</pdfrwt>
<pdfrwt beam="2">  1       -2 0.40904527E-01 0.14691416E+04</pdfrwt>
<totfact> 0.50500488E+01</totfact>
</mgrwt>
</event>
<event>
 8    1  0.7685004E-052  0.1391517E+04  0.7818608E-02  0.8959982E-01
          2   -1    0    0  501    0  0.00000000000E+00  0.00000000000E+00  0.71835592242E+03  0.71835592242E+03  0.25500000000E-02 0.  1.
         -2   -1    0    0    0  501 -0.00000000000E+00 -0.00000000000E+00 -0.67387164854E+03  0.67387164855E+03  0.25500000000E-02 0. -1.
     200001    2    1    2    0    0  0.27555887459E+03 -0.13489360225E+03  0.14073461001E+03  0.70001221106E+03  0.61325515724E+03 0.  0.
    5000001    2    3    3    0    0  0.40928171152E+02  0.22307677644E+03  0.92190849631E+02  0.25757367783E+03  0.80041760169E+02 0.  0.
        -13    1    4    4    0    0  0.55641071530E+02  0.13005427260E+03  0.59570232669E+02  0.15348832674E+03  0.10566000000E+00 0. -1.
     200003    1    4    4    0    0 -0.14712900378E+02  0.93022503843E+02  0.32620616962E+02  0.10408535108E+03  0.30000000000E+02 0. -1.
     200000    1    3    3    0    0  0.23463070344E+03 -0.35797037870E+03  0.48543760375E+02  0.44243853323E+03  0.10100000000E+03 0. -1.
    -200001    1    1    2    0    0 -0.27555887459E+03  0.13489360225E+03 -0.96250336130E+02  0.69221535991E+03  0.61300000000E+03 0.  1.
<mgrwt>
<rscale>  0 0.13915167E+04</rscale>
<asrwt>0</asrwt>
<pdfrwt beam="1">  1        2 0.10262227E+00 0.13915167E+04</pdfrwt>
<pdfrwt beam="2">  1       -2 0.96267378E-01 0.13915167E+04</pdfrwt>
<totfact> 0.38421302E+01</totfact>
</mgrwt>
</event>
<event>
 8    1  0.7685004E-052  0.2086045E+04  0.7818608E-02  0.8567416E-01
          2   -1    0    0  501    0  0.00000000000E+00  0.00000000000E+00  0.22614280232E+04  0.22614280232E+04  0.25500000000E-02 0.  1.
         -2   -1    0    0    0  501 -0.00000000000E+00 -0.00000000000E+00 -0.48106599135E+03  0.48106599135E+03  0.25500000000E-02 0. -1.
     200001    2    1    2    0    0 -0.51084463409E+03 -0.63613091511E+03  0.11732083553E+04  0.15550474396E+04  0.61329431203E+03 0.  0.
    5000001    2    3    3    0    0 -0.43151324273E+03 -0.44153647347E+03  0.11506357723E+04  0.13208018679E+04  0.19848616496E+03 0.  0.
        -13    1    4    4    0    0 -0.25730758709E+03 -0.38292629629E+03  0.78713451432E+03  0.91237081144E+03  0.10566000000E+00 0. -1.
     200003    1    4    4    0    0 -0.17420565564E+03 -0.58610177180E+02  0.36350125797E+03  0.40843105645E+03  0.30000000000E+02 0. -1.
     200000    1    3    3    0    0 -0.79331391362E+02 -0.19459444164E+03  0.22572583012E+02  0.23424557173E+03  0.10100000000E+03 0. -1.
    -200001    1    1    2    0    0  0.51084463409E+03  0.63613091511E+03  0.60715367652E+03  0.11874465749E+04  0.61300000000E+03 0.  1.
<mgrwt>
<rscale>  0 0.20860452E+04</rscale>
<asrwt>0</asrwt>
<pdfrwt beam="1">  1        2 0.32306115E+00 0.20860452E+04</pdfrwt>
<pdfrwt beam="2">  1       -2 0.68723713E-01 0.20860452E+04</pdfrwt>
<totfact> 0.10533842E+01</totfact>
</mgrwt>
</event>
<event>
 8    1  0.7685004E-052  0.1540360E+04  0.7818608E-02  0.8858049E-01
         -2   -1    0    0    0  501 -0.00000000000E+00  0.00000000000E+00  0.18802368825E+03  0.18802368827E+03  0.25500000000E-02 0. -1.
          2   -1    0    0  501    0  0.00000000000E+00 -0.00000000000E+00 -0.31548011312E+04  0.31548011312E+04  0.25500000000E-02 0.  1.
     200001    2    1    2    0    0 -0.19948255715E+03  0.38521161612E+03 -0.18967113106E+04  0.20355406853E+04  0.59810601568E+03 0.  0.
    5000001    2    3    3    0    0 -0.18704198913E+03  0.74780406112E+02 -0.16454370405E+03  0.27283596782E+03  0.82389440797E+02 0.  0.
        -13    1    4    4    0    0 -0.10870710420E+02  0.11921056218E+02  0.66999723753E+01  0.17469536921E+02  0.10566000000E+00 0. -1.
     200003    1    4    4    0    0 -0.17617127871E+03  0.62859349894E+02 -0.17124367643E+03  0.25536643090E+03  0.30000000000E+02 0. -1.
     200000    1    3    3    0    0 -0.12440568017E+02  0.31043121001E+03 -0.17321676066E+04  0.17627047175E+04  0.10100000000E+03 0.  1.
    -200001    1    1    2    0    0  0.19948255715E+03 -0.38521161612E+03 -0.10700661323E+04  0.13072841341E+04  0.61300000000E+03 0. -1.
<mgrwt>
<rscale>  0 0.15403601E+04</rscale>
<asrwt>0</asrwt>
<pdfrwt beam="1">  1        2 0.45068584E+00 0.15403601E+04</pdfrwt>
<pdfrwt beam="2">  1       -2 0.26860529E-01 0.15403601E+04</pdfrwt>
<totfact> 0.23525666E+01</totfact>
</mgrwt>
</event>
<event>
 8    1  0.7685004E-052  0.1540014E+04  0.7818608E-02  0.8858272E-01
          2   -1    0    0  501    0  0.00000000000E+00  0.00000000000E+00  0.22294364790E+04  0.22294364790E+04  0.25500000000E-02 0.  1.
         -2   -1    0    0    0  501 -0.00000000000E+00 -0.00000000000E+00 -0.26594644623E+03  0.26594644624E+03  0.25500000000E-02 0. -1.
     200001    2    1    2    0    0 -0.17012365849E+03  0.23773882908E+03  0.39462126522E+03  0.78582742165E+03  0.61346310699E+03 0.  0.
    5000001    2    3    3    0    0  0.18772607317E+03  0.22130858975E+03  0.13859873565E+03  0.33408090107E+03  0.90453681448E+02 0.  0.
        -13    1    4    4    0    0  0.38529084141E+00  0.15522100558E+02  0.30133462717E+02  0.33898684253E+02  0.10566000000E+00 0. -1.
     200003    1    4    4    0    0  0.18734078233E+03  0.20578648920E+03  0.10846527293E+03  0.30018221681E+03  0.30000000000E+02 0. -1.
     200000    1    3    3    0    0 -0.35784973166E+03  0.16430239322E+02  0.25602252957E+03  0.45174652059E+03  0.10100000000E+03 0. -1.
    -200001    1    1    2    0    0  0.17012365849E+03 -0.23773882908E+03  0.15688687676E+04  0.17095555036E+04  0.61300000000E+03 0.  1.
<mgrwt>
<rscale>  0 0.15400139E+04</rscale>
<asrwt>0</asrwt>
<pdfrwt beam="1">  1        2 0.31849093E+00 0.15400139E+04</pdfrwt>
<pdfrwt beam="2">  1       -2 0.37992348E-01 0.15400139E+04</pdfrwt>
<totfact> 0.38542956E+01</totfact>
</mgrwt>
</event>
<event>
 8    1  0.7685004E-052  0.1433984E+04  0.7818608E-02  0.8929580E-01
          2   -1    0    0  501    0  0.00000000000E+00  0.00000000000E+00  0.99202212020E+03  0.99202212020E+03  0.25500000000E-02 0.  1.
         -2   -1    0    0    0  501 -0.00000000000E+00 -0.00000000000E+00 -0.51821208434E+03  0.51821208434E+03  0.25500000000E-02 0. -1.
     200001    2    1    2    0    0 -0.24275198696E+03  0.23695327331E+03  0.39771336170E+03  0.80551079446E+03  0.61285915267E+03 0.  0.
    5000001    2    3    3    0    0  0.13230333903E+03 -0.91476526664E+01 -0.39346432182E+02  0.17111783521E+03  0.10072397298E+03 0.  0.
        -13    1    4    4    0    0 -0.37346626960E+01 -0.21543458929E+02 -0.20544520484E+02  0.30002613453E+02  0.10566000000E+00 0. -1.
     200003    1    4    4    0    0  0.13603800173E+03  0.12395806263E+02 -0.18801911698E+02  0.14111522175E+03  0.30000000000E+02 0. -1.
     200000    1    3    3    0    0 -0.37505532599E+03  0.24610092598E+03  0.43705979388E+03  0.63439295925E+03  0.10100000000E+03 0.  1.
    -200001    1    1    2    0    0  0.24275198696E+03 -0.23695327331E+03  0.76096674162E+02  0.70472341009E+03  0.61300000000E+03 0. -1.
<mgrwt>
<rscale>  0 0.14339844E+04</rscale>
<asrwt>0</asrwt>
<pdfrwt beam="1">  1        2 0.14171745E+00 0.14339844E+04</pdfrwt>
<pdfrwt beam="2">  1       -2 0.74030297E-01 0.14339844E+04</pdfrwt>
<totfact> 0.45410699E+01</totfact>
</mgrwt>
</event>
<event>
 8    1  0.7685004E-052  0.1316652E+04  0.7818608E-02  0.9016463E-01
          2   -1    0    0  501    0  0.00000000000E+00  0.00000000000E+00  0.25491708887E+04  0.25491708887E+04  0.25500000000E-02 0.  1.
         -2   -1    0    0    0  501 -0.00000000000E+00 -0.00000000000E+00 -0.17001333844E+03  0.17001333846E+03  0.25500000000E-02 0. -1.
     200001    2    1    2    0    0 -0.89546299763E+01  0.15224908812E+03  0.15727964399E+04  0.16948565401E+04  0.61285404450E+03 0.  0.
    5000001    2    3    3    0    0  0.64789611087E+02  0.15566896891E+03  0.83964143809E+02  0.20077738737E+03  0.69505828877E+02 0.  0.
        -13    1    4    4    0    0  0.97656370574E+01  0.19500131603E+02 -0.98626894345E+01  0.23935467545E+02  0.10566000000E+00 0. -1.
     200003    1    4    4    0    0  0.55023974030E+02  0.13616883731E+03  0.93826833243E+02  0.17684191983E+03  0.30000000000E+02 0. -1.
     200000    1    3    3    0    0 -0.73744241064E+02 -0.34198807887E+01  0.14888322961E+04  0.14940791527E+04  0.10100000000E+03 0.  1.
    -200001    1    1    2    0    0  0.89546299763E+01 -0.15224908812E+03  0.80636111037E+03  0.10243276871E+04  0.61300000000E+03 0. -1.
<mgrwt>
<rscale>  0 0.13166519E+04</rscale>
<asrwt>0</asrwt>
<pdfrwt beam="1">  1        2 0.36416726E+00 0.13166519E+04</pdfrwt>
<pdfrwt beam="2">  1       -2 0.24287620E-01 0.13166519E+04</pdfrwt>
<totfact> 0.61695646E+01</totfact>
</mgrwt>
</event>
<event>
 8    1  0.7685004E-052  0.1486063E+04  0.7818608E-02  0.8893774E-01
          2   -1    0    0  501    0  0.00000000000E+00  0.00000000000E+00  0.59092941825E+03  0.59092941825E+03  0.25500000000E-02 0.  1.
         -2   -1    0    0    0  501 -0.00000000000E+00 -0.00000000000E+00 -0.93428430196E+03  0.93428430196E+03  0.25500000000E-02 0. -1.
     200001    2    1    2    0    0 -0.20868556707E+03  0.23350858685E+03 -0.45861896317E+03  0.82726620496E+03  0.61315747933E+03 0.  0.
    5000001    2    3    3    0    0  0.19834109944E+03  0.23378412134E+02 -0.13702724264E+03  0.25854163868E+03  0.90452041592E+02 0.  0.
        -13    1    4    4    0    0  0.35386165825E+02  0.33337608598E+02 -0.54937044415E+02  0.73359845228E+02  0.10566000000E+00 0. -1.
     200003    1    4    4    0    0  0.16295493361E+03 -0.99591964648E+01 -0.82090198224E+02  0.18518179346E+03  0.30000000000E+02 0. -1.
     200000    1    3    3    0    0 -0.40702666651E+03  0.21013017472E+03 -0.32159172053E+03  0.56872456628E+03  0.10100000000E+03 0. -1.
    -200001    1    1    2    0    0  0.20868556707E+03 -0.23350858685E+03  0.11526407946E+03  0.69794751525E+03  0.61300000000E+03 0.  1.
<mgrwt>
<rscale>  0 0.14860634E+04</rscale>
<asrwt>0</asrwt>
<pdfrwt beam="1">  1        2 0.84418488E-01 0.14860634E+04</pdfrwt>
<pdfrwt beam="2">  1       -2 0.13346919E+00 0.14860634E+04</pdfrwt>
<totfact> 0.21739698E+01</totfact>
</mgrwt>
</event>
<event>
 8    1  0.7685004E-052  0.1318612E+04  0.7818608E-02  0.9014935E-01
          2   -1    0    0  501    0  0.00000000000E+00  0.00000000000E+00  0.96976582042E+03  0.96976582042E+03  0.25500000000E-02 0.  1.
         -2   -1    0    0    0  501 -0.00000000000E+00 -0.00000000000E+00 -0.44823614437E+03  0.44823614437E+03  0.25500000000E-02 0. -1.
     200001    2    1    2    0    0 -0.13823957829E+03  0.83550809583E+02  0.45601852139E+03  0.78070169791E+03  0.61274083468E+03 0.  0.
    5000001    2    3    3    0    0 -0.24316573747E+03  0.21788622846E+03  0.62021044182E+02  0.33969090928E+03  0.70280292354E+02 0.  0.
        -13    1    4    4    0    0 -0.19510414120E+03  0.18173325213E+03  0.45564843041E+02  0.27049725863E+03  0.10566000000E+00 0. -1.
     200003    1    4    4    0    0 -0.48061596266E+02  0.36152976329E+02  0.16456201141E+02  0.69193650641E+02  0.30000000000E+02 0.  1.
     200000    1    3    3    0    0  0.10492615918E+03 -0.13433541887E+03  0.39399747721E+03  0.44101078863E+03  0.10100000000E+03 0.  1.
    -200001    1    1    2    0    0  0.13823957829E+03 -0.83550809583E+02  0.65511154662E+02  0.63730026689E+03  0.61300000000E+03 0. -1.
<mgrwt>
<rscale>  0 0.13186115E+04</rscale>
<asrwt>0</asrwt>
<pdfrwt beam="1">  1        2 0.13853797E+00 0.13186115E+04</pdfrwt>
<pdfrwt beam="2">  1       -2 0.64033735E-01 0.13186115E+04</pdfrwt>
<totfact> 0.64814096E+01</totfact>
</mgrwt>
</event>
<event>
 8    1  0.7685004E-052  0.1875738E+04  0.7818608E-02  0.8667028E-01
          2   -1    0    0  501    0  0.00000000000E+00  0.00000000000E+00  0.18618088983E+04  0.18618088983E+04  0.25500000000E-02 0.  1.
         -2   -1    0    0    0  501 -0.00000000000E+00 -0.00000000000E+00 -0.47244273952E+03  0.47244273952E+03  0.25500000000E-02 0. -1.
     200001    2    1    2    0    0  0.65596057260E+03 -0.42181909036E+01  0.35906982106E+03  0.96765674193E+03  0.61410615358E+03 0.  0.
    5000001    2    3    3    0    0  0.24830442890E+03 -0.14254253719E+03  0.41095730751E+03  0.52244840022E+03  0.14863700070E+03 0.  0.
        -13    1    4    4    0    0  0.14339541692E+03 -0.51630903229E+02  0.31820291238E+03  0.35281879255E+03  0.10566000000E+00 0. -1.
     200003    1    4    4    0    0  0.10490901198E+03 -0.90911633962E+02  0.92754395127E+02  0.16962960767E+03  0.30000000000E+02 0. -1.
     200000    1    3    3    0    0  0.40765614370E+03  0.13832434629E+03 -0.51887486456E+02  0.44520834171E+03  0.10100000000E+03 0. -1.
    -200001    1    1    2    0    0 -0.65596057260E+03  0.42181909036E+01  0.10302963377E+04  0.13665948959E+04  0.61300000000E+03 0. -1.
<mgrwt>
<rscale>  0 0.18757378E+04</rscale>
<asrwt>0</asrwt>
<pdfrwt beam="1">  1        2 0.26597270E+00 0.18757378E+04</pdfrwt>
<pdfrwt beam="2">  1       -2 0.67491819E-01 0.18757378E+04</pdfrwt>
<totfact> 0.17913695E+01</totfact>
</mgrwt>
</event>
<event>
 8    1  0.7685004E-052  0.1316973E+04  0.7818608E-02  0.9016213E-01
         -2   -1    0    0    0  501 -0.00000000000E+00  0.00000000000E+00  0.28941602198E+03  0.28941602200E+03  0.25500000000E-02 0. -1.
          2   -1    0    0  501    0  0.00000000000E+00 -0.00000000000E+00 -0.14982044778E+04  0.14982044778E+04  0.25500000000E-02 0.  1.
     200001    2    1    2    0    0  0.10754198331E+03  0.20796761163E+03 -0.67317653770E+03  0.94058748244E+03  0.61377712204E+03 0.  0.
    5000001    2    3    3    0    0  0.35080032838E+02  0.25975733477E+03 -0.53280095697E+02  0.30623307952E+03  0.14911555495E+03 0.  0.
        -13    1    4    4    0    0 -0.36324708807E+02  0.11734112305E+03  0.26331727700E+02  0.12562561314E+03  0.10566000000E+00 0. -1.
     200003    1    4    4    0    0  0.71404741645E+02  0.14241621172E+03 -0.79611823397E+02  0.18060746639E+03  0.30000000000E+02 0. -1.
     200000    1    3    3    0    0  0.72461950473E+02 -0.51789723137E+02 -0.61989644200E+03  0.63435440291E+03  0.10100000000E+03 0.  1.
    -200001    1    1    2    0    0 -0.10754198331E+03 -0.20796761163E+03 -0.53561191810E+03  0.84703301735E+03  0.61300000000E+03 0.  1.
<mgrwt>
<rscale>  0 0.13169729E+04</rscale>
<asrwt>0</asrwt>
<pdfrwt beam="1">  1        2 0.21402921E+00 0.13169729E+04</pdfrwt>
<pdfrwt beam="2">  1       -2 0.41345147E-01 0.13169729E+04</pdfrwt>
<totfact> 0.79493408E+01</totfact>
</mgrwt>
</event>
<event>
 8    1  0.7685004E-052  0.2074618E+04  0.7818608E-02  0.8572507E-01
          2   -1    0    0  501    0  0.00000000000E+00  0.00000000000E+00  0.51323382921E+03  0.51323382922E+03  0.25500000000E-02 0.  1.
         -2   -1    0    0    0  501 -0.00000000000E+00 -0.00000000000E+00 -0.20965298224E+04  0.20965298224E+04  0.25500000000E-02 0. -1.
     200001    2    1    2    0    0  0.11790498782E+03 -0.65894832158E+03 -0.14200235263E+04  0.16875156507E+04  0.61897316544E+03 0.  0.
    5000001    2    3    3    0    0 -0.11915739959E+03 -0.25426075843E+03 -0.10268120064E+04  0.10672037141E+04  0.75722201868E+02 0.  0.
        -13    1    4    4    0    0 -0.50013865248E+02 -0.46664319277E+02 -0.29287725224E+03  0.30075910868E+03  0.10566000000E+00 0. -1.
     200003    1    4    4    0    0 -0.69143534340E+02 -0.20759643915E+03 -0.73393475413E+03  0.76644460544E+03  0.30000000000E+02 0. -1.
     200000    1    3    3    0    0  0.23706238741E+03 -0.40468756315E+03 -0.39321151995E+03  0.62031193662E+03  0.10100000000E+03 0. -1.
    -200001    1    1    2    0    0 -0.11790498782E+03  0.65894832158E+03 -0.16327246687E+03  0.92224800087E+03  0.61300000000E+03 0.  1.
<mgrwt>
<rscale>  0 0.20746181E+04</rscale>
<asrwt>0</asrwt>
<pdfrwt beam="1">  1        2 0.73319120E-01 0.20746181E+04</pdfrwt>
<pdfrwt beam="2">  1       -2 0.29950426E+00 0.20746181E+04</pdfrwt>
<totfact> 0.19340238E+00</totfact>
</mgrwt>
</event>
<event>
 8    1  0.7685004E-052  0.2922857E+04  0.7818608E-02  0.8266109E-01
          2   -1    0    0  501    0  0.00000000000E+00  0.00000000000E+00  0.25394208453E+04  0.25394208453E+04  0.25500000000E-02 0.  1.
         -2   -1    0    0    0  501 -0.00000000000E+00 -0.00000000000E+00 -0.84104757743E+03  0.84104757743E+03  0.25500000000E-02 0. -1.
     200001    2    1    2    0    0  0.10364210683E+03  0.70478508013E+03  0.21428948905E+04  0.23408376380E+04  0.61648896177E+03 0.  0.
    5000001    2    3    3    0    0 -0.72339886370E+02  0.47179821544E+03  0.63172810983E+03  0.79841143871E+03  0.10273171596E+03 0.  0.
        -13    1    4    4    0    0 -0.75394733856E+02  0.23580156561E+03  0.27965114360E+03  0.37348563228E+03  0.10566000000E+00 0. -1.
     200003    1    4    4    0    0  0.30548474857E+01  0.23599664984E+03  0.35207696623E+03  0.42492580644E+03  0.30000000000E+02 0. -1.
     200000    1    3    3    0    0  0.17598199320E+03  0.23298686469E+03  0.15111667807E+04  0.15424261993E+04  0.10100000000E+03 0.  1.
    -200001    1    1    2    0    0 -0.10364210683E+03 -0.70478508013E+03 -0.44452162270E+03  0.10396307847E+04  0.61300000000E+03 0. -1.
<mgrwt>
<rscale>  0 0.29228573E+04</rscale>
<asrwt>0</asrwt>
<pdfrwt beam="1">  1        2 0.36277440E+00 0.29228573E+04</pdfrwt>
<pdfrwt beam="2">  1       -2 0.12014966E+00 0.29228573E+04</pdfrwt>
<totfact> 0.19296810E+00</totfact>
</mgrwt>
</event>
<event>
 8    1  0.7685004E-052  0.1234188E+04  0.7818608E-02  0.9083447E-01
          2   -1    0    0  501    0  0.00000000000E+00  0.00000000000E+00  0.10316174821E+04  0.10316174821E+04  0.25500000000E-02 0.  1.
         -2   -1    0    0    0  501 -0.00000000000E+00 -0.00000000000E+00 -0.36913392725E+03  0.36913392726E+03  0.25500000000E-02 0. -1.
     200001    2    1    2    0    0  0.30956557568E+02 -0.45353842468E+02  0.27723514995E+03  0.67466559282E+03  0.61261656384E+03 0.  0.
    5000001    2    3    3    0    0  0.34729624891E+02 -0.30107813269E+03  0.24324680640E+03  0.39759997579E+03  0.84038937985E+02 0.  0.
        -13    1    4    4    0    0  0.20916319848E+01  0.28026453012E+01  0.13845259624E+02  0.14280480493E+02  0.10566000000E+00 0. -1.
     200003    1    4    4    0    0  0.32637992906E+02 -0.30388077799E+03  0.22940154678E+03  0.38331949530E+03  0.30000000000E+02 0. -1.
     200000    1    3    3    0    0 -0.37730673232E+01  0.25572429022E+03  0.33988343548E+02  0.27706561703E+03  0.10100000000E+03 0. -1.
    -200001    1    1    2    0    0 -0.30956557568E+02  0.45353842468E+02  0.38524840486E+03  0.72608581650E+03  0.61300000000E+03 0.  1.
<mgrwt>
<rscale>  0 0.12341880E+04</rscale>
<asrwt>0</asrwt>
<pdfrwt beam="1">  1        2 0.14737393E+00 0.12341880E+04</pdfrwt>
<pdfrwt beam="2">  1       -2 0.52733418E-01 0.12341880E+04</pdfrwt>
<totfact> 0.89728781E+01</totfact>
</mgrwt>
</event>
<event>
 8    1  0.7685004E-052  0.1500558E+04  0.7818608E-02  0.8884082E-01
         -2   -1    0    0    0  501 -0.00000000000E+00  0.00000000000E+00  0.26576511279E+03  0.26576511280E+03  0.25500000000E-02 0.  1.
          2   -1    0    0  501    0  0.00000000000E+00 -0.00000000000E+00 -0.21181066549E+04  0.21181066549E+04  0.25500000000E-02 0. -1.
     200001    2    1    2    0    0 -0.37255690197E+03 -0.64665399501E+02 -0.59219377932E+03  0.93241675870E+03  0.61296597014E+03 0.  0.
    5000001    2    3    3    0    0 -0.16632840735E+03 -0.12760464232E+03  0.65730621683E+02  0.23273321758E+03  0.76786405745E+02 0.  0.
        -13    1    4    4    0    0 -0.71523221244E+02 -0.48267514642E+02  0.60561132497E+02  0.10541814872E+03  0.10566000000E+00 0. -1.
     200003    1    4    4    0    0 -0.94805186104E+02 -0.79337127677E+02  0.51694891858E+01  0.12731506886E+03  0.30000000000E+02 0. -1.
     200000    1    3    3    0    0 -0.20622849462E+03  0.62939242819E+02 -0.65792440100E+03  0.69968354112E+03  0.10100000000E+03 0. -1.
    -200001    1    1    2    0    0  0.37255690197E+03  0.64665399501E+02 -0.12601477628E+04  0.14514550090E+04  0.61300000000E+03 0.  1.
<mgrwt>
<rscale>  0 0.15005584E+04</rscale>
<asrwt>0</asrwt>
<pdfrwt beam="1">  1        2 0.30258666E+00 0.15005584E+04</pdfrwt>
<pdfrwt beam="2">  1       -2 0.37966446E-01 0.15005584E+04</pdfrwt>
<totfact> 0.44183491E+01</totfact>
</mgrwt>
</event>
<event>
 8    1  0.7685004E-052  0.1456163E+04  0.7818608E-02  0.8914139E-01
         -2   -1    0    0    0  501 -0.00000000000E+00  0.00000000000E+00  0.40737440153E+03  0.40737440154E+03  0.25500000000E-02 0.  1.
          2   -1    0    0  501    0  0.00000000000E+00 -0.00000000000E+00 -0.13012665712E+04  0.13012665712E+04  0.25500000000E-02 0. -1.
     200001    2    1    2    0    0  0.35344717255E+03  0.14483554623E+03 -0.55699861252E+03  0.91166637588E+03  0.61236091264E+03 0.  0.
    5000001    2    3    3    0    0  0.25371290098E+03  0.79878066509E+02 -0.66473296264E+03  0.72199800927E+03  0.93061657731E+02 0.  0.
        -13    1    4    4    0    0  0.23101307954E+03  0.74263626264E+02 -0.59473142184E+03  0.64232982524E+03  0.10566000000E+00 0. -1.
     200003    1    4    4    0    0  0.22699821448E+02  0.56144402454E+01 -0.70001540792E+02  0.79668184028E+02  0.30000000000E+02 0.  1.
     200000    1    3    3    0    0  0.99734271571E+02  0.64957479719E+02  0.10773435012E+03  0.18966836661E+03  0.10100000000E+03 0.  1.
    -200001    1    1    2    0    0 -0.35344717255E+03 -0.14483554623E+03 -0.33689355719E+03  0.79697459691E+03  0.61300000000E+03 0. -1.
<mgrwt>
<rscale>  0 0.14561630E+04</rscale>
<asrwt>0</asrwt>
<pdfrwt beam="1">  1        2 0.18589522E+00 0.14561630E+04</pdfrwt>
<pdfrwt beam="2">  1       -2 0.58196344E-01 0.14561630E+04</pdfrwt>
<totfact> 0.50252626E+01</totfact>
</mgrwt>
</event>
<event>
 8    1  0.7685004E-052  0.1963663E+04  0.7818608E-02  0.8623800E-01
          2   -1    0    0  501    0  0.00000000000E+00  0.00000000000E+00  0.13711901940E+04  0.13711901940E+04  0.25500000000E-02 0.  1.
         -2   -1    0    0    0  501 -0.00000000000E+00 -0.00000000000E+00 -0.70303398824E+03  0.70303398824E+03  0.25500000000E-02 0. -1.
     200001    2    1    2    0    0 -0.43336116860E+03  0.40018580703E+03  0.85182938299E+03  0.12039050347E+04  0.61304441288E+03 0.  0.
    5000001    2    3    3    0    0  0.13228124592E+03  0.55263209201E+02  0.82131717393E+02  0.18333733185E+03  0.79464507401E+02 0.  0.
        -13    1    4    4    0    0  0.11822664573E+03  0.29919074902E+02  0.65518294034E+02  0.13843897146E+03  0.10566000000E+00 0. -1.
     200003    1    4    4    0    0  0.14054600189E+02  0.25344134299E+02  0.16613423358E+02  0.44898360388E+02  0.30000000000E+02 0.  1.
     200000    1    3    3    0    0 -0.56564241452E+03  0.34492259782E+03  0.76969766560E+03  0.10205677028E+04  0.10100000000E+03 0.  1.
    -200001    1    1    2    0    0  0.43336116860E+03 -0.40018580703E+03 -0.18367317723E+03  0.87031914757E+03  0.61300000000E+03 0. -1.
<mgrwt>
<rscale>  0 0.19636632E+04</rscale>
<asrwt>0</asrwt>
<pdfrwt beam="1">  1        2 0.19588431E+00 0.19636632E+04</pdfrwt>
<pdfrwt beam="2">  1       -2 0.10043343E+00 0.19636632E+04</pdfrwt>
<totfact> 0.13120090E+01</totfact>
</mgrwt>
</event>
<event>
 8    1  0.7685004E-052  0.1458742E+04  0.7818608E-02  0.8912362E-01
          2   -1    0    0  501    0  0.00000000000E+00  0.00000000000E+00  0.16783830442E+04  0.16783830442E+04  0.25500000000E-02 0.  1.
         -2   -1    0    0    0  501 -0.00000000000E+00 -0.00000000000E+00 -0.31696118300E+03  0.31696118301E+03  0.25500000000E-02 0. -1.
     200001    2    1    2    0    0 -0.20790663491E+03 -0.12929675964E+03  0.11047617047E+04  0.12871166812E+04  0.61337436052E+03 0.  0.
    5000001    2    3    3    0    0 -0.27427173406E+03  0.34893770856E+02  0.94696077260E+03  0.10293086308E+04  0.29376690307E+03 0.  0.
        -13    1    4    4    0    0  0.30496986742E+02 -0.35835203049E+02  0.21130064913E+02  0.51582155686E+02  0.10566000000E+00 0. -1.
     200003    1    4    4    0    0 -0.30476872080E+03  0.70728973905E+02  0.92583070768E+03  0.97772647515E+03  0.30000000000E+02 0. -1.
     200000    1    3    3    0    0  0.66365099147E+02 -0.16419053050E+03  0.15780093207E+03  0.25780805040E+03  0.10100000000E+03 0.  1.
    -200001    1    1    2    0    0  0.20790663491E+03  0.12929675964E+03  0.25666015650E+03  0.70822754594E+03  0.61300000000E+03 0. -1.
<mgrwt>
<rscale>  0 0.14587423E+04</rscale>
<asrwt>0</asrwt>
<pdfrwt beam="1">  1        2 0.23976901E+00 0.14587423E+04</pdfrwt>
<pdfrwt beam="2">  1       -2 0.45280168E-01 0.14587423E+04</pdfrwt>
<totfact> 0.52822292E+01</totfact>
</mgrwt>
</event>
<event>
 8    1  0.7685004E-052  0.1278458E+04  0.7818608E-02  0.9046824E-01
         -2   -1    0    0    0  501 -0.00000000000E+00  0.00000000000E+00  0.41932371422E+03  0.41932371423E+03  0.25500000000E-02 0. -1.
          2   -1    0    0  501    0  0.00000000000E+00 -0.00000000000E+00 -0.97445939667E+03  0.97445939667E+03  0.25500000000E-02 0.  1.
     200001    2    1    2    0    0 -0.76341838742E+02 -0.11776540799E+03 -0.14851413591E+03  0.64491272841E+03  0.61168554915E+03 0.  0.
    5000001    2    3    3    0    0 -0.11112117750E+03  0.18672716698E+03 -0.21443604983E+03  0.31556180712E+03  0.79884189095E+02 0.  0.
        -13    1    4    4    0    0 -0.65499130324E+02  0.11401109664E+03 -0.82163142243E+02  0.15504663601E+03  0.10566000000E+00 0. -1.
     200003    1    4    4    0    0 -0.45622047175E+02  0.72716070335E+02 -0.13227290759E+03  0.16051517111E+03  0.30000000000E+02 0. -1.
     200000    1    3    3    0    0  0.34779338757E+02 -0.30449257497E+03  0.65921913928E+02  0.32935092129E+03  0.10100000000E+03 0. -1.
    -200001    1    1    2    0    0  0.76341838742E+02  0.11776540799E+03 -0.40662154655E+03  0.74887038249E+03  0.61300000000E+03 0.  1.
<mgrwt>
<rscale>  0 0.12784583E+04</rscale>
<asrwt>0</asrwt>
<pdfrwt beam="1">  1        2 0.13920848E+00 0.12784583E+04</pdfrwt>
<pdfrwt beam="2">  1       -2 0.59903388E-01 0.12784583E+04</pdfrwt>
<totfact> 0.74387857E+01</totfact>
</mgrwt>
</event>
<event>
 8    1  0.7685004E-052  0.1265479E+04  0.7818608E-02  0.9057397E-01
          2   -1    0    0  501    0  0.00000000000E+00  0.00000000000E+00  0.35234434817E+04  0.35234434817E+04  0.25500000000E-02 0.  1.
         -2   -1    0    0    0  501 -0.00000000000E+00 -0.00000000000E+00 -0.11362736011E+03  0.11362736014E+03  0.25500000000E-02 0. -1.
     200001    2    1    2    0    0  0.12542789891E+03  0.26069560894E+02  0.19668950962E+04  0.20641112539E+04  0.61275375895E+03 0.  0.
    5000001    2    3    3    0    0  0.33011954208E+03  0.13421592663E+03  0.11227147308E+04  0.11829553117E+04  0.10909663413E+03 0.  0.
        -13    1    4    4    0    0  0.26297478471E+03  0.12478201832E+03  0.78579782763E+03  0.83797644750E+03  0.10566000000E+00 0. -1.
     200003    1    4    4    0    0  0.67144757365E+02  0.94339083094E+01  0.33691690319E+03  0.34497886417E+03  0.30000000000E+02 0. -1.
     200000    1    3    3    0    0 -0.20469164317E+03 -0.10814636574E+03  0.84418036538E+03  0.88115594221E+03  0.10100000000E+03 0.  1.
    -200001    1    1    2    0    0 -0.12542789891E+03 -0.26069560894E+02  0.14429210254E+04  0.15729595879E+04  0.61300000000E+03 0. -1.
<mgrwt>
<rscale>  0 0.12654795E+04</rscale>
<asrwt>0</asrwt>
<pdfrwt beam="1">  1        2 0.50334904E+00 0.12654795E+04</pdfrwt>
<pdfrwt beam="2">  1       -2 0.16232481E-01 0.12654795E+04</pdfrwt>
<totfact> 0.35742947E+01</totfact>
</mgrwt>
</event>
<event>
 8    1  0.7685004E-052  0.1374767E+04  0.7818608E-02  0.8972289E-01
         -2   -1    0    0    0  501 -0.00000000000E+00  0.00000000000E+00  0.24966128520E+03  0.24966128521E+03  0.25500000000E-02 0. -1.
          2   -1    0    0  501    0  0.00000000000E+00 -0.00000000000E+00 -0.18925476048E+04  0.18925476048E+04  0.25500000000E-02 0.  1.
     200001    2    1    2    0    0  0.22701606293E+03 -0.12950572994E+03 -0.10841434982E+04  0.12725707082E+04  0.61299352004E+03 0.  0.
    5000001    2    3    3    0    0 -0.16911771718E+03 -0.72138166551E+02 -0.34286000170E+03  0.42409252265E+03  0.16880986246E+03 0.  0.
        -13    1    4    4    0    0 -0.38082595852E+02 -0.10064020242E+03 -0.19149609851E+03  0.21965769132E+03  0.10566000000E+00 0. -1.
     200003    1    4    4    0    0 -0.13103512133E+03  0.28502035868E+02 -0.15136390319E+03  0.20443483133E+03  0.30000000000E+02 0. -1.
     200000    1    3    3    0    0  0.39613378010E+03 -0.57367563392E+02 -0.74128349653E+03  0.84847818552E+03  0.10100000000E+03 0.  1.
    -200001    1    1    2    0    0 -0.22701606293E+03  0.12950572994E+03 -0.55874282141E+03  0.86963818188E+03  0.61300000000E+03 0. -1.
<mgrwt>
<rscale>  0 0.13747667E+04</rscale>
<asrwt>0</asrwt>
<pdfrwt beam="1">  1        2 0.27036393E+00 0.13747667E+04</pdfrwt>
<pdfrwt beam="2">  1       -2 0.35665899E-01 0.13747667E+04</pdfrwt>
<totfact> 0.65715731E+01</totfact>
</mgrwt>
</event>
<event>
 8    1  0.7685004E-052  0.1323502E+04  0.7818608E-02  0.9011133E-01
         -2   -1    0    0    0  501 -0.00000000000E+00  0.00000000000E+00  0.18837359052E+03  0.18837359053E+03  0.25500000000E-02 0. -1.
          2   -1    0    0  501    0  0.00000000000E+00 -0.00000000000E+00 -0.23247105023E+04  0.23247105023E+04  0.25500000000E-02 0.  1.
     200001    2    1    2    0    0  0.15507777155E+03 -0.61588704149E+02 -0.71812892159E+03  0.95908113686E+03  0.61342089576E+03 0.  0.
    5000001    2    3    3    0    0  0.18184081870E+03  0.89856195584E+02 -0.60088371963E+03  0.74090860025E+03  0.38307191255E+03 0.  0.
        -13    1    4    4    0    0  0.25293632426E+03  0.16439481360E+03 -0.53730586601E+03  0.61619805557E+03  0.10566000000E+00 0. -1.
     200003    1    4    4    0    0 -0.71095505555E+02 -0.74538618017E+02 -0.63577853615E+02  0.12471054469E+03  0.30000000000E+02 0. -1.
     200000    1    3    3    0    0 -0.26763047147E+02 -0.15144489973E+03 -0.11724520196E+03  0.21817253661E+03  0.10100000000E+03 0. -1.
    -200001    1    1    2    0    0 -0.15507777155E+03  0.61588704149E+02 -0.14182079902E+04  0.15540029560E+04  0.61300000000E+03 0.  1.
<mgrwt>
<rscale>  0 0.13235015E+04</rscale>
<asrwt>0</asrwt>
<pdfrwt beam="1">  1        2 0.33210148E+00 0.13235015E+04</pdfrwt>
<pdfrwt beam="2">  1       -2 0.26910514E-01 0.13235015E+04</pdfrwt>
<totfact> 0.67015316E+01</totfact>
</mgrwt>
</event>
<event>
 8    1  0.7685004E-052  0.2074153E+04  0.7818608E-02  0.8572715E-01
         -2   -1    0    0    0  501 -0.00000000000E+00  0.00000000000E+00  0.11493193364E+04  0.11493193364E+04  0.25500000000E-02 0. -1.
          2   -1    0    0  501    0  0.00000000000E+00 -0.00000000000E+00 -0.93579546955E+03  0.93579546955E+03  0.25500000000E-02 0.  1.
     200001    2    1    2    0    0 -0.57780939323E+03 -0.60291916633E+03  0.13217660068E+03  0.10459990310E+04  0.61584746743E+03 0.  0.
    5000001    2    3    3    0    0  0.69471296395E+02 -0.14325016539E+03 -0.22907333223E+02  0.23081812588E+03  0.16554573510E+03 0.  0.
        -13    1    4    4    0    0  0.38215921063E+02 -0.11588389726E+03 -0.86187949646E+02  0.14939179394E+03  0.10566000000E+00 0. -1.
     200003    1    4    4    0    0  0.31255375332E+02 -0.27366268129E+02  0.63280616423E+02  0.81426331941E+02  0.30000000000E+02 0. -1.
     200000    1    3    3    0    0 -0.64728068963E+03 -0.45966900094E+03  0.15508393390E+03  0.81518090516E+03  0.10100000000E+03 0.  1.
    -200001    1    1    2    0    0  0.57780939323E+03  0.60291916633E+03  0.81347266208E+02  0.10391157750E+04  0.61300000000E+03 0. -1.
<mgrwt>
<rscale>  0 0.20741532E+04</rscale>
<asrwt>0</asrwt>
<pdfrwt beam="1">  1        2 0.13368507E+00 0.20741532E+04</pdfrwt>
<pdfrwt beam="2">  1       -2 0.16418848E+00 0.20741532E+04</pdfrwt>
<totfact> 0.67065867E+00</totfact>
</mgrwt>
</event>
<event>
 8    1  0.7685004E-052  0.2469726E+04  0.7818608E-02  0.8413851E-01
         -2   -1    0    0    0  501 -0.00000000000E+00  0.00000000000E+00  0.80225860715E+03  0.80225860715E+03  0.25500000000E-02 0.  1.
          2   -1    0    0  501    0  0.00000000000E+00 -0.00000000000E+00 -0.19007425615E+04  0.19007425615E+04  0.25500000000E-02 0. -1.
     200001    2    1    2    0    0 -0.82544351250E+03 -0.68335984500E+03 -0.51183496185E+03  0.13361567333E+04  0.61237416483E+03 0.  0.
    5000001    2    3    3    0    0 -0.37712145091E+03  0.14851843804E+02 -0.69050388059E+02  0.39024372883E+03  0.71281454787E+02 0.  0.
        -13    1    4    4    0    0 -0.20071275031E+02 -0.86227422076E+01  0.75023334530E+01  0.23097704124E+02  0.10566000000E+00 0. -1.
     200003    1    4    4    0    0 -0.35705017588E+03  0.23474586011E+02 -0.76552721512E+02  0.36714602470E+03  0.30000000000E+02 0. -1.
     200000    1    3    3    0    0 -0.44832206159E+03 -0.69821168880E+03 -0.44278457380E+03  0.94591300450E+03  0.10100000000E+03 0.  1.
    -200001    1    1    2    0    0  0.82544351250E+03  0.68335984500E+03 -0.58664899254E+03  0.13668444354E+04  0.61300000000E+03 0. -1.
<mgrwt>
<rscale>  0 0.24697264E+04</rscale>
<asrwt>0</asrwt>
<pdfrwt beam="1">  1        2 0.27153465E+00 0.24697264E+04</pdfrwt>
<pdfrwt beam="2">  1       -2 0.11460837E+00 0.24697264E+04</pdfrwt>
<totfact> 0.48277924E+00</totfact>
</mgrwt>
</event>
<event>
 8    1  0.7685004E-052  0.1520654E+04  0.7818608E-02  0.8870833E-01
          2   -1    0    0  501    0  0.00000000000E+00  0.00000000000E+00  0.16719633295E+04  0.16719633295E+04  0.25500000000E-02 0.  1.
         -2   -1    0    0    0  501 -0.00000000000E+00 -0.00000000000E+00 -0.34575954939E+03  0.34575954940E+03  0.25500000000E-02 0. -1.
     200001    2    1    2    0    0  0.38189659434E+03  0.21718202359E+03  0.76795686120E+03  0.10794150069E+04  0.61835748271E+03 0.  0.
    5000001    2    3    3    0    0 -0.12406549688E+03  0.50558231766E+02  0.10294519323E+03  0.22139248726E+03  0.14306829940E+03 0.  0.
        -13    1    4    4    0    0  0.15207629171E+02 -0.26753191605E+02  0.28970319376E+01  0.30909694339E+02  0.10566000000E+00 0. -1.
     200003    1    4    4    0    0 -0.13927312605E+03  0.77311423371E+02  0.10004816129E+03  0.19048279292E+03  0.30000000000E+02 0. -1.
     200000    1    3    3    0    0  0.50596209121E+03  0.16662379182E+03  0.66501166797E+03  0.85802251968E+03  0.10100000000E+03 0.  1.
    -200001    1    1    2    0    0 -0.38189659434E+03 -0.21718202359E+03  0.55824691893E+03  0.93830787199E+03  0.61300000000E+03 0. -1.
<mgrwt>
<rscale>  0 0.15206542E+04</rscale>
<asrwt>0</asrwt>
<pdfrwt beam="1">  1        2 0.23885190E+00 0.15206542E+04</pdfrwt>
<pdfrwt beam="2">  1       -2 0.49394221E-01 0.15206542E+04</pdfrwt>
<totfact> 0.44460751E+01</totfact>
</mgrwt>
</event>
<event>
 8    1  0.7685004E-052  0.2279076E+04  0.7818608E-02  0.8486217E-01
          2   -1    0    0  501    0  0.00000000000E+00  0.00000000000E+00  0.14186787285E+04  0.14186787285E+04  0.25500000000E-02 0.  1.
         -2   -1    0    0    0  501 -0.00000000000E+00 -0.00000000000E+00 -0.91532160207E+03  0.91532160207E+03  0.25500000000E-02 0. -1.
     200001    2    1    2    0    0 -0.11306150852E+02  0.96017366890E+03  0.22126613167E+03  0.11603710736E+04  0.61273242441E+03 0.  0.
    5000001    2    3    3    0    0  0.77715082245E+02  0.19409808563E+03 -0.17181588622E+03  0.28887176092E+03  0.10105688814E+03 0.  0.
        -13    1    4    4    0    0  0.81972650317E+02  0.17675963482E+03 -0.12921965930E+03  0.23379738111E+03  0.10566000000E+00 0. -1.
     200003    1    4    4    0    0 -0.42575680721E+01  0.17338450815E+02 -0.42596226922E+02  0.55074379801E+02  0.30000000000E+02 0. -1.
     200000    1    3    3    0    0 -0.89021233096E+02  0.76607558326E+03  0.39308201789E+03  0.87149931268E+03  0.10100000000E+03 0. -1.
    -200001    1    1    2    0    0  0.11306150852E+02 -0.96017366890E+03  0.28209099476E+03  0.11736292570E+04  0.61300000000E+03 0.  1.
<mgrwt>
<rscale>  0 0.22790764E+04</rscale>
<asrwt>0</asrwt>
<pdfrwt beam="1">  1        2 0.20266839E+00 0.22790764E+04</pdfrwt>
<pdfrwt beam="2">  1       -2 0.13076023E+00 0.22790764E+04</pdfrwt>
<totfact> 0.63154356E+00</totfact>
</mgrwt>
</event>
<event>
 8    1  0.7685004E-052  0.1580705E+04  0.7818608E-02  0.8832490E-01
          2   -1    0    0  501    0  0.00000000000E+00  0.00000000000E+00  0.46636748465E+03  0.46636748466E+03  0.25500000000E-02 0.  1.
         -2   -1    0    0    0  501 -0.00000000000E+00 -0.00000000000E+00 -0.13394094792E+04  0.13394094792E+04  0.25500000000E-02 0. -1.
     200001    2    1    2    0    0 -0.25439621364E+01  0.31092931536E+03  0.82784030752E+01  0.68811057616E+03  0.61379485349E+03 0.  0.
    5000001    2    3    3    0    0  0.14032597429E+03  0.30925509028E+03  0.22169328853E+03  0.41213678194E+03  0.73339777220E+02 0.  0.
        -13    1    4    4    0    0  0.42287339252E+02  0.94908077181E+02  0.33943952311E+02  0.10930674836E+03  0.10566000000E+00 0. -1.
     200003    1    4    4    0    0  0.98038635040E+02  0.21434701310E+03  0.18774933622E+03  0.30283003358E+03  0.30000000000E+02 0. -1.
     200000    1    3    3    0    0 -0.14286993643E+03  0.16742250772E+01 -0.21341488545E+03  0.27597379422E+03  0.10100000000E+03 0. -1.
    -200001    1    1    2    0    0  0.25439621364E+01 -0.31092931536E+03 -0.88132039759E+03  0.11176663877E+04  0.61300000000E+03 0. -1.
<mgrwt>
<rscale>  0 0.15807049E+04</rscale>
<asrwt>0</asrwt>
<pdfrwt beam="1">  1        2 0.66623927E-01 0.15807049E+04</pdfrwt>
<pdfrwt beam="2">  1       -2 0.19134421E+00 0.15807049E+04</pdfrwt>
<totfact> 0.10613805E+01</totfact>
</mgrwt>
</event>
<event>
 8    1  0.7685004E-052  0.1282306E+04  0.7818608E-02  0.9043715E-01
         -2   -1    0    0    0  501 -0.00000000000E+00  0.00000000000E+00  0.55984148074E+03  0.55984148075E+03  0.25500000000E-02 0. -1.
          2   -1    0    0  501    0  0.00000000000E+00 -0.00000000000E+00 -0.73427462403E+03  0.73427462403E+03  0.25500000000E-02 0.  1.
     200001    2    1    2    0    0  0.11896077523E+03 -0.14156447719E+03 -0.11863290256E+03  0.65140712390E+03  0.61324163936E+03 0.  0.
    5000001    2    3    3    0    0  0.17233351285E+03 -0.17550954616E+03 -0.32177320806E+03  0.41589088126E+03  0.94471092104E+02 0.  0.
        -13    1    4    4    0    0  0.94744591247E+02 -0.74655530721E+02 -0.21732399304E+03  0.24855525533E+03  0.10566000000E+00 0. -1.
     200003    1    4    4    0    0  0.77588921606E+02 -0.10085401544E+03 -0.10444921502E+03  0.16733562593E+03  0.30000000000E+02 0. -1.
     200000    1    3    3    0    0 -0.53372737621E+02  0.33945068978E+02  0.20314030550E+03  0.23551624264E+03  0.10100000000E+03 0. -1.
    -200001    1    1    2    0    0 -0.11896077523E+03  0.14156447719E+03 -0.55800240720E+02  0.64270898088E+03  0.61300000000E+03 0. -1.
<mgrwt>
<rscale>  0 0.12823063E+04</rscale>
<asrwt>0</asrwt>
<pdfrwt beam="1">  1        2 0.10489637E+00 0.12823063E+04</pdfrwt>
<pdfrwt beam="2">  1       -2 0.79977355E-01 0.12823063E+04</pdfrwt>
<totfact> 0.57645604E+01</totfact>
</mgrwt>
</event>
<event>
 8    1  0.7685004E-052  0.1391539E+04  0.7818608E-02  0.8959966E-01
         -2   -1    0    0    0  501 -0.00000000000E+00  0.00000000000E+00  0.11983026483E+03  0.11983026486E+03  0.25500000000E-02 0. -1.
          2   -1    0    0  501    0  0.00000000000E+00 -0.00000000000E+00 -0.40398432823E+04  0.40398432823E+04  0.25500000000E-02 0.  1.
     200001    2    1    2    0    0 -0.25720461253E+03  0.12592548049E+03 -0.14515801698E+04  0.16001929040E+04  0.60952514408E+03 0.  0.
    5000001    2    3    3    0    0 -0.23932769318E+03 -0.20576241061E+03 -0.75546782833E+03  0.82230484437E+03  0.76404862916E+02 0.  0.
        -13    1    4    4    0    0 -0.77788194551E+02 -0.64689663667E+02 -0.16700207337E+03  0.19525741848E+03  0.10566000000E+00 0. -1.
     200003    1    4    4    0    0 -0.16153949863E+03 -0.14107274695E+03 -0.58846575496E+03  0.62704742589E+03  0.30000000000E+02 0.  1.
     200000    1    3    3    0    0 -0.17876919342E+02  0.33168789111E+03 -0.69611234147E+03  0.77788805962E+03  0.10100000000E+03 0.  1.
    -200001    1    1    2    0    0  0.25720461253E+03 -0.12592548049E+03 -0.24684328477E+04  0.25594806432E+04  0.61300000000E+03 0.  1.
<mgrwt>
<rscale>  0 0.13915394E+04</rscale>
<asrwt>0</asrwt>
<pdfrwt beam="1">  1        2 0.57712038E+00 0.13915394E+04</pdfrwt>
<pdfrwt beam="2">  1       -2 0.17118612E-01 0.13915394E+04</pdfrwt>
<totfact> 0.14946385E+01</totfact>
</mgrwt>
</event>
<event>
 8    1  0.7685004E-052  0.1314859E+04  0.7818608E-02  0.9017864E-01
         -2   -1    0    0    0  501 -0.00000000000E+00  0.00000000000E+00  0.75977889220E+03  0.75977889220E+03  0.25500000000E-02 0. -1.
          2   -1    0    0  501    0  0.00000000000E+00 -0.00000000000E+00 -0.56886795633E+03  0.56886795634E+03  0.25500000000E-02 0.  1.
     200001    2    1    2    0    0  0.73849602134E+02 -0.17230583061E+03 -0.54385989777E+02  0.64229224287E+03  0.61191374095E+03 0.  0.
    5000001    2    3    3    0    0  0.29810401057E+03 -0.16131060630E+02  0.38009247246E+02  0.33664787713E+03  0.15086708743E+03 0.  0.
        -13    1    4    4    0    0  0.24988806225E+03 -0.43615509693E+02 -0.15194094123E+02  0.25412049897E+03  0.10566000000E+00 0. -1.
     200003    1    4    4    0    0  0.48215948322E+02  0.27484449063E+02  0.53203341370E+02  0.82527378159E+02  0.30000000000E+02 0. -1.
     200000    1    3    3    0    0 -0.22425440843E+03 -0.15617476998E+03 -0.92395237024E+02  0.30564436573E+03  0.10100000000E+03 0.  1.
    -200001    1    1    2    0    0 -0.73849602134E+02  0.17230583061E+03  0.24529692564E+03  0.68635460567E+03  0.61300000000E+03 0. -1.
<mgrwt>
<rscale>  0 0.13148595E+04</rscale>
<asrwt>0</asrwt>
<pdfrwt beam="1">  1        2 0.81266851E-01 0.13148595E+04</pdfrwt>
<pdfrwt beam="2">  1       -2 0.10853984E+00 0.13148595E+04</pdfrwt>
<totfact> 0.38457506E+01</totfact>
</mgrwt>
</event>
<event>
 8    1  0.7685004E-052  0.1262279E+04  0.7818608E-02  0.9060025E-01
         -2   -1    0    0    0  501 -0.00000000000E+00  0.00000000000E+00  0.48485464704E+03  0.48485464705E+03  0.25500000000E-02 0.  1.
          2   -1    0    0  501    0  0.00000000000E+00 -0.00000000000E+00 -0.82155943200E+03  0.82155943200E+03  0.25500000000E-02 0. -1.
     200001    2    1    2    0    0  0.34044485768E+02 -0.27668506688E+02 -0.31403617887E+03  0.69142835648E+03  0.61443459963E+03 0.  0.
    5000001    2    3    3    0    0  0.29080992465E+03  0.89094826099E+02 -0.12965437538E+03  0.33963322299E+03  0.77667038016E+02 0.  0.
        -13    1    4    4    0    0  0.20314999087E+03  0.48023870798E+02 -0.61932881337E+02  0.21774274710E+03  0.10566000000E+00 0. -1.
     200003    1    4    4    0    0  0.87659933771E+02  0.41070955301E+02 -0.67721494047E+02  0.12189047590E+03  0.30000000000E+02 0.  1.
     200000    1    3    3    0    0 -0.25676543888E+03 -0.11676333279E+03 -0.18438180349E+03  0.35179513348E+03  0.10100000000E+03 0. -1.
    -200001    1    1    2    0    0 -0.34044485768E+02  0.27668506688E+02 -0.22668606083E+02  0.61498572258E+03  0.61300000000E+03 0.  1.
<mgrwt>
<rscale>  0 0.12622787E+04</rscale>
<asrwt>0</asrwt>
<pdfrwt beam="1">  1        2 0.11736563E+00 0.12622787E+04</pdfrwt>
<pdfrwt beam="2">  1       -2 0.69264950E-01 0.12622787E+04</pdfrwt>
<totfact> 0.68725968E+01</totfact>
</mgrwt>
</event>
<event>
 8    1  0.7685004E-052  0.1632779E+04  0.7818608E-02  0.8800660E-01
         -2   -1    0    0    0  501 -0.00000000000E+00  0.00000000000E+00  0.63382065885E+03  0.63382065886E+03  0.25500000000E-02 0. -1.
          2   -1    0    0  501    0  0.00000000000E+00 -0.00000000000E+00 -0.10515464732E+04  0.10515464732E+04  0.25500000000E-02 0.  1.
     200001    2    1    2    0    0 -0.39154785524E+03  0.18061741274E+03 -0.53645681966E+03  0.92655330481E+03  0.62030858012E+03 0.  0.
    5000001    2    3    3    0    0 -0.58583283348E+02  0.15888830299E+03  0.81011204627E+02  0.21746563649E+03  0.10977701884E+03 0.  0.
        -13    1    4    4    0    0 -0.19108860967E+02  0.13407627367E+03  0.23269274351E+02  0.13741566876E+03  0.10566000000E+00 0. -1.
     200003    1    4    4    0    0 -0.39474422381E+02  0.24812029313E+02  0.57741930276E+02  0.80049967726E+02  0.30000000000E+02 0. -1.
     200000    1    3    3    0    0 -0.33296457189E+03  0.21729109752E+02 -0.61746802429E+03  0.70908766832E+03  0.10100000000E+03 0.  1.
    -200001    1    1    2    0    0  0.39154785524E+03 -0.18061741274E+03  0.11873100536E+03  0.75881382721E+03  0.61300000000E+03 0. -1.
<mgrwt>
<rscale>  0 0.16327791E+04</rscale>
<asrwt>0</asrwt>
<pdfrwt beam="1">  1        2 0.15022092E+00 0.16327791E+04</pdfrwt>
<pdfrwt beam="2">  1       -2 0.90545809E-01 0.16327791E+04</pdfrwt>
<totfact> 0.26103887E+01</totfact>
</mgrwt>
</event>
<event>
 8    1  0.7685004E-052  0.1447879E+04  0.7818608E-02  0.8919872E-01
          2   -1    0    0  501    0  0.00000000000E+00  0.00000000000E+00  0.10404851766E+04  0.10404851766E+04  0.25500000000E-02 0.  1.
         -2   -1    0    0    0  501 -0.00000000000E+00 -0.00000000000E+00 -0.50369617884E+03  0.50369617885E+03  0.25500000000E-02 0. -1.
     200001    2    1    2    0    0  0.28560301614E+03  0.11984708878E+03  0.51417938192E+03  0.85700408411E+03  0.61167242531E+03 0.  0.
    5000001    2    3    3    0    0  0.40531620871E+02  0.28068767222E+03  0.38536228518E+03  0.52125935002E+03  0.20683045596E+03 0.  0.
        -13    1    4    4    0    0  0.54463917431E+02 -0.11320732739E+02  0.80163553179E+02  0.97573990971E+02  0.10566000000E+00 0. -1.
     200003    1    4    4    0    0 -0.13932296560E+02  0.29200840496E+03  0.30519873200E+03  0.42368535905E+03  0.30000000000E+02 0. -1.
     200000    1    3    3    0    0  0.24507139527E+03 -0.16084058344E+03  0.12881709673E+03  0.33574473410E+03  0.10100000000E+03 0. -1.
    -200001    1    1    2    0    0 -0.28560301614E+03 -0.11984708878E+03  0.22609615847E+02  0.68717727134E+03  0.61300000000E+03 0. -1.
<mgrwt>
<rscale>  0 0.14478790E+04</rscale>
<asrwt>0</asrwt>
<pdfrwt beam="1">  1        2 0.14864074E+00 0.14478790E+04</pdfrwt>
<pdfrwt beam="2">  1       -2 0.71956598E-01 0.14478790E+04</pdfrwt>
<totfact> 0.45097373E+01</totfact>
</mgrwt>
</event>
<event>
 8    1  0.7685004E-052  0.1860082E+04  0.7818608E-02  0.8674985E-01
         -2   -1    0    0    0  501 -0.00000000000E+00  0.00000000000E+00  0.18893856797E+03  0.18893856799E+03  0.25500000000E-02 0. -1.
          2   -1    0    0  501    0  0.00000000000E+00 -0.00000000000E+00 -0.45780810517E+04  0.45780810517E+04  0.25500000000E-02 0.  1.
     200001    2    1    2    0    0 -0.35839886160E+03 -0.68235522911E+02 -0.67091673070E+03  0.98098243272E+03  0.61570402240E+03 0.  0.
    5000001    2    3    3    0    0 -0.12609421168E+03 -0.27187718248E+02 -0.70596143566E+03  0.72198532079E+03  0.79008433517E+02 0.  0.
        -13    1    4    4    0    0 -0.32848580304E+02 -0.30254763942E+02 -0.34790440586E+03  0.35075898670E+03  0.10566000000E+00 0. -1.
     200003    1    4    4    0    0 -0.93245631373E+02  0.30670456946E+01 -0.35805702979E+03  0.37122633409E+03  0.30000000000E+02 0. -1.
     200000    1    3    3    0    0 -0.23230464992E+03 -0.41047804663E+02  0.35044704960E+02  0.25899711193E+03  0.10100000000E+03 0. -1.
    -200001    1    1    2    0    0  0.35839886160E+03  0.68235522911E+02 -0.37182257530E+04  0.37860371870E+04  0.61300000000E+03 0.  1.
<mgrwt>
<rscale>  0 0.18600818E+04</rscale>
<asrwt>0</asrwt>
<pdfrwt beam="1">  1        2 0.65401151E+00 0.18600818E+04</pdfrwt>
<pdfrwt beam="2">  1       -2 0.26991227E-01 0.18600818E+04</pdfrwt>
<totfact> 0.25046731E+00</totfact>
</mgrwt>
</event>
<event>
 8    1  0.7685004E-052  0.1373071E+04  0.7818608E-02  0.8973545E-01
          2   -1    0    0  501    0  0.00000000000E+00  0.00000000000E+00  0.22932155227E+04  0.22932155227E+04  0.25500000000E-02 0.  1.
         -2   -1    0    0    0  501 -0.00000000000E+00 -0.00000000000E+00 -0.20553290999E+03  0.20553291001E+03  0.25500000000E-02 0. -1.
     200001    2    1    2    0    0 -0.36920915174E+02 -0.11299849745E+03  0.15688852799E+04  0.16869285716E+04  0.60843666036E+03 0.  0.
    5000001    2    3    3    0    0  0.57101593655E+02 -0.15263572938E+03  0.15266827409E+04  0.15372843381E+04  0.76971986651E+02 0.  0.
        -13    1    4    4    0    0  0.50210306338E+02 -0.69038214716E+02  0.55504366964E+03  0.56156997456E+03  0.10566000000E+00 0. -1.
     200003    1    4    4    0    0  0.68912873173E+01 -0.83597514668E+02  0.97163907129E+03  0.97571436351E+03  0.30000000000E+02 0. -1.
     200000    1    3    3    0    0 -0.94022508829E+02  0.39637231939E+02  0.42202538966E+02  0.14964423349E+03  0.10100000000E+03 0. -1.
    -200001    1    1    2    0    0  0.36920915174E+02  0.11299849745E+03  0.51879733278E+03  0.81181986112E+03  0.61300000000E+03 0. -1.
<mgrwt>
<rscale>  0 0.13730714E+04</rscale>
<asrwt>0</asrwt>
<pdfrwt beam="1">  1        2 0.32760224E+00 0.13730714E+04</pdfrwt>
<pdfrwt beam="2">  1       -2 0.29361842E-01 0.13730714E+04</pdfrwt>
<totfact> 0.59013056E+01</totfact>
</mgrwt>
</event>
<event>
 8    1  0.7685004E-052  0.1996192E+04  0.7818608E-02  0.8608403E-01
         -2   -1    0    0    0  501 -0.00000000000E+00  0.00000000000E+00  0.15460669797E+04  0.15460669797E+04  0.25500000000E-02 0. -1.
          2   -1    0    0  501    0  0.00000000000E+00 -0.00000000000E+00 -0.64434159929E+03  0.64434159929E+03  0.25500000000E-02 0.  1.
     200001    2    1    2    0    0 -0.17715856511E+03  0.58671800135E+03  0.99375100565E+03  0.13187085813E+04  0.61304819620E+03 0.  0.
    5000001    2    3    3    0    0  0.10504279467E+03  0.33424675997E+03  0.15786804304E+03  0.39551810129E+03  0.93580789575E+02 0.  0.
        -13    1    4    4    0    0  0.50393447616E+01  0.10754444693E+03  0.79774999770E+02  0.13399725674E+03  0.10566000000E+00 0. -1.
     200003    1    4    4    0    0  0.10000344991E+03  0.22670231304E+03  0.78093043268E+02  0.26152084455E+03  0.30000000000E+02 0. -1.
     200000    1    3    3    0    0 -0.28220135978E+03  0.25247124138E+03  0.83588296262E+03  0.92319048001E+03  0.10100000000E+03 0. -1.
    -200001    1    1    2    0    0  0.17715856511E+03 -0.58671800135E+03 -0.92025625227E+02  0.87169999771E+03  0.61300000000E+03 0.  1.
<mgrwt>
<rscale>  0 0.19961916E+04</rscale>
<asrwt>0</asrwt>
<pdfrwt beam="1">  1        2 0.92048802E-01 0.19961916E+04</pdfrwt>
<pdfrwt beam="2">  1       -2 0.22086671E+00 0.19961916E+04</pdfrwt>
<totfact> 0.45312987E+00</totfact>
</mgrwt>
</event>
<event>
 8    1  0.7685004E-052  0.2843799E+04  0.7818608E-02  0.8289798E-01
         -2   -1    0    0    0  501 -0.00000000000E+00  0.00000000000E+00  0.76422310099E+03  0.76422310099E+03  0.25500000000E-02 0. -1.
          2   -1    0    0  501    0  0.00000000000E+00 -0.00000000000E+00 -0.26455598825E+04  0.26455598825E+04  0.25500000000E-02 0.  1.
     200001    2    1    2    0    0 -0.29228779453E+03 -0.11097863040E+04 -0.25096061467E+03  0.13238891125E+04  0.61044521191E+03 0.  0.
    5000001    2    3    3    0    0 -0.22862024853E+03 -0.73774760557E+03 -0.43727956661E+03  0.89101256961E+03  0.78429791920E+02 0.  0.
        -13    1    4    4    0    0 -0.18249419232E+03 -0.62045160580E+03 -0.36752273014E+03  0.74386644884E+03  0.10566000000E+00 0. -1.
     200003    1    4    4    0    0 -0.46126056213E+02 -0.11729599977E+03 -0.69756836471E+02  0.14714612077E+03  0.30000000000E+02 0.  1.
     200000    1    3    3    0    0 -0.63667545993E+02 -0.37203869848E+03  0.18631895194E+03  0.43287654294E+03  0.10100000000E+03 0. -1.
    -200001    1    1    2    0    0  0.29228779453E+03  0.11097863040E+04 -0.16303761669E+04  0.20858938710E+04  0.61300000000E+03 0.  1.
<mgrwt>
<rscale>  0 0.28437989E+04</rscale>
<asrwt>0</asrwt>
<pdfrwt beam="1">  1        2 0.37793712E+00 0.28437989E+04</pdfrwt>
<pdfrwt beam="2">  1       -2 0.10917473E+00 0.28437989E+04</pdfrwt>
<totfact> 0.21539909E+00</totfact>
</mgrwt>
</event>
<event>
 8    1  0.7685004E-052  0.1281929E+04  0.7818608E-02  0.9044020E-01
         -2   -1    0    0    0  501 -0.00000000000E+00  0.00000000000E+00  0.22866488357E+03  0.22866488359E+03  0.25500000000E-02 0. -1.
          2   -1    0    0  501    0  0.00000000000E+00 -0.00000000000E+00 -0.17966707535E+04  0.17966707535E+04  0.25500000000E-02 0.  1.
     200001    2    1    2    0    0 -0.12255230251E+03  0.10811082493E+03 -0.63998583849E+03  0.90119276536E+03  0.61307382063E+03 0.  0.
    5000001    2    3    3    0    0 -0.25810430611E+03 -0.15961313523E+03 -0.38512086873E+03  0.49473536620E+03  0.65960694858E+02 0.  0.
        -13    1    4    4    0    0 -0.11284431692E+03 -0.43103632450E+02 -0.12994352463E+03  0.17741785071E+03  0.10566000000E+00 0. -1.
     200003    1    4    4    0    0 -0.14525998919E+03 -0.11650950278E+03 -0.25517734409E+03  0.31731751549E+03  0.30000000000E+02 0. -1.
     200000    1    3    3    0    0  0.13555200360E+03  0.26772396015E+03 -0.25486496977E+03  0.40645739916E+03  0.10100000000E+03 0. -1.
    -200001    1    1    2    0    0  0.12255230251E+03 -0.10811082493E+03 -0.92802003145E+03  0.11241428717E+04  0.61300000000E+03 0.  1.
<mgrwt>
<rscale>  0 0.12819290E+04</rscale>
<asrwt>0</asrwt>
<pdfrwt beam="1">  1        2 0.25666724E+00 0.12819290E+04</pdfrwt>
<pdfrwt beam="2">  1       -2 0.32666413E-01 0.12819290E+04</pdfrwt>
<totfact> 0.87608631E+01</totfact>
</mgrwt>
</event>
<event>
 8    1  0.7685004E-052  0.1794718E+04  0.7818608E-02  0.8709113E-01
         -2   -1    0    0    0  501 -0.00000000000E+00  0.00000000000E+00  0.13019501374E+04  0.13019501374E+04  0.25500000000E-02 0. -1.
          2   -1    0    0  501    0  0.00000000000E+00 -0.00000000000E+00 -0.61849793108E+03  0.61849793108E+03  0.25500000000E-02 0.  1.
     200001    2    1    2    0    0  0.65173039869E+03 -0.60293799527E+02  0.30752442840E+03  0.94809085578E+03  0.61312082162E+03 0.  0.
    5000001    2    3    3    0    0  0.58112863823E+03  0.98507564404E+02  0.17220742770E+02  0.59499071183E+03  0.79392435208E+02 0.  0.
        -13    1    4    4    0    0  0.32897255931E+03  0.80131257483E+02 -0.11438333933E+02  0.33878431169E+03  0.10566000000E+00 0. -1.
     200003    1    4    4    0    0  0.25215607892E+03  0.18376306920E+02  0.28659076703E+02  0.25620640014E+03  0.30000000000E+02 0. -1.
     200000    1    3    3    0    0  0.70601760468E+02 -0.15880136393E+03  0.29030368563E+03  0.35310014395E+03  0.10100000000E+03 0. -1.
    -200001    1    1    2    0    0 -0.65173039869E+03  0.60293799527E+02  0.37592777788E+03  0.97235721267E+03  0.61300000000E+03 0. -1.
<mgrwt>
<rscale>  0 0.17947183E+04</rscale>
<asrwt>0</asrwt>
<pdfrwt beam="1">  1        2 0.88356848E-01 0.17947183E+04</pdfrwt>
<pdfrwt beam="2">  1       -2 0.18599288E+00 0.17947183E+04</pdfrwt>
<totfact> 0.81708119E+00</totfact>
</mgrwt>
</event>
<event>
 8    1  0.7685004E-052  0.1489985E+04  0.7818608E-02  0.8891140E-01
          2   -1    0    0  501    0  0.00000000000E+00  0.00000000000E+00  0.34652947497E+03  0.34652947498E+03  0.25500000000E-02 0.  1.
         -2   -1    0    0    0  501 -0.00000000000E+00 -0.00000000000E+00 -0.16016347674E+04  0.16016347674E+04  0.25500000000E-02 0. -1.
     200001    2    1    2    0    0 -0.29582746333E+03  0.23528758902E+03 -0.37949070668E+03  0.81443409795E+03  0.61352715167E+03 0.  0.
    5000001    2    3    3    0    0 -0.42847923856E+03  0.30517884744E+03 -0.22867104282E+03  0.57900076879E+03  0.78885091310E+02 0.  0.
        -13    1    4    4    0    0 -0.25981916061E+03  0.14830738501E+03 -0.11646801066E+03  0.32103875987E+03  0.10566000000E+00 0. -1.
     200003    1    4    4    0    0 -0.16866007795E+03  0.15687146242E+03 -0.11220303216E+03  0.25796200891E+03  0.30000000000E+02 0. -1.
     200000    1    3    3    0    0  0.13265177523E+03 -0.69891258415E+02 -0.15081966386E+03  0.23543332916E+03  0.10100000000E+03 0. -1.
    -200001    1    1    2    0    0  0.29582746333E+03 -0.23528758902E+03 -0.87561458574E+03  0.11337301444E+04  0.61300000000E+03 0. -1.
<mgrwt>
<rscale>  0 0.14899848E+04</rscale>
<asrwt>0</asrwt>
<pdfrwt beam="1">  1        2 0.49504212E-01 0.14899848E+04</pdfrwt>
<pdfrwt beam="2">  1       -2 0.22880496E+00 0.14899848E+04</pdfrwt>
<totfact> 0.85558333E+00</totfact>
</mgrwt>
</event>
<event>
 8    1  0.7685004E-052  0.1689241E+04  0.7818608E-02  0.8767524E-01
          2   -1    0    0  501    0  0.00000000000E+00  0.00000000000E+00  0.20114323795E+04  0.20114323795E+04  0.25500000000E-02 0.  1.
         -2   -1    0    0    0  501 -0.00000000000E+00 -0.00000000000E+00 -0.35466473240E+03  0.35466473240E+03  0.25500000000E-02 0. -1.
     200001    2    1    2    0    0  0.50688094500E+03 -0.26937105990E+03  0.95313443021E+03  0.12704887128E+04  0.61334106898E+03 0.  0.
    5000001    2    3    3    0    0  0.13980740529E+03  0.42780684515E+02  0.69370056177E+03  0.71399196777E+03  0.84780676418E+02 0.  0.
        -13    1    4    4    0    0  0.64832626084E+02 -0.17256106938E+02  0.32174921986E+03  0.32866946052E+03  0.10566000000E+00 0. -1.
     200003    1    4    4    0    0  0.74974779205E+02  0.60036791453E+02  0.37195134191E+03  0.38532250725E+03  0.30000000000E+02 0. -1.
     200000    1    3    3    0    0  0.36707353971E+03 -0.31215174442E+03  0.25943386843E+03  0.55649674500E+03  0.10100000000E+03 0. -1.
    -200001    1    1    2    0    0 -0.50688094500E+03  0.26937105990E+03  0.70363321687E+03  0.10956083991E+04  0.61300000000E+03 0. -1.
<mgrwt>
<rscale>  0 0.16892414E+04</rscale>
<asrwt>0</asrwt>
<pdfrwt beam="1">  1        2 0.28734748E+00 0.16892414E+04</pdfrwt>
<pdfrwt beam="2">  1       -2 0.50666390E-01 0.16892414E+04</pdfrwt>
<totfact> 0.27825102E+01</totfact>
</mgrwt>
</event>
<event>
 8    1  0.7685004E-052  0.1795990E+04  0.7818608E-02  0.8708435E-01
          2   -1    0    0  501    0  0.00000000000E+00  0.00000000000E+00  0.30986287604E+04  0.30986287604E+04  0.25500000000E-02 0.  1.
         -2   -1    0    0    0  501 -0.00000000000E+00 -0.00000000000E+00 -0.26024262741E+03  0.26024262742E+03  0.25500000000E-02 0. -1.
     200001    2    1    2    0    0  0.19073030825E+03 -0.34744840232E+03  0.43956644724E+03  0.85144176219E+03  0.61207513436E+03 0.  0.
    5000001    2    3    3    0    0  0.36563611616E+03 -0.82145304146E+02  0.27054538211E+03  0.47761440097E+03  0.12034571781E+03 0.  0.
        -13    1    4    4    0    0  0.12252598956E+03  0.26157561616E+02  0.97382568324E+02  0.15868273985E+03  0.10566000000E+00 0. -1.
     200003    1    4    4    0    0  0.24311012660E+03 -0.10830286576E+03  0.17316281379E+03  0.31893166112E+03  0.30000000000E+02 0.  1.
     200000    1    3    3    0    0 -0.17490580791E+03 -0.26530309818E+03  0.16902106512E+03  0.37382736122E+03  0.10100000000E+03 0.  1.
    -200001    1    1    2    0    0 -0.19073030825E+03  0.34744840232E+03  0.23988196858E+04  0.25074296257E+04  0.61300000000E+03 0. -1.
<mgrwt>
<rscale>  0 0.17959903E+04</rscale>
<asrwt>0</asrwt>
<pdfrwt beam="1">  1        2 0.44266120E+00 0.17959903E+04</pdfrwt>
<pdfrwt beam="2">  1       -2 0.37177523E-01 0.17959903E+04</pdfrwt>
<totfact> 0.13433543E+01</totfact>
</mgrwt>
</event>
<event>
 8    1  0.7685004E-052  0.2526121E+04  0.7818608E-02  0.8393738E-01
         -2   -1    0    0    0  501 -0.00000000000E+00  0.00000000000E+00  0.63879730949E+03  0.63879730949E+03  0.25500000000E-02 0. -1.
          2   -1    0    0  501    0  0.00000000000E+00 -0.00000000000E+00 -0.24973837060E+04  0.24973837060E+04  0.25500000000E-02 0.  1.
     200001    2    1    2    0    0  0.24006916568E+03  0.10788676091E+04 -0.89183255412E+03  0.15449643382E+04  0.60824417765E+03 0.  0.
    5000001    2    3    3    0    0 -0.57074699521E+02  0.39442854181E+02 -0.27450778978E+03  0.29596907709E+03  0.86196913383E+02 0.  0.
        -13    1    4    4    0    0 -0.51694098788E+02  0.38250165906E+01 -0.20952693089E+03  0.21584359276E+03  0.10566000000E+00 0. -1.
     200003    1    4    4    0    0 -0.53806007333E+01  0.35617837590E+02 -0.64980858885E+02  0.80125484337E+02  0.30000000000E+02 0. -1.
     200000    1    3    3    0    0  0.29714386521E+03  0.10394247549E+04 -0.61732476434E+03  0.12489952611E+04  0.10100000000E+03 0. -1.
    -200001    1    1    2    0    0 -0.24006916568E+03 -0.10788676091E+04 -0.96675384236E+03  0.15912166772E+04  0.61300000000E+03 0.  1.
<mgrwt>
<rscale>  0 0.25261211E+04</rscale>
<asrwt>0</asrwt>
<pdfrwt beam="1">  1        2 0.35676909E+00 0.25261211E+04</pdfrwt>
<pdfrwt beam="2">  1       -2 0.91256760E-01 0.25261211E+04</pdfrwt>
<totfact> 0.40502808E+00</totfact>
</mgrwt>
</event>
<event>
 8    1  0.7685004E-052  0.2689434E+04  0.7818608E-02  0.8338441E-01
          2   -1    0    0  501    0  0.00000000000E+00  0.00000000000E+00  0.14797602255E+04  0.14797602255E+04  0.25500000000E-02 0.  1.
         -2   -1    0    0    0  501 -0.00000000000E+00 -0.00000000000E+00 -0.12219977980E+04  0.12219977980E+04  0.25500000000E-02 0. -1.
     200001    2    1    2    0    0  0.32526716644E+03 -0.10649818780E+04  0.56925275051E+03  0.13930256783E+04  0.61358513380E+03 0.  0.
    5000001    2    3    3    0    0  0.34609037186E+03 -0.45736287732E+03  0.51438035911E+03  0.77427982159E+03  0.77218788158E+02 0.  0.
        -13    1    4    4    0    0  0.18415823555E+03 -0.21118062225E+03  0.21537106774E+03  0.35340659150E+03  0.10566000000E+00 0. -1.
     200003    1    4    4    0    0  0.16193213631E+03 -0.24618225507E+03  0.29900929137E+03  0.42087323009E+03  0.30000000000E+02 0. -1.
     200000    1    3    3    0    0 -0.20823205421E+02 -0.60761900064E+03  0.54872391402E+02  0.61874585668E+03  0.10100000000E+03 0.  1.
    -200001    1    1    2    0    0 -0.32526716644E+03  0.10649818780E+04 -0.31149032301E+03  0.13087323452E+04  0.61300000000E+03 0. -1.
<mgrwt>
<rscale>  0 0.26894339E+04</rscale>
<asrwt>0</asrwt>
<pdfrwt beam="1">  1        2 0.21139432E+00 0.26894339E+04</pdfrwt>
<pdfrwt beam="2">  1       -2 0.17457111E+00 0.26894339E+04</pdfrwt>
<totfact> 0.26212243E+00</totfact>
</mgrwt>
</event>
<event>
 8    1  0.7685004E-052  0.1422766E+04  0.7818608E-02  0.8937502E-01
          2   -1    0    0  501    0  0.00000000000E+00  0.00000000000E+00  0.62573101078E+03  0.62573101078E+03  0.25500000000E-02 0.  1.
         -2   -1    0    0    0  501 -0.00000000000E+00 -0.00000000000E+00 -0.80875906200E+03  0.80875906201E+03  0.25500000000E-02 0. -1.
     200001    2    1    2    0    0  0.25025659681E+02 -0.22177743492E+03  0.19434614727E+03  0.68083776570E+03  0.61315424158E+03 0.  0.
    5000001    2    3    3    0    0  0.14993492229E+03  0.10750056163E+03  0.23790674496E+03  0.31188675463E+03  0.81467028556E+02 0.  0.
        -13    1    4    4    0    0  0.11696615086E+03  0.58318777320E+02  0.18742129947E+03  0.22849270206E+03  0.10566000000E+00 0. -1.
     200003    1    4    4    0    0  0.32968771428E+02  0.49181784311E+02  0.50485445494E+02  0.83394052571E+02  0.30000000000E+02 0.  1.
     200000    1    3    3    0    0 -0.12490926261E+03 -0.32927799655E+03 -0.43560597694E+02  0.36895101107E+03  0.10100000000E+03 0.  1.
    -200001    1    1    2    0    0 -0.25025659681E+02  0.22177743492E+03 -0.37737419849E+03  0.75365230708E+03  0.61300000000E+03 0. -1.
<mgrwt>
<rscale>  0 0.14227658E+04</rscale>
<asrwt>0</asrwt>
<pdfrwt beam="1">  1        2 0.89390145E-01 0.14227658E+04</pdfrwt>
<pdfrwt beam="2">  1       -2 0.11553701E+00 0.14227658E+04</pdfrwt>
<totfact> 0.29282514E+01</totfact>
</mgrwt>
</event>
<event>
 8    1  0.7685004E-052  0.1330085E+04  0.7818608E-02  0.9006042E-01
          2   -1    0    0  501    0  0.00000000000E+00  0.00000000000E+00  0.20331172448E+04  0.20331172449E+04  0.25500000000E-02 0.  1.
         -2   -1    0    0    0  501 -0.00000000000E+00 -0.00000000000E+00 -0.21753864068E+03  0.21753864069E+03  0.25500000000E-02 0. -1.
     200001    2    1    2    0    0 -0.21466874796E+03 -0.13938365949E+03  0.96112607292E+03  0.11683580504E+04  0.61301446141E+03 0.  0.
    5000001    2    3    3    0    0  0.86823386058E+02 -0.20603807700E+03  0.68399088445E+03  0.74133904500E+03  0.17818546542E+03 0.  0.
        -13    1    4    4    0    0  0.14297991924E+02  0.18048821377E+02  0.72277058331E+01  0.24133864626E+02  0.10566000000E+00 0. -1.
     200003    1    4    4    0    0  0.72525394134E+02 -0.22408689838E+03  0.67676317862E+03  0.71720518037E+03  0.30000000000E+02 0. -1.
     200000    1    3    3    0    0 -0.30149213402E+03  0.66654417505E+02  0.27713518847E+03  0.42701900536E+03  0.10100000000E+03 0.  1.
    -200001    1    1    2    0    0  0.21466874796E+03  0.13938365949E+03  0.85445253125E+03  0.10822978352E+04  0.61300000000E+03 0.  1.
<mgrwt>
<rscale>  0 0.13300851E+04</rscale>
<asrwt>0</asrwt>
<pdfrwt beam="1">  1        2 0.29044534E+00 0.13300851E+04</pdfrwt>
<pdfrwt beam="2">  1       -2 0.31076947E-01 0.13300851E+04</pdfrwt>
<totfact> 0.72486120E+01</totfact>
</mgrwt>
</event>
<event>
 8    1  0.7685004E-052  0.1338031E+04  0.7818608E-02  0.8999938E-01
          2   -1    0    0  501    0  0.00000000000E+00  0.00000000000E+00  0.23949270401E+04  0.23949270401E+04  0.25500000000E-02 0.  1.
         -2   -1    0    0    0  501 -0.00000000000E+00 -0.00000000000E+00 -0.18688754203E+03  0.18688754205E+03  0.25500000000E-02 0. -1.
     200001    2    1    2    0    0  0.15334720037E+03 -0.89736067671E+02  0.71750818362E+03  0.96038912131E+03  0.61315686824E+03 0.  0.
    5000001    2    3    3    0    0  0.21395007060E+03  0.11208731024E+03  0.67553282704E+03  0.72296899936E+03  0.89450409687E+02 0.  0.
        -13    1    4    4    0    0  0.73205612256E+02  0.78769399214E+02  0.33333933399E+03  0.35025533924E+03  0.10566000000E+00 0. -1.
     200003    1    4    4    0    0  0.14074445834E+03  0.33317911024E+02  0.34219349306E+03  0.37271366012E+03  0.30000000000E+02 0. -1.
     200000    1    3    3    0    0 -0.60602870225E+02 -0.20182337791E+03  0.41975356577E+02  0.23742012196E+03  0.10100000000E+03 0. -1.
    -200001    1    1    2    0    0 -0.15334720037E+03  0.89736067671E+02  0.14905313145E+04  0.16214254608E+04  0.61300000000E+03 0.  1.
<mgrwt>
<rscale>  0 0.13380314E+04</rscale>
<asrwt>0</asrwt>
<pdfrwt beam="1">  1        2 0.34213241E+00 0.13380314E+04</pdfrwt>
<pdfrwt beam="2">  1       -2 0.26698222E-01 0.13380314E+04</pdfrwt>
<totfact> 0.62449811E+01</totfact>
</mgrwt>
</event>
<event>
 8    1  0.7685004E-052  0.2469972E+04  0.7818608E-02  0.8413762E-01
         -2   -1    0    0    0  501 -0.00000000000E+00  0.00000000000E+00  0.96904443616E+03  0.96904443617E+03  0.25500000000E-02 0. -1.
          2   -1    0    0  501    0  0.00000000000E+00 -0.00000000000E+00 -0.15739121371E+04  0.15739121371E+04  0.25500000000E-02 0.  1.
     200001    2    1    2    0    0  0.52053246759E+03 -0.83347395385E+03  0.13784493470E+03  0.11670845077E+04  0.61437133769E+03 0.  0.
    5000001    2    3    3    0    0  0.43301261685E+03 -0.89564131054E+03  0.18074340743E+03  0.10135729985E+04  0.70631157324E+02 0.  0.
        -13    1    4    4    0    0  0.17441842927E+03 -0.36963228932E+03  0.45100025392E+02  0.41119805597E+03  0.10566000000E+00 0. -1.
     200003    1    4    4    0    0  0.25859418758E+03 -0.52600902122E+03  0.13564338204E+03  0.60237494250E+03  0.30000000000E+02 0. -1.
     200000    1    3    3    0    0  0.87519850739E+02  0.62167356692E+02 -0.42898472726E+02  0.15351150925E+03  0.10100000000E+03 0.  1.
    -200001    1    1    2    0    0 -0.52053246759E+03  0.83347395385E+03 -0.74271263560E+03  0.13758720655E+04  0.61300000000E+03 0.  1.
<mgrwt>
<rscale>  0 0.24699723E+04</rscale>
<asrwt>0</asrwt>
<pdfrwt beam="1">  1        2 0.22484459E+00 0.24699723E+04</pdfrwt>
<pdfrwt beam="2">  1       -2 0.13843492E+00 0.24699723E+04</pdfrwt>
<totfact> 0.44431802E+00</totfact>
</mgrwt>
</event>
<event>
 8    1  0.7685004E-052  0.2986095E+04  0.7818608E-02  0.8247713E-01
          2   -1    0    0  501    0  0.00000000000E+00  0.00000000000E+00  0.13174730286E+04  0.13174730286E+04  0.25500000000E-02 0. -1.
         -2   -1    0    0    0  501 -0.00000000000E+00 -0.00000000000E+00 -0.16920197518E+04  0.16920197518E+04  0.25500000000E-02 0.  1.
     200001    2    1    2    0    0 -0.47604314402E+03 -0.12299286824E+02 -0.14723286642E+04  0.16649993675E+04  0.61457534176E+03 0.  0.
    5000001    2    3    3    0    0 -0.55965009521E+03  0.13328074692E+03 -0.10747493396E+04  0.12217680645E+04  0.81603149387E+02 0.  0.
        -13    1    4    4    0    0 -0.39672867264E+03  0.72334617931E+02 -0.70937390597E+03  0.81598853318E+03  0.10566000000E+00 0. -1.
     200003    1    4    4    0    0 -0.16292142258E+03  0.60946128992E+02 -0.36537543359E+03  0.40577953133E+03  0.30000000000E+02 0. -1.
     200000    1    3    3    0    0  0.83606951190E+02 -0.14558003375E+03 -0.39757932469E+03  0.44323130297E+03  0.10100000000E+03 0. -1.
    -200001    1    1    2    0    0  0.47604314402E+03  0.12299286824E+02  0.10977819410E+04  0.13444934129E+04  0.61300000000E+03 0. -1.
<mgrwt>
<rscale>  0 0.29860947E+04</rscale>
<asrwt>0</asrwt>
<pdfrwt beam="1">  1        2 0.18821043E+00 0.29860947E+04</pdfrwt>
<pdfrwt beam="2">  1       -2 0.24171711E+00 0.29860947E+04</pdfrwt>
<totfact> 0.11455221E+00</totfact>
</mgrwt>
</event>
<event>
 8    1  0.7685004E-052  0.1570760E+04  0.7818608E-02  0.8838716E-01
         -2   -1    0    0    0  501 -0.00000000000E+00  0.00000000000E+00  0.14032375733E+03  0.14032375735E+03  0.25500000000E-02 0. -1.
          2   -1    0    0  501    0  0.00000000000E+00 -0.00000000000E+00 -0.43957021698E+04  0.43957021698E+04  0.25500000000E-02 0.  1.
     200001    2    1    2    0    0  0.32676762991E+03 -0.12207248740E+03 -0.11262824389E+04  0.13284272322E+04  0.61198693033E+03 0.  0.
    5000001    2    3    3    0    0  0.34036938966E+03  0.14135548052E+03 -0.86393630307E+03  0.94293300767E+03  0.83090480178E+02 0.  0.
        -13    1    4    4    0    0  0.62304639465E+02  0.42920360438E+02 -0.24917153569E+03  0.26040447539E+03  0.10566000000E+00 0. -1.
     200003    1    4    4    0    0  0.27806475019E+03  0.98435120079E+02 -0.61476476738E+03  0.68252853228E+03  0.30000000000E+02 0. -1.
     200000    1    3    3    0    0 -0.13601759748E+02 -0.26342796792E+03 -0.26234613581E+03  0.38549422450E+03  0.10100000000E+03 0. -1.
    -200001    1    1    2    0    0 -0.32676762991E+03  0.12207248740E+03 -0.31290959736E+04  0.32075986950E+04  0.61300000000E+03 0.  1.
<mgrwt>
<rscale>  0 0.15707596E+04</rscale>
<asrwt>0</asrwt>
<pdfrwt beam="1">  1        2 0.62795737E+00 0.15707596E+04</pdfrwt>
<pdfrwt beam="2">  1       -2 0.20046254E-01 0.15707596E+04</pdfrwt>
<totfact> 0.61456607E+00</totfact>
</mgrwt>
</event>
<event>
 8    1  0.7685004E-052  0.1509941E+04  0.7818608E-02  0.8877869E-01
         -2   -1    0    0    0  501 -0.00000000000E+00  0.00000000000E+00  0.24581234981E+03  0.24581234983E+03  0.25500000000E-02 0. -1.
          2   -1    0    0  501    0  0.00000000000E+00 -0.00000000000E+00 -0.23187618237E+04  0.23187618237E+04  0.25500000000E-02 0.  1.
     200001    2    1    2    0    0  0.41451898426E+03 -0.91338595197E+02 -0.12364380598E+04  0.14439988422E+04  0.61333910139E+03 0.  0.
    5000001    2    3    3    0    0 -0.11641571399E+03  0.62646971861E+02 -0.35598197359E+03  0.39948597564E+03  0.12405086727E+03 0.  0.
        -13    1    4    4    0    0  0.24943548176E+02  0.15026409052E+02 -0.55168368875E+02  0.62382158130E+02  0.10566000000E+00 0. -1.
     200003    1    4    4    0    0 -0.14135926216E+03  0.47620562809E+02 -0.30081360471E+03  0.33710381751E+03  0.30000000000E+02 0. -1.
     200000    1    3    3    0    0  0.53093469825E+03 -0.15398556706E+03 -0.88045608618E+03  0.10445128665E+04  0.10100000000E+03 0. -1.
    -200001    1    1    2    0    0 -0.41451898426E+03  0.91338595197E+02 -0.83651141416E+03  0.11205753314E+04  0.61300000000E+03 0. -1.
<mgrwt>
<rscale>  0 0.15099408E+04</rscale>
<asrwt>0</asrwt>
<pdfrwt beam="1">  1        2 0.33125168E+00 0.15099408E+04</pdfrwt>
<pdfrwt beam="2">  1       -2 0.35116051E-01 0.15099408E+04</pdfrwt>
<totfact> 0.40416099E+01</totfact>
</mgrwt>
</event>
<event>
 8    1  0.7685004E-052  0.1498935E+04  0.7818608E-02  0.8885162E-01
         -2   -1    0    0    0  501 -0.00000000000E+00  0.00000000000E+00  0.66512908137E+03  0.66512908138E+03  0.25500000000E-02 0. -1.
          2   -1    0    0  501    0  0.00000000000E+00 -0.00000000000E+00 -0.84449978146E+03  0.84449978146E+03  0.25500000000E-02 0.  1.
     200001    2    1    2    0    0 -0.33886190931E+03 -0.24642412359E+03 -0.19468362197E+03  0.76696088329E+03  0.61218873035E+03 0.  0.
    5000001    2    3    3    0    0 -0.45774135914E+03 -0.21513347778E+03  0.59215237896E+00  0.51507786252E+03  0.97443771903E+02 0.  0.
        -13    1    4    4    0    0 -0.25832708046E+03 -0.79689694840E+02 -0.21266284717E+02  0.27117447150E+03  0.10566000000E+00 0. -1.
     200003    1    4    4    0    0 -0.19941427868E+03 -0.13544378294E+03  0.21858437096E+02  0.24390339102E+03  0.30000000000E+02 0. -1.
     200000    1    3    3    0    0  0.11887944983E+03 -0.31290645805E+02 -0.19527577434E+03  0.25188302077E+03  0.10100000000E+03 0.  1.
    -200001    1    1    2    0    0  0.33886190931E+03  0.24642412359E+03  0.15312921879E+02  0.74266797955E+03  0.61300000000E+03 0.  1.
<mgrwt>
<rscale>  0 0.14989348E+04</rscale>
<asrwt>0</asrwt>
<pdfrwt beam="1">  1        2 0.12064283E+00 0.14989348E+04</pdfrwt>
<pdfrwt beam="2">  1       -2 0.95018441E-01 0.14989348E+04</pdfrwt>
<totfact> 0.31946826E+01</totfact>
</mgrwt>
</event>
<event>
 8    1  0.7685004E-052  0.1243033E+04  0.7818608E-02  0.9076002E-01
          2   -1    0    0  501    0  0.00000000000E+00  0.00000000000E+00  0.24079400132E+04  0.24079400132E+04  0.25500000000E-02 0.  1.
         -2   -1    0    0    0  501 -0.00000000000E+00 -0.00000000000E+00 -0.16042046354E+03  0.16042046356E+03  0.25500000000E-02 0. -1.
     200001    2    1    2    0    0  0.90417809191E+02 -0.34088007962E+02  0.10384680164E+04  0.12093490778E+04  0.61218624480E+03 0.  0.
    5000001    2    3    3    0    0  0.42712317418E+02  0.16705759910E+03  0.50148096684E+02  0.19460150675E+03  0.74982206897E+02 0.  0.
        -13    1    4    4    0    0 -0.38297794381E+01  0.10393370120E+03  0.30100402892E+02  0.10827246591E+03  0.10566000000E+00 0. -1.
     200003    1    4    4    0    0  0.46542096856E+02  0.63123897903E+02  0.20047693792E+02  0.86329040841E+02  0.30000000000E+02 0. -1.
     200000    1    3    3    0    0  0.47705491773E+02 -0.20114560706E+03  0.98831991973E+03  0.10147475710E+04  0.10100000000E+03 0.  1.
    -200001    1    1    2    0    0 -0.90417809191E+02  0.34088007962E+02  0.12090515333E+04  0.13590113990E+04  0.61300000000E+03 0. -1.
<mgrwt>
<rscale>  0 0.12430332E+04</rscale>
<asrwt>0</asrwt>
<pdfrwt beam="1">  1        2 0.34399142E+00 0.12430332E+04</pdfrwt>
<pdfrwt beam="2">  1       -2 0.22917209E-01 0.12430332E+04</pdfrwt>
<totfact> 0.81664879E+01</totfact>
</mgrwt>
</event>
<event>
 8    1  0.7685004E-052  0.1379711E+04  0.7818608E-02  0.8968637E-01
         -2   -1    0    0    0  501 -0.00000000000E+00  0.00000000000E+00  0.38246982825E+04  0.38246982825E+04  0.25500000000E-02 0.  1.
          2   -1    0    0  501    0  0.00000000000E+00 -0.00000000000E+00 -0.12442821455E+03  0.12442821458E+03  0.25500000000E-02 0. -1.
     200001    2    1    2    0    0  0.20103469102E+03  0.23637987907E+03  0.20227086834E+04  0.21363188424E+04  0.61336562012E+03 0.  0.
    5000001    2    3    3    0    0 -0.17740837874E+03 -0.38797652165E+02  0.57974723582E+03  0.61602920875E+03  0.10201047953E+03 0.  0.
        -13    1    4    4    0    0 -0.92840781687E+02  0.37428090567E+01  0.16308803832E+03  0.18769959715E+03  0.10566000000E+00 0. -1.
     200003    1    4    4    0    0 -0.84567597051E+02 -0.42540461221E+02  0.41665919749E+03  0.42832961159E+03  0.30000000000E+02 0.  1.
     200000    1    3    3    0    0  0.37844306976E+03  0.27517753124E+03  0.14429614476E+04  0.15202896336E+04  0.10100000000E+03 0. -1.
    -200001    1    1    2    0    0 -0.20103469102E+03 -0.23637987907E+03  0.16775613845E+04  0.18128076547E+04  0.61300000000E+03 0. -1.
<mgrwt>
<rscale>  0 0.13797107E+04</rscale>
<asrwt>0</asrwt>
<pdfrwt beam="1">  1        2 0.17775462E-01 0.13797107E+04</pdfrwt>
<pdfrwt beam="2">  1       -2 0.54638539E+00 0.13797107E+04</pdfrwt>
<totfact> 0.28336173E-01</totfact>
</mgrwt>
</event>
<event>
 8    1  0.7685004E-052  0.1473343E+04  0.7818608E-02  0.8902376E-01
          2   -1    0    0  501    0  0.00000000000E+00  0.00000000000E+00  0.18271857714E+04  0.18271857714E+04  0.25500000000E-02 0. -1.
         -2   -1    0    0    0  501 -0.00000000000E+00 -0.00000000000E+00 -0.29700584713E+03  0.29700584715E+03  0.25500000000E-02 0.  1.
     200001    2    1    2    0    0  0.22422849528E+03  0.10535051644E+03  0.28949664645E+03  0.71833204332E+03  0.60894619364E+03 0.  0.
    5000001    2    3    3    0    0 -0.16657850561E+03 -0.25214388913E+02  0.22049693970E+03  0.28851898397E+03  0.78994555209E+02 0.  0.
        -13    1    4    4    0    0 -0.13104799157E+02 -0.25745023791E+02  0.25256414693E+02  0.38372381449E+02  0.10566000000E+00 0. -1.
     200003    1    4    4    0    0 -0.15347370645E+03  0.53063487787E+00  0.19524052501E+03  0.25014660252E+03  0.30000000000E+02 0. -1.
     200000    1    3    3    0    0  0.39080700089E+03  0.13056490536E+03  0.68999706749E+02  0.42981305935E+03  0.10100000000E+03 0.  1.
    -200001    1    1    2    0    0 -0.22422849528E+03 -0.10535051644E+03  0.12406832778E+04  0.14058595752E+04  0.61300000000E+03 0. -1.
<mgrwt>
<rscale>  0 0.14733429E+04</rscale>
<asrwt>0</asrwt>
<pdfrwt beam="1">  1        2 0.26102654E+00 0.14733429E+04</pdfrwt>
<pdfrwt beam="2">  1       -2 0.42429406E-01 0.14733429E+04</pdfrwt>
<totfact> 0.50278987E+01</totfact>
</mgrwt>
</event>
<event>
 8    1  0.7685004E-052  0.1288046E+04  0.7818608E-02  0.9039099E-01
         -2   -1    0    0    0  501 -0.00000000000E+00  0.00000000000E+00  0.24066077075E+03  0.24066077076E+03  0.25500000000E-02 0. -1.
          2   -1    0    0  501    0  0.00000000000E+00 -0.00000000000E+00 -0.17234459381E+04  0.17234459381E+04  0.25500000000E-02 0.  1.
     200001    2    1    2    0    0  0.16806708992E+03 -0.76322513164E+02 -0.63250138435E+03  0.89976504174E+03  0.61273767340E+03 0.  0.
    5000001    2    3    3    0    0  0.70769466079E+02  0.18040190086E+03 -0.59590621014E+02  0.25649060955E+03  0.15710896701E+03 0.  0.
        -13    1    4    4    0    0  0.48170559583E+02  0.12261672769E+03 -0.10957540693E+03  0.17135356923E+03  0.10566000000E+00 0. -1.
     200003    1    4    4    0    0  0.22598906496E+02  0.57785173168E+02  0.49984785912E+02  0.85137040326E+02  0.30000000000E+02 0. -1.
     200000    1    3    3    0    0  0.97297623837E+02 -0.25672441402E+03 -0.57291076334E+03  0.64327443219E+03  0.10100000000E+03 0. -1.
    -200001    1    1    2    0    0 -0.16806708992E+03  0.76322513164E+02 -0.85028378299E+03  0.10643416671E+04  0.61300000000E+03 0.  1.
<mgrwt>
<rscale>  0 0.12880463E+04</rscale>
<asrwt>0</asrwt>
<pdfrwt beam="1">  1        2 0.24620655E+00 0.12880463E+04</pdfrwt>
<pdfrwt beam="2">  1       -2 0.34380111E-01 0.12880463E+04</pdfrwt>
<totfact> 0.86717976E+01</totfact>
</mgrwt>
</event>
<event>
 8    1  0.7685004E-052  0.2089868E+04  0.7818608E-02  0.8565720E-01
          2   -1    0    0  501    0  0.00000000000E+00  0.00000000000E+00  0.17412728697E+04  0.17412728697E+04  0.25500000000E-02 0.  1.
         -2   -1    0    0    0  501 -0.00000000000E+00 -0.00000000000E+00 -0.62706287021E+03  0.62706287022E+03  0.25500000000E-02 0. -1.
     200001    2    1    2    0    0  0.62838373084E+03 -0.24726134743E+03 -0.20583877138E+02  0.91247502215E+03  0.61333733209E+03 0.  0.
    5000001    2    3    3    0    0  0.35054246607E+03 -0.77490239154E+02 -0.29797339301E+03  0.47297082294E+03  0.77643407456E+02 0.  0.
        -13    1    4    4    0    0  0.12587415486E+03 -0.58337314274E+01 -0.13547855335E+03  0.18502103898E+03  0.10566000000E+00 0. -1.
     200003    1    4    4    0    0  0.22466831121E+03 -0.71656507727E+02 -0.16249483966E+03  0.28794978395E+03  0.30000000000E+02 0. -1.
     200000    1    3    3    0    0  0.27784126476E+03 -0.16977110827E+03  0.27738951587E+03  0.43950419921E+03  0.10100000000E+03 0. -1.
    -200001    1    1    2    0    0 -0.62838373084E+03  0.24726134743E+03  0.11347938766E+04  0.14558607178E+04  0.61300000000E+03 0.  1.
<mgrwt>
<rscale>  0 0.20898685E+04</rscale>
<asrwt>0</asrwt>
<pdfrwt beam="1">  1        2 0.24875326E+00 0.20898685E+04</pdfrwt>
<pdfrwt beam="2">  1       -2 0.89580411E-01 0.20898685E+04</pdfrwt>
<totfact> 0.10803212E+01</totfact>
</mgrwt>
</event>
<event>
 8    1  0.7685004E-052  0.1871053E+04  0.7818608E-02  0.8669401E-01
         -2   -1    0    0    0  501 -0.00000000000E+00  0.00000000000E+00  0.11728774253E+04  0.11728774253E+04  0.25500000000E-02 0. -1.
          2   -1    0    0  501    0  0.00000000000E+00 -0.00000000000E+00 -0.74620713860E+03  0.74620713860E+03  0.25500000000E-02 0.  1.
     200001    2    1    2    0    0 -0.38595640945E+02 -0.39238397297E+03 -0.38810559438E+03  0.82588579785E+03  0.61319376461E+03 0.  0.
    5000001    2    3    3    0    0 -0.98556660953E+02 -0.39243242814E+03 -0.51017572847E+03  0.65648259862E+03  0.83507498429E+02 0.  0.
        -13    1    4    4    0    0 -0.20544654785E+02 -0.18651932904E+03 -0.19283676666E+03  0.26906797038E+03  0.10566000000E+00 0. -1.
     200003    1    4    4    0    0 -0.78012006169E+02 -0.20591309910E+03 -0.31733896182E+03  0.38741462824E+03  0.30000000000E+02 0. -1.
     200000    1    3    3    0    0  0.59961020008E+02  0.48455177478E-01  0.12207013410E+03  0.16940319922E+03  0.10100000000E+03 0. -1.
    -200001    1    1    2    0    0  0.38595640945E+02  0.39238397297E+03  0.81477588111E+03  0.10931987661E+04  0.61300000000E+03 0. -1.
<mgrwt>
<rscale>  0 0.18710527E+04</rscale>
<asrwt>0</asrwt>
<pdfrwt beam="1">  1        2 0.10660102E+00 0.18710527E+04</pdfrwt>
<pdfrwt beam="2">  1       -2 0.16755392E+00 0.18710527E+04</pdfrwt>
<totfact> 0.86785417E+00</totfact>
</mgrwt>
</event>
<event>
 8    1  0.7685004E-052  0.1272330E+04  0.7818608E-02  0.9051800E-01
         -2   -1    0    0    0  501 -0.00000000000E+00  0.00000000000E+00  0.15824127309E+03  0.15824127311E+03  0.25500000000E-02 0. -1.
          2   -1    0    0  501    0  0.00000000000E+00 -0.00000000000E+00 -0.25575260807E+04  0.25575260807E+04  0.25500000000E-02 0.  1.
     200001    2    1    2    0    0  0.99881859924E+02 -0.98508458056E+02 -0.99356232015E+03  0.11757981937E+04  0.61290701261E+03 0.  0.
    5000001    2    3    3    0    0  0.13079712600E+02 -0.14136168977E+03 -0.38640107672E+02  0.21068242652E+03  0.15079728349E+03 0.  0.
        -13    1    4    4    0    0 -0.52562647505E+02 -0.73577056904E+02  0.23954203271E+02  0.93542665313E+02  0.10566000000E+00 0. -1.
     200003    1    4    4    0    0  0.65642360105E+02 -0.67784632861E+02 -0.62594310944E+02  0.11713976120E+03  0.30000000000E+02 0. -1.
     200000    1    3    3    0    0  0.86802147324E+02  0.42853231710E+02 -0.95492221247E+03  0.96511576721E+03  0.10100000000E+03 0.  1.
    -200001    1    1    2    0    0 -0.99881859924E+02  0.98508458056E+02 -0.14057224875E+04  0.15399691601E+04  0.61300000000E+03 0.  1.
<mgrwt>
<rscale>  0 0.12723304E+04</rscale>
<asrwt>0</asrwt>
<pdfrwt beam="1">  1        2 0.36536084E+00 0.12723304E+04</pdfrwt>
<pdfrwt beam="2">  1       -2 0.22605898E-01 0.12723304E+04</pdfrwt>
<totfact> 0.69723877E+01</totfact>
</mgrwt>
</event>
<event>
 8    1  0.7685004E-052  0.2221615E+04  0.7818608E-02  0.8509485E-01
         -2   -1    0    0    0  501 -0.00000000000E+00  0.00000000000E+00  0.10873800324E+04  0.10873800324E+04  0.25500000000E-02 0. -1.
          2   -1    0    0  501    0  0.00000000000E+00 -0.00000000000E+00 -0.11347393843E+04  0.11347393843E+04  0.25500000000E-02 0.  1.
     200001    2    1    2    0    0 -0.91914320263E+03 -0.10934735868E+03  0.12671354351E+02  0.11102948993E+04  0.61303599276E+03 0.  0.
    5000001    2    3    3    0    0 -0.45703014519E+03 -0.32352382427E+03  0.12361505222E+03  0.57932452314E+03  0.82413612319E+02 0.  0.
        -13    1    4    4    0    0 -0.32020437680E+03 -0.18999437466E+03  0.87221570211E+02  0.38240857574E+03  0.10566000000E+00 0. -1.
     200003    1    4    4    0    0 -0.13682576839E+03 -0.13352944961E+03  0.36393482007E+02  0.19691594740E+03  0.30000000000E+02 0. -1.
     200000    1    3    3    0    0 -0.46211305745E+03  0.21417646559E+03 -0.11094369787E+03  0.53097037617E+03  0.10100000000E+03 0.  1.
    -200001    1    1    2    0    0  0.91914320263E+03  0.10934735868E+03 -0.60030706207E+02  0.11118245174E+04  0.61300000000E+03 0.  1.
<mgrwt>
<rscale>  0 0.22216147E+04</rscale>
<asrwt>0</asrwt>
<pdfrwt beam="1">  1        2 0.16210563E+00 0.22216147E+04</pdfrwt>
<pdfrwt beam="2">  1       -2 0.15534000E+00 0.22216147E+04</pdfrwt>
<totfact> 0.58316937E+00</totfact>
</mgrwt>
</event>
<event>
 8    1  0.7685004E-052  0.1339212E+04  0.7818608E-02  0.8999035E-01
          2   -1    0    0  501    0  0.00000000000E+00  0.00000000000E+00  0.63318717215E+03  0.63318717215E+03  0.25500000000E-02 0.  1.
         -2   -1    0    0    0  501 -0.00000000000E+00 -0.00000000000E+00 -0.70811929724E+03  0.70811929725E+03  0.25500000000E-02 0. -1.
     200001    2    1    2    0    0 -0.11373983842E+03  0.14036801813E+03  0.16138284654E+03  0.65994482007E+03  0.61387524061E+03 0.  0.
    5000001    2    3    3    0    0  0.71540698292E+02  0.28730447710E+03  0.18800541296E+03  0.40143183916E+03  0.19529350249E+03 0.  0.
        -13    1    4    4    0    0 -0.62216456182E+02  0.13896487446E+03  0.90837999932E+02  0.17729545158E+03  0.10566000000E+00 0. -1.
     200003    1    4    4    0    0  0.13375715447E+03  0.14833960264E+03  0.97167413026E+02  0.22413638758E+03  0.30000000000E+02 0. -1.
     200000    1    3    3    0    0 -0.18528053671E+03 -0.14693645897E+03 -0.26622566423E+02  0.25851298092E+03  0.10100000000E+03 0. -1.
    -200001    1    1    2    0    0  0.11373983842E+03 -0.14036801813E+03 -0.23631497163E+03  0.68136164933E+03  0.61300000000E+03 0. -1.
<mgrwt>
<rscale>  0 0.13392118E+04</rscale>
<asrwt>0</asrwt>
<pdfrwt beam="1">  1        2 0.90455311E-01 0.13392118E+04</pdfrwt>
<pdfrwt beam="2">  1       -2 0.10115990E+00 0.13392118E+04</pdfrwt>
<totfact> 0.40032108E+01</totfact>
</mgrwt>
</event>
<event>
 8    1  0.7685004E-052  0.1410347E+04  0.7818608E-02  0.8946363E-01
         -2   -1    0    0    0  501 -0.00000000000E+00  0.00000000000E+00  0.13956630967E+03  0.13956630969E+03  0.25500000000E-02 0. -1.
          2   -1    0    0  501    0  0.00000000000E+00 -0.00000000000E+00 -0.35629636282E+04  0.35629636283E+04  0.25500000000E-02 0.  1.
     200001    2    1    2    0    0 -0.22523546033E+03  0.11874191965E+03 -0.10895125409E+04  0.12760885495E+04  0.61362346215E+03 0.  0.
    5000001    2    3    3    0    0 -0.83649880019E+02  0.30231103119E+03 -0.28398222562E+03  0.43179939044E+03  0.86113571002E+02 0.  0.
        -13    1    4    4    0    0 -0.23015218897E+02  0.10376255080E+03 -0.49678235642E+02  0.11732137704E+03  0.10566000000E+00 0. -1.
     200003    1    4    4    0    0 -0.60634661122E+02  0.19854848039E+03 -0.23430398998E+03  0.31447801340E+03  0.30000000000E+02 0. -1.
     200000    1    3    3    0    0 -0.14158558031E+03 -0.18356911154E+03 -0.80553031524E+03  0.84428915902E+03  0.10100000000E+03 0.  1.
    -200001    1    1    2    0    0  0.22523546033E+03 -0.11874191965E+03 -0.23338847777E+04  0.24264413885E+04  0.61300000000E+03 0.  1.
<mgrwt>
<rscale>  0 0.14103470E+04</rscale>
<asrwt>0</asrwt>
<pdfrwt beam="1">  1        2 0.50899475E+00 0.14103470E+04</pdfrwt>
<pdfrwt beam="2">  1       -2 0.19938047E-01 0.14103470E+04</pdfrwt>
<totfact> 0.23322716E+01</totfact>
</mgrwt>
</event>
<event>
 8    1  0.7685004E-052  0.1743143E+04  0.7818608E-02  0.8737134E-01
          2   -1    0    0  501    0  0.00000000000E+00  0.00000000000E+00  0.30734962385E+04  0.30734962385E+04  0.25500000000E-02 0.  1.
         -2   -1    0    0    0  501 -0.00000000000E+00 -0.00000000000E+00 -0.24715738587E+03  0.24715738588E+03  0.25500000000E-02 0. -1.
     200001    2    1    2    0    0 -0.40466800944E+03 -0.46772888664E+03  0.14909449077E+04  0.17264226193E+04  0.61244741287E+03 0.  0.
    5000001    2    3    3    0    0 -0.31789860041E+03 -0.38356642349E+03  0.45436818387E+03  0.67794536403E+03  0.70546075155E+02 0.  0.
        -13    1    4    4    0    0 -0.19956278557E+03 -0.25435179839E+03  0.32217079000E+03  0.45641447372E+03  0.10566000000E+00 0. -1.
     200003    1    4    4    0    0 -0.11833581484E+03 -0.12921462510E+03  0.13219739387E+03  0.22153089031E+03  0.30000000000E+02 0.  1.
     200000    1    3    3    0    0 -0.86769409028E+02 -0.84162463153E+02  0.10365767238E+04  0.10484772553E+04  0.10100000000E+03 0.  1.
    -200001    1    1    2    0    0  0.40466800944E+03  0.46772888664E+03  0.13353939450E+04  0.15942310051E+04  0.61300000000E+03 0. -1.
<mgrwt>
<rscale>  0 0.17431435E+04</rscale>
<asrwt>0</asrwt>
<pdfrwt beam="1">  1        2 0.43907087E+00 0.17431435E+04</pdfrwt>
<pdfrwt beam="2">  1       -2 0.35308200E-01 0.17431435E+04</pdfrwt>
<totfact> 0.15399476E+01</totfact>
</mgrwt>
</event>
<event>
 8    1  0.7685004E-052  0.1238575E+04  0.7818608E-02  0.9079746E-01
         -2   -1    0    0    0  501 -0.00000000000E+00  0.00000000000E+00  0.37723128212E+03  0.37723128213E+03  0.25500000000E-02 0. -1.
          2   -1    0    0  501    0  0.00000000000E+00 -0.00000000000E+00 -0.10166624037E+04  0.10166624037E+04  0.25500000000E-02 0.  1.
     200001    2    1    2    0    0 -0.43811313876E+02 -0.14825646714E+02 -0.40480487426E+03  0.73589846779E+03  0.61281346073E+03 0.  0.
    5000001    2    3    3    0    0 -0.25641832129E+03  0.14213885974E+03 -0.31835588893E+03  0.44007077647E+03  0.79737101434E+02 0.  0.
        -13    1    4    4    0    0 -0.48418305786E+02  0.11761840222E+02 -0.92896443130E+02  0.10541552794E+03  0.10566000000E+00 0. -1.
     200003    1    4    4    0    0 -0.20800001550E+03  0.13037701952E+03 -0.22545944580E+03  0.33465524853E+03  0.30000000000E+02 0. -1.
     200000    1    3    3    0    0  0.21260700741E+03 -0.15696450646E+03 -0.86448985333E+02  0.29582769132E+03  0.10100000000E+03 0.  1.
    -200001    1    1    2    0    0  0.43811313876E+02  0.14825646714E+02 -0.23462624730E+03  0.65799521803E+03  0.61300000000E+03 0. -1.
<mgrwt>
<rscale>  0 0.12385748E+04</rscale>
<asrwt>0</asrwt>
<pdfrwt beam="1">  1        2 0.14523749E+00 0.12385748E+04</pdfrwt>
<pdfrwt beam="2">  1       -2 0.53890184E-01 0.12385748E+04</pdfrwt>
<totfact> 0.87599946E+01</totfact>
</mgrwt>
</event>
<event>
 8    1  0.7685004E-052  0.1507332E+04  0.7818608E-02  0.8879592E-01
         -2   -1    0    0    0  501 -0.00000000000E+00  0.00000000000E+00  0.54353137440E+03  0.54353137441E+03  0.25500000000E-02 0. -1.
          2   -1    0    0  501    0  0.00000000000E+00 -0.00000000000E+00 -0.10450403785E+04  0.10450403785E+04  0.25500000000E-02 0.  1.
     200001    2    1    2    0    0 -0.38678624938E+03  0.20725346844E+03 -0.25941359208E+03  0.79677835095E+03  0.61237466138E+03 0.  0.
    5000001    2    3    3    0    0 -0.46983465680E+03  0.25615670482E+03 -0.62162711969E+02  0.55512265744E+03  0.13392572527E+03 0.  0.
        -13    1    4    4    0    0 -0.33997117978E+03  0.24087117142E+03 -0.33969557428E+02  0.41803500607E+03  0.10566000000E+00 0. -1.
     200003    1    4    4    0    0 -0.12986347702E+03  0.15285533392E+02 -0.28193154541E+02  0.13708765137E+03  0.30000000000E+02 0. -1.
     200000    1    3    3    0    0  0.83048407419E+02 -0.48903236372E+02 -0.19725088012E+03  0.24165569352E+03  0.10100000000E+03 0.  1.
    -200001    1    1    2    0    0  0.38678624938E+03 -0.20725346844E+03 -0.24209541204E+03  0.79179340198E+03  0.61300000000E+03 0.  1.
<mgrwt>
<rscale>  0 0.15073317E+04</rscale>
<asrwt>0</asrwt>
<pdfrwt beam="1">  1        2 0.14929148E+00 0.15073317E+04</pdfrwt>
<pdfrwt beam="2">  1       -2 0.77647339E-01 0.15073317E+04</pdfrwt>
<totfact> 0.37695337E+01</totfact>
</mgrwt>
</event>
<event>
 8    1  0.7685004E-052  0.1415927E+04  0.7818608E-02  0.8942370E-01
         -2   -1    0    0    0  501 -0.00000000000E+00  0.00000000000E+00  0.19961169847E+03  0.19961169849E+03  0.25500000000E-02 0. -1.
          2   -1    0    0  501    0  0.00000000000E+00 -0.00000000000E+00 -0.25109371609E+04  0.25109371609E+04  0.25500000000E-02 0.  1.
     200001    2    1    2    0    0 -0.32527234854E+03 -0.13183886929E+03 -0.10603878087E+04  0.12739565019E+04  0.61266571278E+03 0.  0.
    5000001    2    3    3    0    0  0.14536921363E+03 -0.11931677705E+03 -0.31480159879E+03  0.38639800844E+03  0.12179767143E+03 0.  0.
        -13    1    4    4    0    0  0.68581671171E+02  0.75290171848E+01 -0.13346328088E+03  0.15024177258E+03  0.10566000000E+00 0. -1.
     200003    1    4    4    0    0  0.76787542459E+02 -0.12684579424E+03 -0.18133831791E+03  0.23615623586E+03  0.30000000000E+02 0. -1.
     200000    1    3    3    0    0 -0.47064156217E+03 -0.12522092231E+02 -0.74558620992E+03  0.88755849343E+03  0.10100000000E+03 0.  1.
    -200001    1    1    2    0    0  0.32527234854E+03  0.13183886929E+03 -0.12509376537E+04  0.14365923575E+04  0.61300000000E+03 0. -1.
<mgrwt>
<rscale>  0 0.14159272E+04</rscale>
<asrwt>0</asrwt>
<pdfrwt beam="1">  1        2 0.35870529E+00 0.14159272E+04</pdfrwt>
<pdfrwt beam="2">  1       -2 0.28515958E-01 0.14159272E+04</pdfrwt>
<totfact> 0.47812990E+01</totfact>
</mgrwt>
</event>
<event>
 8    1  0.7685004E-052  0.1427173E+04  0.7818608E-02  0.8934381E-01
          2   -1    0    0  501    0  0.00000000000E+00  0.00000000000E+00  0.25972560279E+04  0.25972560279E+04  0.25500000000E-02 0.  1.
         -2   -1    0    0    0  501 -0.00000000000E+00 -0.00000000000E+00 -0.19605534192E+03  0.19605534193E+03  0.25500000000E-02 0. -1.
     200001    2    1    2    0    0 -0.10025871461E+03 -0.24425737308E+03  0.69032481690E+03  0.95685317168E+03  0.60770565668E+03 0.  0.
    5000001    2    3    3    0    0  0.17772229065E+03 -0.14793338081E+03  0.52287738970E+02  0.24703343147E+03  0.69440700355E+02 0.  0.
        -13    1    4    4    0    0  0.14819588871E+03 -0.12210783572E+03  0.43176841712E+02  0.19681614720E+03  0.10566000000E+00 0. -1.
     200003    1    4    4    0    0  0.29526401946E+02 -0.25825545096E+02  0.91108972578E+01  0.50217284278E+02  0.30000000000E+02 0.  1.
     200000    1    3    3    0    0 -0.27798100526E+03 -0.96323992264E+02  0.63803707793E+03  0.70981974020E+03  0.10100000000E+03 0. -1.
    -200001    1    1    2    0    0  0.10025871461E+03  0.24425737308E+03  0.17108758690E+04  0.18364581981E+04  0.61300000000E+03 0.  1.
<mgrwt>
<rscale>  0 0.14271733E+04</rscale>
<asrwt>0</asrwt>
<pdfrwt beam="1">  1        2 0.37103652E+00 0.14271733E+04</pdfrwt>
<pdfrwt beam="2">  1       -2 0.28007910E-01 0.14271733E+04</pdfrwt>
<totfact> 0.44466307E+01</totfact>
</mgrwt>
</event>
<event>
 8    1  0.7685004E-052  0.1410147E+04  0.7818608E-02  0.8946506E-01
          2   -1    0    0  501    0  0.00000000000E+00  0.00000000000E+00  0.18249126485E+04  0.18249126485E+04  0.25500000000E-02 0.  1.
         -2   -1    0    0    0  501 -0.00000000000E+00 -0.00000000000E+00 -0.27241222887E+03  0.27241222888E+03  0.25500000000E-02 0. -1.
     200001    2    1    2    0    0  0.11020032853E+03  0.33058167601E+03  0.76358929727E+03  0.10392236932E+04  0.61277150128E+03 0.  0.
    5000001    2    3    3    0    0  0.16875893027E+03  0.78445785560E+02  0.72892924285E+03  0.75921666394E+03  0.10217036710E+03 0.  0.
        -13    1    4    4    0    0  0.44681133538E+02 -0.10956928778E+02  0.28584295953E+03  0.28952144421E+03  0.10566000000E+00 0. -1.
     200003    1    4    4    0    0  0.12407779673E+03  0.89402714338E+02  0.44308628331E+03  0.46969521973E+03  0.30000000000E+02 0. -1.
     200000    1    3    3    0    0 -0.58558601737E+02  0.25213589045E+03  0.34660054426E+02  0.28000702931E+03  0.10100000000E+03 0. -1.
    -200001    1    1    2    0    0 -0.11020032853E+03 -0.33058167601E+03  0.78891112239E+03  0.10581011842E+04  0.61300000000E+03 0.  1.
<mgrwt>
<rscale>  0 0.14101468E+04</rscale>
<asrwt>0</asrwt>
<pdfrwt beam="1">  1        2 0.26070181E+00 0.14101468E+04</pdfrwt>
<pdfrwt beam="2">  1       -2 0.38916032E-01 0.14101468E+04</pdfrwt>
<totfact> 0.60010359E+01</totfact>
</mgrwt>
</event>
<event>
 8    1  0.7685004E-052  0.1427997E+04  0.7818608E-02  0.8933799E-01
          2   -1    0    0  501    0  0.00000000000E+00  0.00000000000E+00  0.76578195955E+03  0.76578195955E+03  0.25500000000E-02 0.  1.
         -2   -1    0    0    0  501 -0.00000000000E+00 -0.00000000000E+00 -0.66571634615E+03  0.66571634616E+03  0.25500000000E-02 0. -1.
     200001    2    1    2    0    0  0.32981565909E+03 -0.11968276758E+03  0.15448381357E+03  0.72309681337E+03  0.61310799947E+03 0.  0.
    5000001    2    3    3    0    0  0.30655105805E+03 -0.32515933072E+03  0.35132832092E+02  0.46385268818E+03  0.11925962811E+03 0.  0.
        -13    1    4    4    0    0  0.17311926551E+02 -0.80840826996E+02  0.38631399092E+01  0.82763984463E+02  0.10566000000E+00 0. -1.
     200003    1    4    4    0    0  0.28923913150E+03 -0.24431850373E+03  0.31269692183E+02  0.38108870372E+03  0.30000000000E+02 0. -1.
     200000    1    3    3    0    0  0.23264601042E+02  0.20547656315E+03  0.11935098148E+03  0.25924412519E+03  0.10100000000E+03 0. -1.
    -200001    1    1    2    0    0 -0.32981565909E+03  0.11968276758E+03 -0.54418200173E+02  0.70840149234E+03  0.61300000000E+03 0. -1.
<mgrwt>
<rscale>  0 0.14279966E+04</rscale>
<asrwt>0</asrwt>
<pdfrwt beam="1">  1        2 0.10939742E+00 0.14279966E+04</pdfrwt>
<pdfrwt beam="2">  1       -2 0.95102335E-01 0.14279966E+04</pdfrwt>
<totfact> 0.36378575E+01</totfact>
</mgrwt>
</event>
<event>
 8    1  0.7685004E-052  0.1750494E+04  0.7818608E-02  0.8733078E-01
         -2   -1    0    0    0  501 -0.00000000000E+00  0.00000000000E+00  0.48234907564E+03  0.48234907565E+03  0.25500000000E-02 0. -1.
          2   -1    0    0  501    0  0.00000000000E+00 -0.00000000000E+00 -0.15881801505E+04  0.15881801505E+04  0.25500000000E-02 0.  1.
     200001    2    1    2    0    0 -0.22072730559E+03  0.18483498569E+03 -0.12087496279E+04  0.13855140848E+04  0.61293482593E+03 0.  0.
    5000001    2    3    3    0    0 -0.28759364585E+03  0.31822240902E+03 -0.55603328005E+03  0.70838563102E+03  0.93067647307E+02 0.  0.
        -13    1    4    4    0    0  0.20463868756E+01  0.18028754901E+01  0.23578208272E+01  0.36067356940E+01  0.10566000000E+00 0. -1.
     200003    1    4    4    0    0 -0.28964003273E+03  0.31641953353E+03 -0.55839110087E+03  0.70477889532E+03  0.30000000000E+02 0. -1.
     200000    1    3    3    0    0  0.66866340260E+02 -0.13338742332E+03 -0.65271634784E+03  0.67712845377E+03  0.10100000000E+03 0.  1.
    -200001    1    1    2    0    0  0.22072730559E+03 -0.18483498569E+03  0.10291855301E+03  0.68501514138E+03  0.61300000000E+03 0. -1.
<mgrwt>
<rscale>  0 0.17504939E+04</rscale>
<asrwt>0</asrwt>
<pdfrwt beam="1">  1        2 0.22688288E+00 0.17504939E+04</pdfrwt>
<pdfrwt beam="2">  1       -2 0.68907011E-01 0.17504939E+04</pdfrwt>
<totfact> 0.24001657E+01</totfact>
</mgrwt>
</event>
<event>
 8    1  0.7685004E-052  0.1385293E+04  0.7818608E-02  0.8964533E-01
          2   -1    0    0  501    0  0.00000000000E+00  0.00000000000E+00  0.13673227831E+04  0.13673227831E+04  0.25500000000E-02 0.  1.
         -2   -1    0    0    0  501 -0.00000000000E+00 -0.00000000000E+00 -0.35087493570E+03  0.35087493571E+03  0.25500000000E-02 0. -1.
     200001    2    1    2    0    0  0.28842991333E+03 -0.35136462880E+02  0.33353374468E+03  0.75561418601E+03  0.61260236152E+03 0.  0.
    5000001    2    3    3    0    0  0.27385774945E+03 -0.25297438197E+03  0.51275378576E+02  0.38475505886E+03  0.80082370124E+02 0.  0.
        -13    1    4    4    0    0  0.93860791259E+02 -0.13284846136E+03  0.15846442668E+02  0.16343097238E+03  0.10566000000E+00 0. -1.
     200003    1    4    4    0    0  0.17999695819E+03 -0.12012592061E+03  0.35428935908E+02  0.22132408649E+03  0.30000000000E+02 0. -1.
     200000    1    3    3    0    0  0.14572163883E+02  0.21783791909E+03  0.28225836611E+03  0.37085912715E+03  0.10100000000E+03 0. -1.
    -200001    1    1    2    0    0 -0.28842991333E+03  0.35136462880E+02  0.68291410270E+03  0.96258353279E+03  0.61300000000E+03 0.  1.
<mgrwt>
<rscale>  0 0.13852932E+04</rscale>
<asrwt>0</asrwt>
<pdfrwt beam="1">  1        2 0.19533182E+00 0.13852932E+04</pdfrwt>
<pdfrwt beam="2">  1       -2 0.50124993E-01 0.13852932E+04</pdfrwt>
<totfact> 0.63278963E+01</totfact>
</mgrwt>
</event>
<event>
 8    1  0.7685004E-052  0.2313583E+04  0.7818608E-02  0.8472585E-01
         -2   -1    0    0    0  501 -0.00000000000E+00  0.00000000000E+00  0.71037994848E+03  0.71037994849E+03  0.25500000000E-02 0. -1.
          2   -1    0    0  501    0  0.00000000000E+00 -0.00000000000E+00 -0.18837336218E+04  0.18837336218E+04  0.25500000000E-02 0.  1.
     200001    2    1    2    0    0 -0.55029607526E+03  0.23951073093E+03 -0.14569738320E+04  0.16905647033E+04  0.61240926531E+03 0.  0.
    5000001    2    3    3    0    0 -0.37193903454E+02  0.30896204560E+03 -0.59636586499E+03  0.68113694625E+03  0.10702505571E+03 0.  0.
        -13    1    4    4    0    0 -0.43371839539E+01  0.26375064975E+03 -0.50741202602E+03  0.57188302276E+03  0.10566000000E+00 0. -1.
     200003    1    4    4    0    0 -0.32856719500E+02  0.45211395848E+02 -0.88953838970E+02  0.10925392349E+03  0.30000000000E+02 0. -1.
     200000    1    3    3    0    0 -0.51310217180E+03 -0.69451314670E+02 -0.86060796701E+03  0.10094277570E+04  0.10100000000E+03 0.  1.
    -200001    1    1    2    0    0  0.55029607526E+03 -0.23951073093E+03  0.28362015867E+03  0.90354886701E+03  0.61300000000E+03 0. -1.
<mgrwt>
<rscale>  0 0.23135830E+04</rscale>
<asrwt>0</asrwt>
<pdfrwt beam="1">  1        2 0.26910480E+00 0.23135830E+04</pdfrwt>
<pdfrwt beam="2">  1       -2 0.10148285E+00 0.23135830E+04</pdfrwt>
<totfact> 0.66885762E+00</totfact>
</mgrwt>
</event>
<event>
 8    1  0.7685004E-052  0.1535156E+04  0.7818608E-02  0.8861405E-01
          2   -1    0    0  501    0  0.00000000000E+00  0.00000000000E+00  0.32195595533E+04  0.32195595533E+04  0.25500000000E-02 0.  1.
         -2   -1    0    0    0  501 -0.00000000000E+00 -0.00000000000E+00 -0.18299889530E+03  0.18299889532E+03  0.25500000000E-02 0. -1.
     200001    2    1    2    0    0  0.71894994861E+02  0.41943261925E+03  0.11177249933E+04  0.13437257889E+04  0.61253344633E+03 0.  0.
    5000001    2    3    3    0    0  0.19997716898E+03 -0.48754007321E+02  0.54381273439E+03  0.58531953795E+03  0.67073467782E+02 0.  0.
        -13    1    4    4    0    0 -0.42761705058E+01 -0.10350846319E+01  0.79701546567E+01  0.91044804177E+01  0.10566000000E+00 0. -1.
     200003    1    4    4    0    0  0.20425333949E+03 -0.47718922690E+02  0.53584257973E+03  0.57621505754E+03  0.30000000000E+02 0. -1.
     200000    1    3    3    0    0 -0.12808217412E+03  0.46818662657E+03  0.57391225887E+03  0.75840625097E+03  0.10100000000E+03 0. -1.
    -200001    1    1    2    0    0 -0.71894994861E+02 -0.41943261925E+03  0.19188356647E+04  0.20588326597E+04  0.61300000000E+03 0. -1.
<mgrwt>
<rscale>  0 0.15351558E+04</rscale>
<asrwt>0</asrwt>
<pdfrwt beam="1">  1        2 0.45993710E+00 0.15351558E+04</pdfrwt>
<pdfrwt beam="2">  1       -2 0.26142698E-01 0.15351558E+04</pdfrwt>
<totfact> 0.22704420E+01</totfact>
</mgrwt>
</event>
<event>
 8    1  0.7685004E-052  0.1386710E+04  0.7818608E-02  0.8963495E-01
          2   -1    0    0  501    0  0.00000000000E+00  0.00000000000E+00  0.29731415047E+03  0.29731415048E+03  0.25500000000E-02 0.  1.
         -2   -1    0    0    0  501 -0.00000000000E+00 -0.00000000000E+00 -0.16169478111E+04  0.16169478112E+04  0.25500000000E-02 0. -1.
     200001    2    1    2    0    0  0.10145532562E+03 -0.29824055816E+03 -0.55648651109E+03  0.88596084544E+03  0.61319553897E+03 0.  0.
    5000001    2    3    3    0    0 -0.92287257405E+02 -0.37061628113E+03 -0.15318591559E+03  0.42160451235E+03  0.91711909703E+02 0.  0.
        -13    1    4    4    0    0  0.32090349042E+01 -0.33161641650E+02  0.83093742525E+01  0.34337286533E+02  0.10566000000E+00 0. -1.
     200003    1    4    4    0    0 -0.95496292310E+02 -0.33745463948E+03 -0.16149528984E+03  0.38726722581E+03  0.30000000000E+02 0. -1.
     200000    1    3    3    0    0  0.19374258303E+03  0.72375722972E+02 -0.40330059550E+03  0.46435633309E+03  0.10100000000E+03 0.  1.
    -200001    1    1    2    0    0 -0.10145532562E+03  0.29824055816E+03 -0.76314714959E+03  0.10283011162E+04  0.61300000000E+03 0.  1.
<mgrwt>
<rscale>  0 0.13867104E+04</rscale>
<asrwt>0</asrwt>
<pdfrwt beam="1">  1        2 0.42473451E-01 0.13867104E+04</pdfrwt>
<pdfrwt beam="2">  1       -2 0.23099254E+00 0.13867104E+04</pdfrwt>
<totfact> 0.99103603E+00</totfact>
</mgrwt>
</event>
<event>
 8    1  0.7685004E-052  0.1379726E+04  0.7818608E-02  0.8968626E-01
          2   -1    0    0  501    0  0.00000000000E+00  0.00000000000E+00  0.83436093649E+03  0.83436093649E+03  0.25500000000E-02 0.  1.
         -2   -1    0    0    0  501 -0.00000000000E+00 -0.00000000000E+00 -0.57038975203E+03  0.57038975204E+03  0.25500000000E-02 0. -1.
     200001    2    1    2    0    0  0.77585771351E+02 -0.17532726231E+03  0.38837696705E+03  0.75052977816E+03  0.61294296516E+03 0.  0.
    5000001    2    3    3    0    0  0.14599633463E+02  0.20154234885E+03  0.25515791571E+02  0.21399721619E+03  0.65660378025E+02 0.  0.
        -13    1    4    4    0    0  0.21657213807E+01  0.13635266768E+03 -0.13299830642E+01  0.13637639220E+03  0.10566000000E+00 0. -1.
     200003    1    4    4    0    0  0.12433912082E+02  0.65189681170E+02  0.26845774635E+02  0.77620823987E+02  0.30000000000E+02 0. -1.
     200000    1    3    3    0    0  0.62986137888E+02 -0.37686961116E+03  0.36286117548E+03  0.53653256197E+03  0.10100000000E+03 0.  1.
    -200001    1    1    2    0    0 -0.77585771351E+02  0.17532726231E+03 -0.12440578259E+03  0.65422091037E+03  0.61300000000E+03 0. -1.
<mgrwt>
<rscale>  0 0.13797260E+04</rscale>
<asrwt>0</asrwt>
<pdfrwt beam="1">  1        2 0.11919442E+00 0.13797260E+04</pdfrwt>
<pdfrwt beam="2">  1       -2 0.81484250E-01 0.13797260E+04</pdfrwt>
<totfact> 0.46592618E+01</totfact>
</mgrwt>
</event>
<event>
 8    1  0.7685004E-052  0.1511190E+04  0.7818608E-02  0.8877045E-01
          2   -1    0    0  501    0  0.00000000000E+00  0.00000000000E+00  0.32712619575E+04  0.32712619575E+04  0.25500000000E-02 0. -1.
         -2   -1    0    0    0  501 -0.00000000000E+00 -0.00000000000E+00 -0.17452717018E+03  0.17452717020E+03  0.25500000000E-02 0.  1.
     200001    2    1    2    0    0 -0.36369038123E+03 -0.20476476043E+03  0.18819237482E+04  0.20225062460E+04  0.61212353384E+03 0.  0.
    5000001    2    3    3    0    0 -0.34699563872E+03  0.66785648074E+02  0.14945204183E+04  0.15384600925E+04  0.91661765229E+02 0.  0.
        -13    1    4    4    0    0 -0.20222071193E+03  0.54424973982E+02  0.71907298198E+03  0.74894676627E+03  0.10566000000E+00 0. -1.
     200003    1    4    4    0    0 -0.14477492679E+03  0.12360674092E+02  0.77544743636E+03  0.78951332620E+03  0.30000000000E+02 0. -1.
     200000    1    3    3    0    0 -0.16694742510E+02 -0.27155040850E+03  0.38740332982E+03  0.48404615353E+03  0.10100000000E+03 0.  1.
    -200001    1    1    2    0    0  0.36369038123E+03  0.20476476043E+03  0.12148110392E+04  0.14232828817E+04  0.61300000000E+03 0.  1.
<mgrwt>
<rscale>  0 0.15111904E+04</rscale>
<asrwt>0</asrwt>
<pdfrwt beam="1">  1        2 0.46732312E+00 0.15111904E+04</pdfrwt>
<pdfrwt beam="2">  1       -2 0.24932454E-01 0.15111904E+04</pdfrwt>
<totfact> 0.23150350E+01</totfact>
</mgrwt>
</event>
<event>
 8    1  0.7685004E-052  0.1571935E+04  0.7818608E-02  0.8837978E-01
         -2   -1    0    0    0  501 -0.00000000000E+00  0.00000000000E+00  0.42847853927E+03  0.42847853928E+03  0.25500000000E-02 0. -1.
          2   -1    0    0  501    0  0.00000000000E+00 -0.00000000000E+00 -0.14417167034E+04  0.14417167034E+04  0.25500000000E-02 0.  1.
     200001    2    1    2    0    0 -0.48720453422E+03 -0.65763201306E+02 -0.53170698356E+03  0.94860187540E+03  0.61273170705E+03 0.  0.
    5000001    2    3    3    0    0 -0.38311725881E+03 -0.26085898912E+03 -0.52515353999E+03  0.70541372818E+03  0.83642340547E+02 0.  0.
        -13    1    4    4    0    0 -0.25136119507E+03 -0.13240001246E+03 -0.30210713755E+03  0.41470585649E+03  0.10566000000E+00 0. -1.
     200003    1    4    4    0    0 -0.13175606374E+03 -0.12845897666E+03 -0.22304640244E+03  0.29070787169E+03  0.30000000000E+02 0. -1.
     200000    1    3    3    0    0 -0.10408727540E+03  0.19509578781E+03 -0.65534435703E+01  0.24318814722E+03  0.10100000000E+03 0.  1.
    -200001    1    1    2    0    0  0.48720453422E+03  0.65763201306E+02 -0.48153118060E+03  0.92159336732E+03  0.61300000000E+03 0.  1.
<mgrwt>
<rscale>  0 0.15719347E+04</rscale>
<asrwt>0</asrwt>
<pdfrwt beam="1">  1        2 0.20595953E+00 0.15719347E+04</pdfrwt>
<pdfrwt beam="2">  1       -2 0.61211221E-01 0.15719347E+04</pdfrwt>
<totfact> 0.37542733E+01</totfact>
</mgrwt>
</event>
<event>
 8    1  0.7685004E-052  0.1468734E+04  0.7818608E-02  0.8905515E-01
          2   -1    0    0  501    0  0.00000000000E+00  0.00000000000E+00  0.14323086995E+04  0.14323086995E+04  0.25500000000E-02 0.  1.
         -2   -1    0    0    0  501 -0.00000000000E+00 -0.00000000000E+00 -0.37652117212E+03  0.37652117213E+03  0.25500000000E-02 0. -1.
     200001    2    1    2    0    0  0.36009306161E+03 -0.19186923249E+03  0.51492635966E+03  0.89516657578E+03  0.60802403499E+03 0.  0.
    5000001    2    3    3    0    0  0.34490247090E+03 -0.13204952157E+03  0.50806674123E+02  0.41619138398E+03  0.18503826465E+03 0.  0.
        -13    1    4    4    0    0  0.34186074783E+02  0.44973587304E+01 -0.50122527036E+02  0.60837429475E+02  0.10566000000E+00 0. -1.
     200003    1    4    4    0    0  0.31071639611E+03 -0.13654688030E+03  0.10092920116E+03  0.35535395450E+03  0.30000000000E+02 0. -1.
     200000    1    3    3    0    0  0.15190590710E+02 -0.59819710918E+02  0.46411968554E+03  0.47897519180E+03  0.10100000000E+03 0.  1.
    -200001    1    1    2    0    0 -0.36009306161E+03  0.19186923249E+03  0.54086116767E+03  0.91366329580E+03  0.61300000000E+03 0. -1.
<mgrwt>
<rscale>  0 0.14687335E+04</rscale>
<asrwt>0</asrwt>
<pdfrwt beam="1">  1        2 0.20461553E+00 0.14687335E+04</pdfrwt>
<pdfrwt beam="2">  1       -2 0.53788738E-01 0.14687335E+04</pdfrwt>
<totfact> 0.50177338E+01</totfact>
</mgrwt>
</event>
<event>
 8    1  0.7685004E-052  0.1641926E+04  0.7818608E-02  0.8795197E-01
          2   -1    0    0  501    0  0.00000000000E+00  0.00000000000E+00  0.52247786209E+03  0.52247786209E+03  0.25500000000E-02 0.  1.
         -2   -1    0    0    0  501 -0.00000000000E+00 -0.00000000000E+00 -0.12899690993E+04  0.12899690993E+04  0.25500000000E-02 0. -1.
     200001    2    1    2    0    0 -0.68029155832E+02  0.58825646756E+02  0.20983348537E+03  0.65528619636E+03  0.61423243549E+03 0.  0.
    5000001    2    3    3    0    0 -0.27458926095E+03  0.10829555426E+03 -0.44820459480E+02  0.30863943033E+03  0.78244712712E+02 0.  0.
        -13    1    4    4    0    0 -0.57331552184E+02  0.65435994363E+01  0.14905980173E+02  0.59598028309E+02  0.10566000000E+00 0. -1.
     200003    1    4    4    0    0 -0.21725770876E+03  0.10175195483E+03 -0.59726439653E+02  0.24904140202E+03  0.30000000000E+02 0. -1.
     200000    1    3    3    0    0  0.20656010512E+03 -0.49469907506E+02  0.25465394484E+03  0.34664676603E+03  0.10100000000E+03 0.  1.
    -200001    1    1    2    0    0  0.68029155832E+02 -0.58825646756E+02 -0.97732472256E+03  0.11571607650E+04  0.61300000000E+03 0. -1.
<mgrwt>
<rscale>  0 0.16419261E+04</rscale>
<asrwt>0</asrwt>
<pdfrwt beam="1">  1        2 0.74639695E-01 0.16419261E+04</pdfrwt>
<pdfrwt beam="2">  1       -2 0.18428130E+00 0.16419261E+04</pdfrwt>
<totfact> 0.10352492E+01</totfact>
</mgrwt>
</event>
<event>
 8    1  0.7685004E-052  0.1381179E+04  0.7818608E-02  0.8967556E-01
          2   -1    0    0  501    0  0.00000000000E+00  0.00000000000E+00  0.47899734972E+03  0.47899734973E+03  0.25500000000E-02 0. -1.
         -2   -1    0    0    0  501 -0.00000000000E+00 -0.00000000000E+00 -0.99565038952E+03  0.99565038953E+03  0.25500000000E-02 0.  1.
     200001    2    1    2    0    0 -0.29146205977E+03  0.21597213576E+02 -0.12030009532E+03  0.68833913030E+03  0.61149167897E+03 0.  0.
    5000001    2    3    3    0    0  0.95950491569E+02  0.19936926641E+03 -0.87233982946E+02  0.24903768996E+03  0.73860693328E+02 0.  0.
        -13    1    4    4    0    0  0.37057738618E+01  0.76479000641E+02 -0.32579727485E+02  0.83211898825E+02  0.10566000000E+00 0. -1.
     200003    1    4    4    0    0  0.92244717707E+02  0.12289026576E+03 -0.54654255461E+02  0.16582579113E+03  0.30000000000E+02 0. -1.
     200000    1    3    3    0    0 -0.38741255133E+03 -0.17777205283E+03 -0.33066112373E+02  0.43930144034E+03  0.10100000000E+03 0.  1.
    -200001    1    1    2    0    0  0.29146205977E+03 -0.21597213576E+02 -0.39635294448E+03  0.78630860896E+03  0.61300000000E+03 0.  1.
<mgrwt>
<rscale>  0 0.13811791E+04</rscale>
<asrwt>0</asrwt>
<pdfrwt beam="1">  1        2 0.68428192E-01 0.13811791E+04</pdfrwt>
<pdfrwt beam="2">  1       -2 0.14223577E+00 0.13811791E+04</pdfrwt>
<totfact> 0.23710497E+01</totfact>
</mgrwt>
</event>
<event>
 8    1  0.7685004E-052  0.1740646E+04  0.7818608E-02  0.8738516E-01
         -2   -1    0    0    0  501 -0.00000000000E+00  0.00000000000E+00  0.37358124097E+03  0.37358124098E+03  0.25500000000E-02 0. -1.
          2   -1    0    0  501    0  0.00000000000E+00 -0.00000000000E+00 -0.20275695788E+04  0.20275695788E+04  0.25500000000E-02 0.  1.
     200001    2    1    2    0    0  0.17680905540E+03 -0.50760421292E+03 -0.12470427319E+04  0.14899443639E+04  0.61310288977E+03 0.  0.
    5000001    2    3    3    0    0  0.25675505302E+01 -0.52114515400E+03 -0.11537200818E+04  0.12675627637E+04  0.63611861037E+02 0.  0.
        -13    1    4    4    0    0 -0.10441232124E+02 -0.14726430034E+03 -0.27694335776E+03  0.31383662637E+03  0.10566000000E+00 0. -1.
     200003    1    4    4    0    0  0.13008782655E+02 -0.37388085367E+03 -0.87677672405E+03  0.95372613732E+03  0.30000000000E+02 0. -1.
     200000    1    3    3    0    0  0.17424150487E+03  0.13540941087E+02 -0.93322650040E+02  0.22238160022E+03  0.10100000000E+03 0. -1.
    -200001    1    1    2    0    0 -0.17680905540E+03  0.50760421292E+03 -0.40694560601E+03  0.91120645591E+03  0.61300000000E+03 0.  1.
<mgrwt>
<rscale>  0 0.17406458E+04</rscale>
<asrwt>0</asrwt>
<pdfrwt beam="1">  1        2 0.28965279E+00 0.17406458E+04</pdfrwt>
<pdfrwt beam="2">  1       -2 0.53368750E-01 0.17406458E+04</pdfrwt>
<totfact> 0.24434514E+01</totfact>
</mgrwt>
</event>
<event>
 8    1  0.7685004E-052  0.1988981E+04  0.7818608E-02  0.8611790E-01
          2   -1    0    0  501    0  0.00000000000E+00  0.00000000000E+00  0.12381981193E+04  0.12381981193E+04  0.25500000000E-02 0.  1.
         -2   -1    0    0    0  501 -0.00000000000E+00 -0.00000000000E+00 -0.79875052756E+03  0.79875052756E+03  0.25500000000E-02 0. -1.
     200001    2    1    2    0    0  0.32765903586E+03  0.48385559505E+03 -0.31363878091E+03  0.90364164287E+03  0.61377703867E+03 0.  0.
    5000001    2    3    3    0    0  0.15576239631E+03  0.25954460864E+03  0.15134528288E+03  0.35022041733E+03  0.90131116071E+02 0.  0.
        -13    1    4    4    0    0  0.10851674345E+03  0.10675594365E+03  0.60047345534E+02  0.16364110115E+03  0.10566000000E+00 0. -1.
     200003    1    4    4    0    0  0.47245652860E+02  0.15278866499E+03  0.91297937342E+02  0.18657931618E+03  0.30000000000E+02 0. -1.
     200000    1    3    3    0    0  0.17189663955E+03  0.22431098640E+03 -0.46498406378E+03  0.55342122554E+03  0.10100000000E+03 0. -1.
    -200001    1    1    2    0    0 -0.32765903586E+03 -0.48385559505E+03  0.75308637266E+03  0.11333070040E+04  0.61300000000E+03 0.  1.
<mgrwt>
<rscale>  0 0.19889810E+04</rscale>
<asrwt>0</asrwt>
<pdfrwt beam="1">  1        2 0.17688545E+00 0.19889810E+04</pdfrwt>
<pdfrwt beam="2">  1       -2 0.11410722E+00 0.19889810E+04</pdfrwt>
<totfact> 0.11407926E+01</totfact>
</mgrwt>
</event>
<event>
 8    1  0.7685004E-052  0.1394505E+04  0.7818608E-02  0.8957806E-01
         -2   -1    0    0    0  501 -0.00000000000E+00  0.00000000000E+00  0.28303577148E+03  0.28303577149E+03  0.25500000000E-02 0. -1.
          2   -1    0    0  501    0  0.00000000000E+00 -0.00000000000E+00 -0.17176661713E+04  0.17176661713E+04  0.25500000000E-02 0.  1.
     200001    2    1    2    0    0  0.17725923219E+01 -0.12495829195E+03 -0.27480054875E+03  0.68290377910E+03  0.61255572245E+03 0.  0.
    5000001    2    3    3    0    0  0.65792774236E+02  0.11342864717E+03 -0.37166543271E+03  0.39915966519E+03  0.63233672212E+02 0.  0.
        -13    1    4    4    0    0 -0.46642431089E+01  0.17116756553E+02 -0.20768351952E+02  0.27314357498E+02  0.10566000000E+00 0. -1.
     200003    1    4    4    0    0  0.70457017345E+02  0.96311890617E+02 -0.35089708076E+03  0.37184530769E+03  0.30000000000E+02 0. -1.
     200000    1    3    3    0    0 -0.64020181914E+02 -0.23838693912E+03  0.96864883963E+02  0.28374411391E+03  0.10100000000E+03 0. -1.
    -200001    1    1    2    0    0 -0.17725923219E+01  0.12495829195E+03 -0.11598298511E+04  0.13177981637E+04  0.61300000000E+03 0.  1.
<mgrwt>
<rscale>  0 0.13945049E+04</rscale>
<asrwt>0</asrwt>
<pdfrwt beam="1">  1        2 0.24538088E+00 0.13945049E+04</pdfrwt>
<pdfrwt beam="2">  1       -2 0.40433683E-01 0.13945049E+04</pdfrwt>
<totfact> 0.63352426E+01</totfact>
</mgrwt>
</event>
<event>
 8    1  0.7685004E-052  0.1797398E+04  0.7818608E-02  0.8707684E-01
          2   -1    0    0  501    0  0.00000000000E+00  0.00000000000E+00  0.23046943937E+04  0.23046943937E+04  0.25500000000E-02 0.  1.
         -2   -1    0    0    0  501 -0.00000000000E+00 -0.00000000000E+00 -0.35044129965E+03  0.35044129966E+03  0.25500000000E-02 0. -1.
     200001    2    1    2    0    0  0.39567609729E+01 -0.27843071173E+03  0.95692351602E+02  0.67838169993E+03  0.61115087128E+03 0.  0.
    5000001    2    3    3    0    0 -0.20615158009E+03 -0.21968181960E+03  0.24441716588E+03  0.39568571890E+03  0.77902896800E+02 0.  0.
        -13    1    4    4    0    0 -0.10712382603E+03 -0.77514739661E+02  0.13287367391E+03  0.18745525693E+03  0.10566000000E+00 0. -1.
     200003    1    4    4    0    0 -0.99027754063E+02 -0.14216707994E+03  0.11154349197E+03  0.20823046197E+03  0.30000000000E+02 0. -1.
     200000    1    3    3    0    0  0.21010834106E+03 -0.58748892127E+02 -0.14872481428E+03  0.28269598103E+03  0.10100000000E+03 0. -1.
    -200001    1    1    2    0    0 -0.39567609729E+01  0.27843071173E+03  0.18585607424E+04  0.19767539934E+04  0.61300000000E+03 0.  1.
<mgrwt>
<rscale>  0 0.17973982E+04</rscale>
<asrwt>0</asrwt>
<pdfrwt beam="1">  1        2 0.32924205E+00 0.17973982E+04</pdfrwt>
<pdfrwt beam="2">  1       -2 0.50063043E-01 0.17973982E+04</pdfrwt>
<totfact> 0.19946855E+01</totfact>
</mgrwt>
</event>
<event>
 8    1  0.7685004E-052  0.1389451E+04  0.7818608E-02  0.8961490E-01
          2   -1    0    0  501    0  0.00000000000E+00  0.00000000000E+00  0.10920009800E+04  0.10920009800E+04  0.25500000000E-02 0.  1.
         -2   -1    0    0    0  501 -0.00000000000E+00 -0.00000000000E+00 -0.44198056485E+03  0.44198056486E+03  0.25500000000E-02 0. -1.
     200001    2    1    2    0    0 -0.83512244741E+02  0.30230307661E+03  0.22408389720E+03  0.72431966330E+03  0.61324052093E+03 0.  0.
    5000001    2    3    3    0    0 -0.29209256921E+03  0.30259451810E+03  0.44490493798E+02  0.43112923501E+03  0.83734711228E+02 0.  0.
        -13    1    4    4    0    0 -0.20584526781E+03  0.16570827686E+03  0.25305929324E+02  0.26546545636E+03  0.10566000000E+00 0. -1.
     200003    1    4    4    0    0 -0.86247301408E+02  0.13688624124E+03  0.19184564473E+02  0.16566377865E+03  0.30000000000E+02 0. -1.
     200000    1    3    3    0    0  0.20858032447E+03 -0.29144149553E+00  0.17959340340E+03  0.29319042829E+03  0.10100000000E+03 0.  1.
    -200001    1    1    2    0    0  0.83512244741E+02 -0.30230307661E+03  0.42593651796E+03  0.80966188158E+03  0.61300000000E+03 0.  1.
<mgrwt>
<rscale>  0 0.13894506E+04</rscale>
<asrwt>0</asrwt>
<pdfrwt beam="1">  1        2 0.15600014E+00 0.13894506E+04</pdfrwt>
<pdfrwt beam="2">  1       -2 0.63140080E-01 0.13894506E+04</pdfrwt>
<totfact> 0.55974365E+01</totfact>
</mgrwt>
</event>
<event>
 8    1  0.7685004E-052  0.2117013E+04  0.7818608E-02  0.8553786E-01
         -2   -1    0    0    0  501 -0.00000000000E+00  0.00000000000E+00  0.71181205570E+03  0.71181205570E+03  0.25500000000E-02 0. -1.
          2   -1    0    0  501    0  0.00000000000E+00 -0.00000000000E+00 -0.15740616495E+04  0.15740616495E+04  0.25500000000E-02 0.  1.
     200001    2    1    2    0    0  0.52467863349E+03  0.22285813208E+03 -0.11304739495E+04  0.14068590749E+04  0.61345553273E+03 0.  0.
    5000001    2    3    3    0    0  0.64025904139E+03  0.19577020691E+03 -0.98637695663E+03  0.11945914850E+04  0.76496414172E+02 0.  0.
        -13    1    4    4    0    0  0.34388644676E+03  0.72973756708E+02 -0.52629114281E+03  0.63290239026E+03  0.10566000000E+00 0. -1.
     200003    1    4    4    0    0  0.29637259463E+03  0.12279645020E+03 -0.46008581383E+03  0.56168909471E+03  0.30000000000E+02 0.  1.
     200000    1    3    3    0    0 -0.11558040789E+03  0.27087925176E+02 -0.14409699282E+03  0.21226758989E+03  0.10100000000E+03 0.  1.
    -200001    1    1    2    0    0 -0.52467863349E+03 -0.22285813208E+03  0.26822435562E+03  0.87901463038E+03  0.61300000000E+03 0. -1.
<mgrwt>
<rscale>  0 0.21170130E+04</rscale>
<asrwt>0</asrwt>
<pdfrwt beam="1">  1        2 0.22486595E+00 0.21170130E+04</pdfrwt>
<pdfrwt beam="2">  1       -2 0.10168744E+00 0.21170130E+04</pdfrwt>
<totfact> 0.97998506E+00</totfact>
</mgrwt>
</event>
<event>
 8    1  0.7685004E-052  0.1636729E+04  0.7818608E-02  0.8798296E-01
         -2   -1    0    0    0  501 -0.00000000000E+00  0.00000000000E+00  0.50322800557E+03  0.50322800558E+03  0.25500000000E-02 0. -1.
          2   -1    0    0  501    0  0.00000000000E+00 -0.00000000000E+00 -0.13308490494E+04  0.13308490494E+04  0.25500000000E-02 0.  1.
     200001    2    1    2    0    0 -0.37102551692E+03  0.16101608358E+03 -0.82135933568E+03  0.10996423592E+04  0.60909444783E+03 0.  0.
    5000001    2    3    3    0    0 -0.42100764222E+02  0.12458933823E+03 -0.69565801633E+03  0.73151164542E+03  0.18404954266E+03 0.  0.
        -13    1    4    4    0    0  0.31124894511E+02 -0.73424267526E+01 -0.36960887028E+03  0.37098975517E+03  0.10566000000E+00 0. -1.
     200003    1    4    4    0    0 -0.73225658734E+02  0.13193176498E+03 -0.32604914605E+03  0.36052189025E+03  0.30000000000E+02 0. -1.
     200000    1    3    3    0    0 -0.32892475270E+03  0.36426745348E+02 -0.12570131935E+03  0.36813071374E+03  0.10100000000E+03 0. -1.
    -200001    1    1    2    0    0  0.37102551692E+03 -0.16101608358E+03 -0.62617081091E+01  0.73443469578E+03  0.61300000000E+03 0. -1.
<mgrwt>
<rscale>  0 0.16367291E+04</rscale>
<asrwt>0</asrwt>
<pdfrwt beam="1">  1        2 0.19012129E+00 0.16367291E+04</pdfrwt>
<pdfrwt beam="2">  1       -2 0.71889715E-01 0.16367291E+04</pdfrwt>
<totfact> 0.30336318E+01</totfact>
</mgrwt>
</event>
<event>
 8    1  0.7685004E-052  0.1241812E+04  0.7818608E-02  0.9077026E-01
         -2   -1    0    0    0  501 -0.00000000000E+00  0.00000000000E+00  0.20067491442E+03  0.20067491443E+03  0.25500000000E-02 0. -1.
          2   -1    0    0  501    0  0.00000000000E+00 -0.00000000000E+00 -0.19211375390E+04  0.19211375390E+04  0.25500000000E-02 0.  1.
     200001    2    1    2    0    0 -0.53898870090E+02 -0.10258609334E+00 -0.94828846721E+03  0.11344285220E+04  0.62029989181E+03 0.  0.
    5000001    2    3    3    0    0 -0.31536718196E+01  0.18403655280E+03 -0.84197516144E+03  0.89362607891E+03  0.23614825428E+03 0.  0.
        -13    1    4    4    0    0 -0.63787413983E+02  0.19444597860E+03 -0.75879286532E+03  0.78590374500E+03  0.10566000000E+00 0. -1.
     200003    1    4    4    0    0  0.60633742163E+02 -0.10409425798E+02 -0.83182296122E+02  0.10772233391E+03  0.30000000000E+02 0. -1.
     200000    1    3    3    0    0 -0.50745198271E+02 -0.18413913890E+03 -0.10631330577E+03  0.24080244310E+03  0.10100000000E+03 0. -1.
    -200001    1    1    2    0    0  0.53898870090E+02  0.10258609334E+00 -0.77217415736E+03  0.98738393141E+03  0.61300000000E+03 0.  1.
<mgrwt>
<rscale>  0 0.12418118E+04</rscale>
<asrwt>0</asrwt>
<pdfrwt beam="1">  1        2 0.27444821E+00 0.12418118E+04</pdfrwt>
<pdfrwt beam="2">  1       -2 0.28667846E-01 0.12418118E+04</pdfrwt>
<totfact> 0.96772172E+01</totfact>
</mgrwt>
</event>
<event>
 8    1  0.7685004E-052  0.1707782E+04  0.7818608E-02  0.8756938E-01
          2   -1    0    0  501    0  0.00000000000E+00  0.00000000000E+00  0.30478224250E+04  0.30478224250E+04  0.25500000000E-02 0.  1.
         -2   -1    0    0    0  501 -0.00000000000E+00 -0.00000000000E+00 -0.23922989710E+03  0.23922989711E+03  0.25500000000E-02 0. -1.
     200001    2    1    2    0    0 -0.21824280770E+03  0.20692040017E+03  0.42223515136E+03  0.80493296485E+03  0.61578289984E+03 0.  0.
    5000001    2    3    3    0    0 -0.36296139146E+03 -0.27008325941E+02  0.15645929862E+03  0.40932719987E+03  0.10295058556E+03 0.  0.
        -13    1    4    4    0    0 -0.95037164113E+02  0.24499844432E+02  0.11191029635E+02  0.98780338368E+02  0.10566000000E+00 0. -1.
     200003    1    4    4    0    0 -0.26792422735E+03 -0.51508170373E+02  0.14526826899E+03  0.31054686150E+03  0.30000000000E+02 0. -1.
     200000    1    3    3    0    0  0.14471858376E+03  0.23392872611E+03  0.26577585273E+03  0.39560576498E+03  0.10100000000E+03 0. -1.
    -200001    1    1    2    0    0  0.21824280770E+03 -0.20692040017E+03  0.23863573766E+04  0.24821193573E+04  0.61300000000E+03 0.  1.
<mgrwt>
<rscale>  0 0.17077825E+04</rscale>
<asrwt>0</asrwt>
<pdfrwt beam="1">  1        2 0.43540315E+00 0.17077825E+04</pdfrwt>
<pdfrwt beam="2">  1       -2 0.34175703E-01 0.17077825E+04</pdfrwt>
<totfact> 0.16995810E+01</totfact>
</mgrwt>
</event>
<event>
 8    1  0.7685004E-052  0.1796791E+04  0.7818608E-02  0.8708008E-01
         -2   -1    0    0    0  501 -0.00000000000E+00  0.00000000000E+00  0.14755732002E+04  0.14755732002E+04  0.25500000000E-02 0. -1.
          2   -1    0    0  501    0  0.00000000000E+00 -0.00000000000E+00 -0.54698387640E+03  0.54698387641E+03  0.25500000000E-02 0.  1.
     200001    2    1    2    0    0  0.33884516155E+03  0.38610191011E+03  0.40656185750E+01  0.80009897508E+03  0.61339311389E+03 0.  0.
    5000001    2    3    3    0    0  0.30403337605E+03 -0.22448282105E+02  0.14971026320E+03  0.35340166987E+03  0.97669638267E+02 0.  0.
        -13    1    4    4    0    0  0.26183138352E+03  0.42477546180E+01  0.12186511068E+03  0.28883357350E+03  0.10566000000E+00 0. -1.
     200003    1    4    4    0    0  0.42201992526E+02 -0.26696036723E+02  0.27845152525E+02  0.64568096372E+02  0.30000000000E+02 0. -1.
     200000    1    3    3    0    0  0.34811785504E+02  0.40855019222E+03 -0.14564464463E+03  0.44669730521E+03  0.10100000000E+03 0.  1.
    -200001    1    1    2    0    0 -0.33884516155E+03 -0.38610191011E+03  0.92452370526E+03  0.12224581016E+04  0.61300000000E+03 0. -1.
<mgrwt>
<rscale>  0 0.17967913E+04</rscale>
<asrwt>0</asrwt>
<pdfrwt beam="1">  1        2 0.78140554E-01 0.17967913E+04</pdfrwt>
<pdfrwt beam="2">  1       -2 0.21079617E+00 0.17967913E+04</pdfrwt>
<totfact> 0.64799413E+00</totfact>
</mgrwt>
</event>
<event>
 8    1  0.7685004E-052  0.1898796E+04  0.7818608E-02  0.8655456E-01
          2   -1    0    0  501    0  0.00000000000E+00  0.00000000000E+00  0.80523505944E+03  0.80523505945E+03  0.25500000000E-02 0.  1.
         -2   -1    0    0    0  501 -0.00000000000E+00 -0.00000000000E+00 -0.11193706277E+04  0.11193706277E+04  0.25500000000E-02 0. -1.
     200001    2    1    2    0    0  0.38314735797E+03  0.31825650678E+03 -0.68908674435E+03  0.10502793828E+04  0.61656884343E+03 0.  0.
    5000001    2    3    3    0    0  0.31608442581E+03 -0.64600515411E+02 -0.15073979550E+03  0.37864304248E+03  0.12870694171E+03 0.  0.
        -13    1    4    4    0    0  0.28607718688E+03 -0.29884134252E+02 -0.10169183559E+03  0.30508106943E+03  0.10566000000E+00 0. -1.
     200003    1    4    4    0    0  0.30007238930E+02 -0.34716381159E+02 -0.49047959909E+02  0.73561973058E+02  0.30000000000E+02 0. -1.
     200000    1    3    3    0    0  0.67062932165E+02  0.38285702219E+03 -0.53834694885E+03  0.67163634033E+03  0.10100000000E+03 0. -1.
    -200001    1    1    2    0    0 -0.38314735797E+03 -0.31825650678E+03  0.37495117608E+03  0.87432630435E+03  0.61300000000E+03 0.  1.
<mgrwt>
<rscale>  0 0.18987959E+04</rscale>
<asrwt>0</asrwt>
<pdfrwt beam="1">  1        2 0.11503358E+00 0.18987959E+04</pdfrwt>
<pdfrwt beam="2">  1       -2 0.15991009E+00 0.18987959E+04</pdfrwt>
<totfact> 0.89330533E+00</totfact>
</mgrwt>
</event>
<event>
 8    1  0.7685004E-052  0.1904119E+04  0.7818608E-02  0.8652809E-01
         -2   -1    0    0    0  501 -0.00000000000E+00  0.00000000000E+00  0.52058982351E+03  0.52058982351E+03  0.25500000000E-02 0.  1.
          2   -1    0    0  501    0  0.00000000000E+00 -0.00000000000E+00 -0.17411353423E+04  0.17411353424E+04  0.25500000000E-02 0. -1.
     200001    2    1    2    0    0  0.64084335440E+03  0.34475265243E+03 -0.64590195985E+03  0.11501862254E+04  0.61335504822E+03 0.  0.
    5000001    2    3    3    0    0  0.38462838796E+03  0.43713380576E+03 -0.62539224950E+03  0.85897833622E+03  0.87768760891E+02 0.  0.
        -13    1    4    4    0    0  0.20944240119E+03  0.25931989029E+03 -0.40593157815E+03  0.52525553993E+03  0.10566000000E+00 0. -1.
     200003    1    4    4    0    0  0.17518598677E+03  0.17781391546E+03 -0.21946067135E+03  0.33372279629E+03  0.30000000000E+02 0.  1.
     200000    1    3    3    0    0  0.25621496644E+03 -0.92381153326E+02 -0.20509710350E+02  0.29120788921E+03  0.10100000000E+03 0. -1.
    -200001    1    1    2    0    0 -0.64084335440E+03 -0.34475265243E+03 -0.57464355899E+03  0.11115389404E+04  0.61300000000E+03 0.  1.
<mgrwt>
<rscale>  0 0.19041191E+04</rscale>
<asrwt>0</asrwt>
<pdfrwt beam="1">  1        2 0.24873362E+00 0.19041191E+04</pdfrwt>
<pdfrwt beam="2">  1       -2 0.74369976E-01 0.19041191E+04</pdfrwt>
<totfact> 0.16688748E+01</totfact>
</mgrwt>
</event>
<event>
 8    1  0.7685004E-052  0.1501548E+04  0.7818608E-02  0.8883424E-01
         -2   -1    0    0    0  501 -0.00000000000E+00  0.00000000000E+00  0.17311567508E+04  0.17311567508E+04  0.25500000000E-02 0.  1.
          2   -1    0    0  501    0  0.00000000000E+00 -0.00000000000E+00 -0.32559803415E+03  0.32559803416E+03  0.25500000000E-02 0. -1.
     200001    2    1    2    0    0 -0.91974130310E+02 -0.26805912140E+03  0.25421476047E+03  0.72196010462E+03  0.61342180839E+03 0.  0.
    5000001    2    3    3    0    0  0.81159998811E+02 -0.21468837942E+03  0.38691434404E+03  0.47572029824E+03  0.15469016412E+03 0.  0.
        -13    1    4    4    0    0  0.76614391689E+02 -0.85972237247E+02  0.76337866735E+02  0.13816103522E+03  0.10566000000E+00 0. -1.
     200003    1    4    4    0    0  0.45456071224E+01 -0.12871614217E+03  0.31057647730E+03  0.33755926302E+03  0.30000000000E+02 0. -1.
     200000    1    3    3    0    0 -0.17313412912E+03 -0.53370741981E+02 -0.13269958357E+03  0.24623980638E+03  0.10100000000E+03 0. -1.
    -200001    1    1    2    0    0  0.91974130310E+02  0.26805912140E+03  0.11513439561E+04  0.13347946803E+04  0.61300000000E+03 0.  1.
<mgrwt>
<rscale>  0 0.15015475E+04</rscale>
<asrwt>0</asrwt>
<pdfrwt beam="1">  1        2 0.46514004E-01 0.15015475E+04</pdfrwt>
<pdfrwt beam="2">  1       -2 0.24730811E+00 0.15015475E+04</pdfrwt>
<totfact> 0.70388831E+00</totfact>
</mgrwt>
</event>
<event>
 8    1  0.7685004E-052  0.2334692E+04  0.7818608E-02  0.8464367E-01
         -2   -1    0    0    0  501 -0.00000000000E+00  0.00000000000E+00  0.13571099031E+04  0.13571099031E+04  0.25500000000E-02 0. -1.
          2   -1    0    0  501    0  0.00000000000E+00 -0.00000000000E+00 -0.10041169948E+04  0.10041169948E+04  0.25500000000E-02 0.  1.
     200001    2    1    2    0    0  0.27527451766E+03  0.76504056384E+03 -0.40090600649E+03  0.10942637184E+04  0.61288199107E+03 0.  0.
    5000001    2    3    3    0    0  0.17591455295E+03  0.19281744511E+03 -0.42428241593E+03  0.50429833237E+03  0.78592254614E+02 0.  0.
        -13    1    4    4    0    0  0.17033381178E+02  0.46823305763E+02 -0.46216716545E+02  0.67959944741E+02  0.10566000000E+00 0. -1.
     200003    1    4    4    0    0  0.15888117177E+03  0.14599413935E+03 -0.37806569939E+03  0.43633838763E+03  0.30000000000E+02 0.  1.
     200000    1    3    3    0    0  0.99359964718E+02  0.57222311873E+03  0.23376409444E+02  0.58996538603E+03  0.10100000000E+03 0.  1.
    -200001    1    1    2    0    0 -0.27527451766E+03 -0.76504056384E+03  0.75389891486E+03  0.12669631795E+04  0.61300000000E+03 0. -1.
<mgrwt>
<rscale>  0 0.23346924E+04</rscale>
<asrwt>0</asrwt>
<pdfrwt beam="1">  1        2 0.14344528E+00 0.23346924E+04</pdfrwt>
<pdfrwt beam="2">  1       -2 0.19387284E+00 0.23346924E+04</pdfrwt>
<totfact> 0.37031598E+00</totfact>
</mgrwt>
</event>
<event>
 8    1  0.7685004E-052  0.2437956E+04  0.7818608E-02  0.8425429E-01
         -2   -1    0    0    0  501 -0.00000000000E+00  0.00000000000E+00  0.61002746760E+03  0.61002746761E+03  0.25500000000E-02 0. -1.
          2   -1    0    0  501    0  0.00000000000E+00 -0.00000000000E+00 -0.24358036479E+04  0.24358036479E+04  0.25500000000E-02 0.  1.
     200001    2    1    2    0    0 -0.75653353834E+03  0.68452094471E+03 -0.12426599963E+04  0.17204234792E+04  0.61216105970E+03 0.  0.
    5000001    2    3    3    0    0 -0.45603115113E+03  0.90592609382E+02 -0.31115745398E+03  0.57109735552E+03  0.11472487369E+03 0.  0.
        -13    1    4    4    0    0 -0.19186916905E+03 -0.33317109459E+01 -0.16715131673E+03  0.25448860913E+03  0.10566000000E+00 0. -1.
     200003    1    4    4    0    0 -0.26416198208E+03  0.93924320328E+02 -0.14400613725E+03  0.31660874640E+03  0.30000000000E+02 0. -1.
     200000    1    3    3    0    0 -0.30050238721E+03  0.59392833533E+03 -0.93150254230E+03  0.11493261237E+04  0.10100000000E+03 0.  1.
    -200001    1    1    2    0    0  0.75653353834E+03 -0.68452094471E+03 -0.58311618403E+03  0.13254076363E+04  0.61300000000E+03 0.  1.
<mgrwt>
<rscale>  0 0.24379558E+04</rscale>
<asrwt>0</asrwt>
<pdfrwt beam="1">  1        2 0.34797195E+00 0.24379558E+04</pdfrwt>
<pdfrwt beam="2">  1       -2 0.87146782E-01 0.24379558E+04</pdfrwt>
<totfact> 0.48873708E+00</totfact>
</mgrwt>
</event>
<event>
 8    1  0.7685004E-052  0.1514735E+04  0.7818608E-02  0.8874713E-01
          2   -1    0    0  501    0  0.00000000000E+00  0.00000000000E+00  0.10991182027E+04  0.10991182027E+04  0.25500000000E-02 0.  1.
         -2   -1    0    0    0  501 -0.00000000000E+00 -0.00000000000E+00 -0.52187817653E+03  0.52187817654E+03  0.25500000000E-02 0. -1.
     200001    2    1    2    0    0 -0.38048689793E+03  0.20237593308E+03  0.16676067476E+03  0.76660267859E+03  0.61167331671E+03 0.  0.
    5000001    2    3    3    0    0 -0.25211822887E+02  0.31139897069E+03 -0.47152647629E+02  0.32607309823E+03  0.80593661352E+02 0.  0.
        -13    1    4    4    0    0 -0.32033161968E+02  0.12488241296E+03 -0.46441315167E+02  0.13703484028E+03  0.10566000000E+00 0. -1.
     200003    1    4    4    0    0  0.68213390803E+01  0.18651655772E+03 -0.71133246215E+00  0.18903825794E+03  0.30000000000E+02 0. -1.
     200000    1    3    3    0    0 -0.35527507505E+03 -0.10902303760E+03  0.21391332239E+03  0.44052958036E+03  0.10100000000E+03 0.  1.
    -200001    1    1    2    0    0  0.38048689793E+03 -0.20237593308E+03  0.41047935140E+03  0.85439370065E+03  0.61300000000E+03 0.  1.
<mgrwt>
<rscale>  0 0.15147354E+04</rscale>
<asrwt>0</asrwt>
<pdfrwt beam="1">  1        2 0.15701689E+00 0.15147354E+04</pdfrwt>
<pdfrwt beam="2">  1       -2 0.74554025E-01 0.15147354E+04</pdfrwt>
<totfact> 0.38276854E+01</totfact>
</mgrwt>
</event>
<event>
 8    1  0.7685004E-052  0.1488155E+04  0.7818608E-02  0.8892368E-01
          2   -1    0    0  501    0  0.00000000000E+00  0.00000000000E+00  0.10528020623E+04  0.10528020623E+04  0.25500000000E-02 0.  1.
         -2   -1    0    0    0  501 -0.00000000000E+00 -0.00000000000E+00 -0.52588378384E+03  0.52588378385E+03  0.25500000000E-02 0. -1.
     200001    2    1    2    0    0 -0.36876323501E+03 -0.42061725627E+02  0.52076157837E+02  0.71903501483E+03  0.61363174143E+03 0.  0.
    5000001    2    3    3    0    0 -0.44145752578E+03  0.85924680612E+02 -0.11647099764E+03  0.47352712552E+03  0.91622309021E+02 0.  0.
        -13    1    4    4    0    0 -0.37135023430E+03  0.54375689841E+02 -0.10816078953E+03  0.39058479196E+03  0.10566000000E+00 0. -1.
     200003    1    4    4    0    0 -0.70107291480E+02  0.31548990772E+02 -0.83102081191E+01  0.82942333560E+02  0.30000000000E+02 0.  1.
     200000    1    3    3    0    0  0.72694290770E+02 -0.12798640624E+03  0.16854715548E+03  0.24550788931E+03  0.10100000000E+03 0.  1.
    -200001    1    1    2    0    0  0.36876323501E+03  0.42061725627E+02  0.47484212061E+03  0.85965083130E+03  0.61300000000E+03 0. -1.
<mgrwt>
<rscale>  0 0.14881553E+04</rscale>
<asrwt>0</asrwt>
<pdfrwt beam="1">  1        2 0.15040030E+00 0.14881553E+04</pdfrwt>
<pdfrwt beam="2">  1       -2 0.75126254E-01 0.14881553E+04</pdfrwt>
<totfact> 0.40189042E+01</totfact>
</mgrwt>
</event>
<event>
 8    1  0.7685004E-052  0.1443170E+04  0.7818608E-02  0.8923150E-01
         -2   -1    0    0    0  501 -0.00000000000E+00  0.00000000000E+00  0.33892431667E+03  0.33892431668E+03  0.25500000000E-02 0. -1.
          2   -1    0    0  501    0  0.00000000000E+00 -0.00000000000E+00 -0.15362860986E+04  0.15362860986E+04  0.25500000000E-02 0.  1.
     200001    2    1    2    0    0  0.12159658680E+03 -0.27423771467E+03 -0.90337470800E+03  0.11321159033E+04  0.61286907361E+03 0.  0.
    5000001    2    3    3    0    0  0.24804961566E+03 -0.29457817721E+03 -0.27380054168E+03  0.48175543877E+03  0.93897027873E+02 0.  0.
        -13    1    4    4    0    0  0.82237556582E+01 -0.80291320631E+01 -0.36078655939E+02  0.37865257126E+02  0.10566000000E+00 0. -1.
     200003    1    4    4    0    0  0.23982586001E+03 -0.28654904514E+03 -0.23772188574E+03  0.44389018164E+03  0.30000000000E+02 0. -1.
     200000    1    3    3    0    0 -0.12645302886E+03  0.20340462536E+02 -0.62957416632E+03  0.65036046453E+03  0.10100000000E+03 0.  1.
    -200001    1    1    2    0    0 -0.12159658680E+03  0.27423771467E+03 -0.29398707391E+03  0.74309451195E+03  0.61300000000E+03 0. -1.
<mgrwt>
<rscale>  0 0.14431697E+04</rscale>
<asrwt>0</asrwt>
<pdfrwt beam="1">  1        2 0.21946944E+00 0.14431697E+04</pdfrwt>
<pdfrwt beam="2">  1       -2 0.48417761E-01 0.14431697E+04</pdfrwt>
<totfact> 0.54869268E+01</totfact>
</mgrwt>
</event>
<event>
 8    1  0.7685004E-052  0.1415582E+04  0.7818608E-02  0.8942616E-01
          2   -1    0    0  501    0  0.00000000000E+00  0.00000000000E+00  0.72976390737E+03  0.72976390737E+03  0.25500000000E-02 0.  1.
         -2   -1    0    0    0  501 -0.00000000000E+00 -0.00000000000E+00 -0.68648010128E+03  0.68648010129E+03  0.25500000000E-02 0. -1.
     200001    2    1    2    0    0 -0.11519505619E+03  0.18403218003E+03 -0.25817109447E+03  0.69945826569E+03  0.61274122365E+03 0.  0.
    5000001    2    3    3    0    0 -0.46930810008E+02 -0.21388692342E+03 -0.83356259326E+02  0.24805949876E+03  0.81456319685E+02 0.  0.
        -13    1    4    4    0    0 -0.11750177580E+01  0.61755002451E+01 -0.53498761955E+01  0.82552897800E+01  0.10566000000E+00 0. -1.
     200003    1    4    4    0    0 -0.45755792250E+02 -0.22006242367E+03 -0.78006383130E+02  0.23980420898E+03  0.30000000000E+02 0. -1.
     200000    1    3    3    0    0 -0.68264246184E+02  0.39791910345E+03 -0.17481483515E+03  0.45139876693E+03  0.10100000000E+03 0. -1.
    -200001    1    1    2    0    0  0.11519505619E+03 -0.18403218003E+03  0.30145490056E+03  0.71678574297E+03  0.61300000000E+03 0.  1.
<mgrwt>
<rscale>  0 0.14155824E+04</rscale>
<asrwt>0</asrwt>
<pdfrwt beam="1">  1        2 0.10425199E+00 0.14155824E+04</pdfrwt>
<pdfrwt beam="2">  1       -2 0.98068586E-01 0.14155824E+04</pdfrwt>
<totfact> 0.36003758E+01</totfact>
</mgrwt>
</event>
<event>
 8    1  0.7685004E-052  0.2165590E+04  0.7818608E-02  0.8532888E-01
         -2   -1    0    0    0  501 -0.00000000000E+00  0.00000000000E+00  0.77046664300E+03  0.77046664301E+03  0.25500000000E-02 0. -1.
          2   -1    0    0  501    0  0.00000000000E+00 -0.00000000000E+00 -0.15217335839E+04  0.15217335839E+04  0.25500000000E-02 0.  1.
     200001    2    1    2    0    0 -0.44686782534E+03  0.46861848501E+03 -0.10257774601E+04  0.13592376537E+04  0.61319936709E+03 0.  0.
    5000001    2    3    3    0    0  0.36138705518E+02 -0.10277454411E+03 -0.18808059316E+03  0.23153097933E+03  0.79772626324E+02 0.  0.
        -13    1    4    4    0    0 -0.67981100366E+01 -0.62804666106E+00 -0.56514159336E+02  0.56925127247E+02  0.10566000000E+00 0. -1.
     200003    1    4    4    0    0  0.42936815555E+02 -0.10214649745E+03 -0.13156643383E+03  0.17460585208E+03  0.30000000000E+02 0. -1.
     200000    1    3    3    0    0 -0.48300653086E+03  0.57139302912E+03 -0.83769686695E+03  0.11277066744E+04  0.10100000000E+03 0. -1.
    -200001    1    1    2    0    0  0.44686782534E+03 -0.46861848501E+03  0.27451051922E+03  0.93296257319E+03  0.61300000000E+03 0. -1.
<mgrwt>
<rscale>  0 0.21655900E+04</rscale>
<asrwt>0</asrwt>
<pdfrwt beam="1">  1        2 0.21739051E+00 0.21655900E+04</pdfrwt>
<pdfrwt beam="2">  1       -2 0.11006666E+00 0.21655900E+04</pdfrwt>
<totfact> 0.86016084E+00</totfact>
</mgrwt>
</event>
<event>
 8    1  0.7685004E-052  0.1286768E+04  0.7818608E-02  0.9040124E-01
         -2   -1    0    0    0  501 -0.00000000000E+00  0.00000000000E+00  0.17265359591E+03  0.17265359593E+03  0.25500000000E-02 0. -1.
          2   -1    0    0  501    0  0.00000000000E+00 -0.00000000000E+00 -0.23975363678E+04  0.23975363678E+04  0.25500000000E-02 0.  1.
     200001    2    1    2    0    0 -0.18990167494E+03  0.69632170526E+01 -0.12308668739E+04  0.13869960921E+04  0.61042097406E+03 0.  0.
    5000001    2    3    3    0    0  0.21409082645E+02 -0.11020257700E+03 -0.16381161752E+02  0.14459655705E+03  0.89648564143E+02 0.  0.
        -13    1    4    4    0    0 -0.18721801019E+01 -0.10499121470E+03 -0.16307417175E+02  0.10626666101E+03  0.10566000000E+00 0. -1.
     200003    1    4    4    0    0  0.23281262747E+02 -0.52113622954E+01 -0.73744576624E-01  0.38329896039E+02  0.30000000000E+02 0. -1.
     200000    1    3    3    0    0 -0.21131075758E+03  0.11716579405E+03 -0.12144857122E+04  0.12423995350E+04  0.10100000000E+03 0.  1.
    -200001    1    1    2    0    0  0.18990167494E+03 -0.69632170526E+01 -0.99401589799E+03  0.11831938717E+04  0.61300000000E+03 0. -1.
<mgrwt>
<rscale>  0 0.12867685E+04</rscale>
<asrwt>0</asrwt>
<pdfrwt beam="1">  1        2 0.34250518E+00 0.12867685E+04</pdfrwt>
<pdfrwt beam="2">  1       -2 0.24664801E-01 0.12867685E+04</pdfrwt>
<totfact> 0.72196130E+01</totfact>
</mgrwt>
</event>
<event>
 8    1  0.7685004E-052  0.1548599E+04  0.7818608E-02  0.8852763E-01
         -2   -1    0    0    0  501 -0.00000000000E+00  0.00000000000E+00  0.21923654413E+03  0.21923654414E+03  0.25500000000E-02 0. -1.
          2   -1    0    0  501    0  0.00000000000E+00 -0.00000000000E+00 -0.27346713435E+04  0.27346713435E+04  0.25500000000E-02 0.  1.
     200001    2    1    2    0    0 -0.10334864853E+03 -0.34929646862E+03 -0.18333407833E+04  0.19671403299E+04  0.61303644585E+03 0.  0.
    5000001    2    3    3    0    0 -0.34809863770E+03 -0.22418588649E+03 -0.10995511769E+04  0.11770748888E+04  0.71137400962E+02 0.  0.
        -13    1    4    4    0    0 -0.18164855698E+03 -0.10266820179E+03 -0.47784177100E+03  0.52141128410E+03  0.10566000000E+00 0. -1.
     200003    1    4    4    0    0 -0.16645008072E+03 -0.12151768470E+03 -0.62170940591E+03  0.65566360466E+03  0.30000000000E+02 0. -1.
     200000    1    3    3    0    0  0.24474998917E+03 -0.12511058213E+03 -0.73378960636E+03  0.79006544119E+03  0.10100000000E+03 0.  1.
    -200001    1    1    2    0    0  0.10334864853E+03  0.34929646862E+03 -0.68209401612E+03  0.98676755772E+03  0.61300000000E+03 0. -1.
<mgrwt>
<rscale>  0 0.15485992E+04</rscale>
<asrwt>0</asrwt>
<pdfrwt beam="1">  1        2 0.39066731E+00 0.15485992E+04</pdfrwt>
<pdfrwt beam="2">  1       -2 0.31319508E-01 0.15485992E+04</pdfrwt>
<totfact> 0.30197396E+01</totfact>
</mgrwt>
</event>
<event>
 8    1  0.7685004E-052  0.1697177E+04  0.7818608E-02  0.8762976E-01
         -2   -1    0    0    0  501 -0.00000000000E+00  0.00000000000E+00  0.88538883236E+03  0.88538883237E+03  0.25500000000E-02 0. -1.
          2   -1    0    0  501    0  0.00000000000E+00 -0.00000000000E+00 -0.81331810827E+03  0.81331810828E+03  0.25500000000E-02 0.  1.
     200001    2    1    2    0    0  0.62339632167E+02 -0.50748287466E+02 -0.54576810521E+03  0.82466149708E+03  0.61297809233E+03 0.  0.
    5000001    2    3    3    0    0 -0.18256043620E+03  0.15232220737E+03 -0.10940278596E+03  0.27527150699E+03  0.85293993120E+02 0.  0.
        -13    1    4    4    0    0 -0.15343597397E+03  0.13486439287E+03 -0.10516874128E+03  0.22976396122E+03  0.10566000000E+00 0. -1.
     200003    1    4    4    0    0 -0.29124462229E+02  0.17457814505E+02 -0.42340446801E+01  0.45507545767E+02  0.30000000000E+02 0. -1.
     200000    1    3    3    0    0  0.24490006837E+03 -0.20307049484E+03 -0.43636531925E+03  0.54938999009E+03  0.10100000000E+03 0.  1.
    -200001    1    1    2    0    0 -0.62339632167E+02  0.50748287466E+02  0.61783882930E+03  0.87404544356E+03  0.61300000000E+03 0. -1.
<mgrwt>
<rscale>  0 0.16971774E+04</rscale>
<asrwt>0</asrwt>
<pdfrwt beam="1">  1        2 0.11618830E+00 0.16971774E+04</pdfrwt>
<pdfrwt beam="2">  1       -2 0.12648412E+00 0.16971774E+04</pdfrwt>
<totfact> 0.16524846E+01</totfact>
</mgrwt>
</event>
<event>
 8    1  0.7685004E-052  0.1656081E+04  0.7818608E-02  0.8786817E-01
         -2   -1    0    0    0  501 -0.00000000000E+00  0.00000000000E+00  0.68451892653E+03  0.68451892654E+03  0.25500000000E-02 0. -1.
          2   -1    0    0  501    0  0.00000000000E+00 -0.00000000000E+00 -0.10016539072E+04  0.10016539072E+04  0.25500000000E-02 0.  1.
     200001    2    1    2    0    0 -0.28057504341E+03 -0.17183832183E+03  0.29951388321E+03  0.75650860126E+03  0.61183815974E+03 0.  0.
    5000001    2    3    3    0    0  0.85160868507E+02 -0.20554838230E+03 -0.47444097978E+02  0.24126112077E+03  0.80333523320E+02 0.  0.
        -13    1    4    4    0    0  0.72246285182E+02 -0.10300562505E+03 -0.44978077342E+02  0.13361408279E+03  0.10566000000E+00 0. -1.
     200003    1    4    4    0    0  0.12914583325E+02 -0.10254275725E+03 -0.24660206358E+01  0.10764703798E+03  0.30000000000E+02 0. -1.
     200000    1    3    3    0    0 -0.36573591192E+03  0.33710060469E+02  0.34695798119E+03  0.51524748049E+03  0.10100000000E+03 0. -1.
    -200001    1    1    2    0    0  0.28057504341E+03  0.17183832183E+03 -0.61664886390E+03  0.92966423250E+03  0.61300000000E+03 0.  1.
<mgrwt>
<rscale>  0 0.16560810E+04</rscale>
<asrwt>0</asrwt>
<pdfrwt beam="1">  1        2 0.14309342E+00 0.16560810E+04</pdfrwt>
<pdfrwt beam="2">  1       -2 0.97788418E-01 0.16560810E+04</pdfrwt>
<totfact> 0.23360597E+01</totfact>
</mgrwt>
</event>
<event>
 8    1  0.7685004E-052  0.1338037E+04  0.7818608E-02  0.8999934E-01
          2   -1    0    0  501    0  0.00000000000E+00  0.00000000000E+00  0.18432864661E+04  0.18432864661E+04  0.25500000000E-02 0.  1.
         -2   -1    0    0    0  501 -0.00000000000E+00 -0.00000000000E+00 -0.24281931528E+03  0.24281931529E+03  0.25500000000E-02 0. -1.
     200001    2    1    2    0    0 -0.17093941715E+03  0.18813220167E+03  0.66742056995E+03  0.94113463253E+03  0.61291938272E+03 0.  0.
    5000001    2    3    3    0    0  0.17555141792E+03  0.21164112325E+03  0.40356121627E+03  0.49343905883E+03  0.70782654109E+02 0.  0.
        -13    1    4    4    0    0  0.14714094891E+03  0.15431895173E+03  0.30714113219E+03  0.37389902909E+03  0.10566000000E+00 0. -1.
     200003    1    4    4    0    0  0.28410469014E+02  0.57322171515E+02  0.96420084081E+02  0.11954002974E+03  0.30000000000E+02 0.  1.
     200000    1    3    3    0    0 -0.34649083507E+03 -0.23508921575E+02  0.26385935368E+03  0.44769557370E+03  0.10100000000E+03 0.  1.
    -200001    1    1    2    0    0  0.17093941715E+03 -0.18813220167E+03  0.93304658088E+03  0.11449711489E+04  0.61300000000E+03 0. -1.
<mgrwt>
<rscale>  0 0.13380367E+04</rscale>
<asrwt>0</asrwt>
<pdfrwt beam="1">  1        2 0.26332664E+00 0.13380367E+04</pdfrwt>
<pdfrwt beam="2">  1       -2 0.34688474E-01 0.13380367E+04</pdfrwt>
<totfact> 0.73665609E+01</totfact>
</mgrwt>
</event>
<event>
 8    1  0.7685004E-052  0.1400100E+04  0.7818608E-02  0.8953746E-01
         -2   -1    0    0    0  501 -0.00000000000E+00  0.00000000000E+00  0.25346813947E+03  0.25346813949E+03  0.25500000000E-02 0. -1.
          2   -1    0    0  501    0  0.00000000000E+00 -0.00000000000E+00 -0.19334582579E+04  0.19334582579E+04  0.25500000000E-02 0.  1.
     200001    2    1    2    0    0  0.29542398577E+03 -0.92113503633E+02 -0.64061510104E+03  0.94120184690E+03  0.61620855237E+03 0.  0.
    5000001    2    3    3    0    0 -0.72456275209E+02 -0.61387649490E+02 -0.52471485022E+03  0.54130957057E+03  0.93123690992E+02 0.  0.
        -13    1    4    4    0    0 -0.62241585511E+02 -0.18871516675E+02 -0.40750055938E+03  0.41265829226E+03  0.10566000000E+00 0. -1.
     200003    1    4    4    0    0 -0.10214689698E+02 -0.42516132815E+02 -0.11721429084E+03  0.12865127832E+03  0.30000000000E+02 0. -1.
     200000    1    3    3    0    0  0.36788026098E+03 -0.30725854144E+02 -0.11590025082E+03  0.39989227633E+03  0.10100000000E+03 0. -1.
    -200001    1    1    2    0    0 -0.29542398577E+03  0.92113503633E+02 -0.10393750174E+04  0.12457245505E+04  0.61300000000E+03 0. -1.
<mgrwt>
<rscale>  0 0.14001001E+04</rscale>
<asrwt>0</asrwt>
<pdfrwt beam="1">  1        2 0.27620831E+00 0.14001001E+04</pdfrwt>
<pdfrwt beam="2">  1       -2 0.36209735E-01 0.14001001E+04</pdfrwt>
<totfact> 0.60702388E+01</totfact>
</mgrwt>
</event>
<event>
 8    1  0.7685004E-052  0.1369675E+04  0.7818608E-02  0.8976067E-01
          2   -1    0    0  501    0  0.00000000000E+00  0.00000000000E+00  0.25052674533E+04  0.25052674533E+04  0.25500000000E-02 0.  1.
         -2   -1    0    0    0  501 -0.00000000000E+00 -0.00000000000E+00 -0.18720650050E+03  0.18720650052E+03  0.25500000000E-02 0. -1.
     200001    2    1    2    0    0  0.25278596356E+03 -0.15086930152E+03  0.12838908643E+04  0.14547586952E+04  0.61748264773E+03 0.  0.
    5000001    2    3    3    0    0  0.26690479854E+03 -0.12711996567E+02  0.12486626375E+04  0.12794623450E+04  0.80409848620E+02 0.  0.
        -13    1    4    4    0    0  0.12924677549E+03  0.16051881432E+02  0.71507055915E+03  0.72683444305E+03  0.10566000000E+00 0. -1.
     200003    1    4    4    0    0  0.13765802304E+03 -0.28763877999E+02  0.53359207834E+03  0.55262790199E+03  0.30000000000E+02 0. -1.
     200000    1    3    3    0    0 -0.14118834978E+02 -0.13815730496E+03  0.35228226829E+02  0.17529635016E+03  0.10100000000E+03 0. -1.
    -200001    1    1    2    0    0 -0.25278596356E+03  0.15086930152E+03  0.10341700884E+04  0.12377152586E+04  0.61300000000E+03 0.  1.
<mgrwt>
<rscale>  0 0.13696749E+04</rscale>
<asrwt>0</asrwt>
<pdfrwt beam="1">  1        2 0.35789535E+00 0.13696749E+04</pdfrwt>
<pdfrwt beam="2">  1       -2 0.26743786E-01 0.13696749E+04</pdfrwt>
<totfact> 0.54378259E+01</totfact>
</mgrwt>
</event>
<event>
 8    1  0.7685004E-052  0.1447350E+04  0.7818608E-02  0.8920239E-01
         -2   -1    0    0    0  501 -0.00000000000E+00  0.00000000000E+00  0.22287019800E+03  0.22287019801E+03  0.25500000000E-02 0. -1.
          2   -1    0    0  501    0  0.00000000000E+00 -0.00000000000E+00 -0.23498240986E+04  0.23498240986E+04  0.25500000000E-02 0.  1.
     200001    2    1    2    0    0 -0.46042370765E+02  0.21747839524E+03 -0.50491967957E+03  0.82450072423E+03  0.61273224914E+03 0.  0.
    5000001    2    3    3    0    0  0.35249916131E+02 -0.39905331235E+02  0.10763564206E+03  0.14753703199E+03  0.85713198037E+02 0.  0.
        -13    1    4    4    0    0  0.21082800453E+02  0.73672106501E+01  0.80844508892E+02  0.83872558383E+02  0.10566000000E+00 0. -1.
     200003    1    4    4    0    0  0.14167115678E+02 -0.47272541885E+02  0.26791133168E+02  0.63664473604E+02  0.30000000000E+02 0. -1.
     200000    1    3    3    0    0 -0.81292286896E+02  0.25738372647E+03 -0.61255532163E+03  0.67696369224E+03  0.10100000000E+03 0.  1.
    -200001    1    1    2    0    0  0.46042370765E+02 -0.21747839524E+03 -0.16220342210E+04  0.17481935723E+04  0.61300000000E+03 0.  1.
<mgrwt>
<rscale>  0 0.14473504E+04</rscale>
<asrwt>0</asrwt>
<pdfrwt beam="1">  1        2 0.33568914E+00 0.14473504E+04</pdfrwt>
<pdfrwt beam="2">  1       -2 0.31838601E-01 0.14473504E+04</pdfrwt>
<totfact> 0.47131361E+01</totfact>
</mgrwt>
</event>
<event>
 8    1  0.7685004E-052  0.1245359E+04  0.7818608E-02  0.9074055E-01
         -2   -1    0    0    0  501 -0.00000000000E+00  0.00000000000E+00  0.22472065319E+03  0.22472065321E+03  0.25500000000E-02 0. -1.
          2   -1    0    0  501    0  0.00000000000E+00 -0.00000000000E+00 -0.17253841564E+04  0.17253841564E+04  0.25500000000E-02 0.  1.
     200001    2    1    2    0    0  0.57824248860E+02  0.72068719299E+02 -0.66708220096E+03  0.91127646407E+03  0.61391252395E+03 0.  0.
    5000001    2    3    3    0    0 -0.15951509740E+03 -0.17848099929E+03 -0.41008637848E+03  0.47969865452E+03  0.68113346153E+02 0.  0.
        -13    1    4    4    0    0  0.46772630802E+01 -0.12880567536E+02 -0.20444867396E+02  0.24612792951E+02  0.10566000000E+00 0. -1.
     200003    1    4    4    0    0 -0.16419236048E+03 -0.16560043176E+03 -0.38964151108E+03  0.45508586157E+03  0.30000000000E+02 0. -1.
     200000    1    3    3    0    0  0.21733934626E+03  0.25054971859E+03 -0.25699582249E+03  0.43157780955E+03  0.10100000000E+03 0. -1.
    -200001    1    1    2    0    0 -0.57824248860E+02 -0.72068719299E+02 -0.83358130227E+03  0.10388283456E+04  0.61300000000E+03 0.  1.
<mgrwt>
<rscale>  0 0.12453585E+04</rscale>
<asrwt>0</asrwt>
<pdfrwt beam="1">  1        2 0.24648344E+00 0.12453585E+04</pdfrwt>
<pdfrwt beam="2">  1       -2 0.32102951E-01 0.12453585E+04</pdfrwt>
<totfact> 0.98801552E+01</totfact>
</mgrwt>
</event>
<event>
 8    1  0.7685004E-052  0.1777969E+04  0.7818608E-02  0.8718104E-01
          2   -1    0    0  501    0  0.00000000000E+00  0.00000000000E+00  0.11389084808E+04  0.11389084808E+04  0.25500000000E-02 0.  1.
         -2   -1    0    0    0  501 -0.00000000000E+00 -0.00000000000E+00 -0.69390439562E+03  0.69390439563E+03  0.25500000000E-02 0. -1.
     200001    2    1    2    0    0 -0.10441019553E+03 -0.47815826894E+03  0.65378307900E+03  0.10210897171E+04  0.61290707040E+03 0.  0.
    5000001    2    3    3    0    0  0.24185688656E+03 -0.15772511701E+03  0.32107844654E+03  0.43502515630E+03  0.52759375150E+02 0.  0.
        -13    1    4    4    0    0  0.15214026059E+03 -0.87377971577E+02  0.18438970774E+03  0.25452140243E+03  0.10566000000E+00 0. -1.
     200003    1    4    4    0    0  0.89716625967E+02 -0.70347145430E+02  0.13668873880E+03  0.18050375387E+03  0.30000000000E+02 0.  1.
     200000    1    3    3    0    0 -0.34626708210E+03 -0.32043315193E+03  0.33270463246E+03  0.58606456083E+03  0.10100000000E+03 0. -1.
    -200001    1    1    2    0    0  0.10441019553E+03  0.47815826894E+03 -0.20877899383E+03  0.81172315930E+03  0.61300000000E+03 0. -1.
<mgrwt>
<rscale>  0 0.17779692E+04</rscale>
<asrwt>0</asrwt>
<pdfrwt beam="1">  1        2 0.16270121E+00 0.17779692E+04</pdfrwt>
<pdfrwt beam="2">  1       -2 0.99129200E-01 0.17779692E+04</pdfrwt>
<totfact> 0.18544976E+01</totfact>
</mgrwt>
</event>
<event>
 8    1  0.7685004E-052  0.2247475E+04  0.7818608E-02  0.8498924E-01
          2   -1    0    0  501    0  0.00000000000E+00  0.00000000000E+00  0.56836787941E+03  0.56836787941E+03  0.25500000000E-02 0.  1.
         -2   -1    0    0    0  501 -0.00000000000E+00 -0.00000000000E+00 -0.22217764959E+04  0.22217764959E+04  0.25500000000E-02 0. -1.
     200001    2    1    2    0    0 -0.73747080926E+03  0.62740716486E+02 -0.15494357833E+04  0.18235115898E+04  0.61371302695E+03 0.  0.
    5000001    2    3    3    0    0 -0.34888734890E+03 -0.16431438967E+03 -0.31419301963E+03  0.50496056228E+03  0.86869528580E+02 0.  0.
        -13    1    4    4    0    0 -0.15116268400E+03 -0.32702267749E+02 -0.10401667261E+03  0.18638421257E+03  0.10566000000E+00 0. -1.
     200003    1    4    4    0    0 -0.19772466490E+03 -0.13161212192E+03 -0.21017634702E+03  0.31857634971E+03  0.30000000000E+02 0. -1.
     200000    1    3    3    0    0 -0.38858346036E+03  0.22705510616E+03 -0.12352427637E+04  0.13185510275E+04  0.10100000000E+03 0. -1.
    -200001    1    1    2    0    0  0.73747080926E+03 -0.62740716486E+02 -0.10397283317E+03  0.96663278552E+03  0.61300000000E+03 0.  1.
<mgrwt>
<rscale>  0 0.22474754E+04</rscale>
<asrwt>0</asrwt>
<pdfrwt beam="1">  1        2 0.81195412E-01 0.22474754E+04</pdfrwt>
<pdfrwt beam="2">  1       -2 0.31739664E+00 0.22474754E+04</pdfrwt>
<totfact> 0.13149768E+00</totfact>
</mgrwt>
</event>
<event>
 8    1  0.7685004E-052  0.1620707E+04  0.7818608E-02  0.8807927E-01
          2   -1    0    0  501    0  0.00000000000E+00  0.00000000000E+00  0.11661177483E+04  0.11661177484E+04  0.25500000000E-02 0.  1.
         -2   -1    0    0    0  501 -0.00000000000E+00 -0.00000000000E+00 -0.56312745820E+03  0.56312745820E+03  0.25500000000E-02 0. -1.
     200001    2    1    2    0    0 -0.89746854805E+02 -0.50346776227E+03  0.45001290990E+03  0.91640736020E+03  0.61298984099E+03 0.  0.
    5000001    2    3    3    0    0 -0.26823341079E+03 -0.47692940852E+02  0.17515454811E+03  0.34602480651E+03  0.12177960307E+03 0.  0.
        -13    1    4    4    0    0 -0.17531642517E+03  0.99499572298E+00  0.55042842443E+02  0.18375680836E+03  0.10566000000E+00 0. -1.
     200003    1    4    4    0    0 -0.92916985620E+02 -0.48687936575E+02  0.12011170566E+03  0.16226799814E+03  0.30000000000E+02 0. -1.
     200000    1    3    3    0    0  0.17848655599E+03 -0.45577482142E+03  0.27485836179E+03  0.57038255369E+03  0.10100000000E+03 0. -1.
    -200001    1    1    2    0    0  0.89746854805E+02  0.50346776227E+03  0.15297738025E+03  0.81283784635E+03  0.61300000000E+03 0. -1.
<mgrwt>
<rscale>  0 0.16207072E+04</rscale>
<asrwt>0</asrwt>
<pdfrwt beam="1">  1        2 0.16658825E+00 0.16207072E+04</pdfrwt>
<pdfrwt beam="2">  1       -2 0.80446780E-01 0.16207072E+04</pdfrwt>
<totfact> 0.29283003E+01</totfact>
</mgrwt>
</event>
<event>
 8    1  0.7685004E-052  0.1525017E+04  0.7818608E-02  0.8867985E-01
          2   -1    0    0  501    0  0.00000000000E+00  0.00000000000E+00  0.22022743687E+04  0.22022743687E+04  0.25500000000E-02 0.  1.
         -2   -1    0    0    0  501 -0.00000000000E+00 -0.00000000000E+00 -0.26400850027E+03  0.26400850028E+03  0.25500000000E-02 0. -1.
     200001    2    1    2    0    0  0.23882314946E+03 -0.32392961091E+03  0.62882104868E+03  0.96548920379E+03  0.61219817202E+03 0.  0.
    5000001    2    3    3    0    0 -0.75314079717E+02  0.11021082884E+03  0.35495661311E+02  0.15963801685E+03  0.80035723617E+02 0.  0.
        -13    1    4    4    0    0 -0.60480781016E+02  0.87749289878E+02  0.48770512910E+02  0.11720254622E+03  0.10566000000E+00 0. -1.
     200003    1    4    4    0    0 -0.14833298701E+02  0.22461538964E+02 -0.13274851599E+02  0.42435470635E+02  0.30000000000E+02 0. -1.
     200000    1    3    3    0    0  0.31413722917E+03 -0.43414043975E+03  0.59332538737E+03  0.80585118693E+03  0.10100000000E+03 0. -1.
    -200001    1    1    2    0    0 -0.23882314946E+03  0.32392961091E+03  0.13094448197E+04  0.15007936652E+04  0.61300000000E+03 0.  1.
<mgrwt>
<rscale>  0 0.15250169E+04</rscale>
<asrwt>0</asrwt>
<pdfrwt beam="1">  1        2 0.31461063E+00 0.15250169E+04</pdfrwt>
<pdfrwt beam="2">  1       -2 0.37715500E-01 0.15250169E+04</pdfrwt>
<totfact> 0.40423312E+01</totfact>
</mgrwt>
</event>
<event>
 8    1  0.7685004E-052  0.1332765E+04  0.7818608E-02  0.9003979E-01
          2   -1    0    0  501    0  0.00000000000E+00  0.00000000000E+00  0.11198594062E+04  0.11198594062E+04  0.25500000000E-02 0.  1.
         -2   -1    0    0    0  501 -0.00000000000E+00 -0.00000000000E+00 -0.39653668638E+03  0.39653668639E+03  0.25500000000E-02 0. -1.
     200001    2    1    2    0    0 -0.16847631725E+03  0.17679072126E+03  0.25636972055E+03  0.70803148911E+03  0.61314266477E+03 0.  0.
    5000001    2    3    3    0    0 -0.21312570770E+03  0.22876396409E+03 -0.93353916015E+02  0.33762305507E+03  0.86711332226E+02 0.  0.
        -13    1    4    4    0    0 -0.79650253960E+02  0.11889270023E+03 -0.10247770269E+02  0.14347356928E+03  0.10566000000E+00 0. -1.
     200003    1    4    4    0    0 -0.13347545374E+03  0.10987126386E+03 -0.83106145746E+02  0.19414948579E+03  0.30000000000E+02 0. -1.
     200000    1    3    3    0    0  0.44649390446E+02 -0.51973242824E+02  0.34972363656E+03  0.37040843404E+03  0.10100000000E+03 0.  1.
    -200001    1    1    2    0    0  0.16847631725E+03 -0.17679072126E+03  0.46695299923E+03  0.80836460344E+03  0.61300000000E+03 0.  1.
<mgrwt>
<rscale>  0 0.13327646E+04</rscale>
<asrwt>0</asrwt>
<pdfrwt beam="1">  1        2 0.15997991E+00 0.13327646E+04</pdfrwt>
<pdfrwt beam="2">  1       -2 0.56648099E-01 0.13327646E+04</pdfrwt>
<totfact> 0.68042319E+01</totfact>
</mgrwt>
</event>
<event>
 8    1  0.7685004E-052  0.1270876E+04  0.7818608E-02  0.9052985E-01
          2   -1    0    0  501    0  0.00000000000E+00  0.00000000000E+00  0.34245611631E+04  0.34245611631E+04  0.25500000000E-02 0.  1.
         -2   -1    0    0    0  501 -0.00000000000E+00 -0.00000000000E+00 -0.11790752544E+03  0.11790752547E+03  0.25500000000E-02 0. -1.
     200001    2    1    2    0    0  0.79647494010E+00 -0.16304415902E+03  0.17450871239E+04  0.18569886356E+04  0.61359081680E+03 0.  0.
    5000001    2    3    3    0    0 -0.42008071596E+02 -0.38034495701E+03  0.10985307254E+04  0.11661282716E+04  0.81599184223E+02 0.  0.
        -13    1    4    4    0    0 -0.45674638785E+02 -0.12377980026E+03  0.41137882703E+03  0.43201870570E+03  0.10566000000E+00 0. -1.
     200003    1    4    4    0    0  0.36665671889E+01 -0.25656515674E+03  0.68715189838E+03  0.73410956595E+03  0.30000000000E+02 0. -1.
     200000    1    3    3    0    0  0.42804546536E+02  0.21730079799E+03  0.64655639847E+03  0.69086036391E+03  0.10100000000E+03 0.  1.
    -200001    1    1    2    0    0 -0.79647494010E+00  0.16304415902E+03  0.15615665138E+04  0.16854800530E+04  0.61300000000E+03 0.  1.
<mgrwt>
<rscale>  0 0.12708761E+04</rscale>
<asrwt>0</asrwt>
<pdfrwt beam="1">  1        2 0.48922291E+00 0.12708761E+04</pdfrwt>
<pdfrwt beam="2">  1       -2 0.16843936E-01 0.12708761E+04</pdfrwt>
<totfact> 0.38450283E+01</totfact>
</mgrwt>
</event>
<event>
 8    1  0.7685004E-052  0.1418465E+04  0.7818608E-02  0.8940560E-01
         -2   -1    0    0    0  501 -0.00000000000E+00  0.00000000000E+00  0.71422820298E+03  0.71422820299E+03  0.25500000000E-02 0. -1.
          2   -1    0    0  501    0  0.00000000000E+00 -0.00000000000E+00 -0.70427202354E+03  0.70427202355E+03  0.25500000000E-02 0.  1.
     200001    2    1    2    0    0  0.11615174514E+03  0.21264054590E+03  0.26905310942E+03  0.71025771949E+03  0.61103946088E+03 0.  0.
    5000001    2    3    3    0    0  0.30958437957E+03  0.16109773206E+03  0.22630485632E+02  0.37709416321E+03  0.14104219828E+03 0.  0.
        -13    1    4    4    0    0  0.20351654035E+03  0.16908627853E+03  0.30238496805E+02  0.26631471915E+03  0.10566000000E+00 0. -1.
     200003    1    4    4    0    0  0.10606783922E+03 -0.79885464678E+01 -0.76080111731E+01  0.11077944405E+03  0.30000000000E+02 0. -1.
     200000    1    3    3    0    0 -0.19343263443E+03  0.51542813837E+02  0.24642262379E+03  0.33316355628E+03  0.10100000000E+03 0.  1.
    -200001    1    1    2    0    0 -0.11615174514E+03 -0.21264054590E+03 -0.25909692998E+03  0.70824250704E+03  0.61300000000E+03 0.  1.
<mgrwt>
<rscale>  0 0.14184653E+04</rscale>
<asrwt>0</asrwt>
<pdfrwt beam="1">  1        2 0.10061029E+00 0.14184653E+04</pdfrwt>
<pdfrwt beam="2">  1       -2 0.10203260E+00 0.14184653E+04</pdfrwt>
<totfact> 0.34251343E+01</totfact>
</mgrwt>
</event>
<event>
 8    1  0.7685004E-052  0.1612558E+04  0.7818608E-02  0.8812870E-01
         -2   -1    0    0    0  501 -0.00000000000E+00  0.00000000000E+00  0.19304486190E+04  0.19304486190E+04  0.25500000000E-02 0. -1.
          2   -1    0    0  501    0  0.00000000000E+00 -0.00000000000E+00 -0.33675385196E+03  0.33675385197E+03  0.25500000000E-02 0.  1.
     200001    2    1    2    0    0  0.22768131732E+02 -0.52248604910E+03  0.88175916167E+03  0.11919669779E+04  0.60809209660E+03 0.  0.
    5000001    2    3    3    0    0 -0.14428127691E+03 -0.31729249983E+03  0.10991200379E+03  0.36979976092E+03  0.56387917862E+02 0.  0.
        -13    1    4    4    0    0 -0.92458942192E+02 -0.16044538777E+03  0.55671628222E+02  0.19336680118E+03  0.10566000000E+00 0. -1.
     200003    1    4    4    0    0 -0.51822334721E+02 -0.15684711206E+03  0.54240375568E+02  0.17643295973E+03  0.30000000000E+02 0. -1.
     200000    1    3    3    0    0  0.16704940864E+03 -0.20519354926E+03  0.77184715788E+03  0.82216721700E+03  0.10100000000E+03 0. -1.
    -200001    1    1    2    0    0 -0.22768131732E+02  0.52248604910E+03  0.71193560536E+03  0.10752354930E+04  0.61300000000E+03 0.  1.
<mgrwt>
<rscale>  0 0.16125582E+04</rscale>
<asrwt>0</asrwt>
<pdfrwt beam="1">  1        2 0.48107693E-01 0.16125582E+04</pdfrwt>
<pdfrwt beam="2">  1       -2 0.27577837E+00 0.16125582E+04</pdfrwt>
<totfact> 0.45052241E+00</totfact>
</mgrwt>
</event>
<event>
 8    1  0.7685004E-052  0.1512802E+04  0.7818608E-02  0.8875984E-01
         -2   -1    0    0    0  501 -0.00000000000E+00  0.00000000000E+00  0.48425582484E+03  0.48425582485E+03  0.25500000000E-02 0. -1.
          2   -1    0    0  501    0  0.00000000000E+00 -0.00000000000E+00 -0.11814879339E+04  0.11814879339E+04  0.25500000000E-02 0.  1.
     200001    2    1    2    0    0  0.13210226076E+03 -0.48353921258E+01 -0.81431637702E+03  0.10278157737E+04  0.61304136444E+03 0.  0.
    5000001    2    3    3    0    0 -0.79125116049E+02  0.19723844673E+03 -0.62733946203E+03  0.66641266388E+03  0.73397882101E+02 0.  0.
        -13    1    4    4    0    0 -0.61046408747E+02  0.15342386995E+03 -0.41125748777E+03  0.44316845590E+03  0.10566000000E+00 0. -1.
     200003    1    4    4    0    0 -0.18078707302E+02  0.43814576779E+02 -0.21608197426E+03  0.22324420798E+03  0.30000000000E+02 0. -1.
     200000    1    3    3    0    0  0.21122737681E+03 -0.20207383886E+03 -0.18697691499E+03  0.36140310984E+03  0.10100000000E+03 0.  1.
    -200001    1    1    2    0    0 -0.13210226076E+03  0.48353921258E+01  0.11708426793E+03  0.63792798505E+03  0.61300000000E+03 0.  1.
<mgrwt>
<rscale>  0 0.15128019E+04</rscale>
<asrwt>0</asrwt>
<pdfrwt beam="1">  1        2 0.16878399E+00 0.15128019E+04</pdfrwt>
<pdfrwt beam="2">  1       -2 0.69179404E-01 0.15128019E+04</pdfrwt>
<totfact> 0.40396244E+01</totfact>
</mgrwt>
</event>
<event>
 8    1  0.7685004E-052  0.1282765E+04  0.7818608E-02  0.9043345E-01
         -2   -1    0    0    0  501 -0.00000000000E+00  0.00000000000E+00  0.21063213295E+03  0.21063213297E+03  0.25500000000E-02 0. -1.
          2   -1    0    0  501    0  0.00000000000E+00 -0.00000000000E+00 -0.19530345100E+04  0.19530345100E+04  0.25500000000E-02 0.  1.
     200001    2    1    2    0    0 -0.14000762624E+03 -0.14676894629E+02 -0.10942564952E+04  0.12605168045E+04  0.60966202963E+03 0.  0.
    5000001    2    3    3    0    0  0.13624687384E+03  0.18059902484E+03 -0.64636959051E+03  0.69020731573E+03  0.86100364331E+02 0.  0.
        -13    1    4    4    0    0  0.40648808243E+01  0.54215684106E+02 -0.19054184866E+03  0.19814658946E+03  0.10566000000E+00 0. -1.
     200003    1    4    4    0    0  0.13218199301E+03  0.12638334074E+03 -0.45582774185E+03  0.49206072627E+03  0.30000000000E+02 0. -1.
     200000    1    3    3    0    0 -0.27625450008E+03 -0.19527591947E+03 -0.44788690469E+03  0.57030948873E+03  0.10100000000E+03 0.  1.
    -200001    1    1    2    0    0  0.14000762624E+03  0.14676894629E+02 -0.64814588180E+03  0.90314983848E+03  0.61300000000E+03 0. -1.
<mgrwt>
<rscale>  0 0.12827655E+04</rscale>
<asrwt>0</asrwt>
<pdfrwt beam="1">  1        2 0.27900492E+00 0.12827655E+04</pdfrwt>
<pdfrwt beam="2">  1       -2 0.30090306E-01 0.12827655E+04</pdfrwt>
<totfact> 0.84926142E+01</totfact>
</mgrwt>
</event>
<event>
 8    1  0.7685004E-052  0.1302331E+04  0.7818608E-02  0.9027719E-01
          2   -1    0    0  501    0  0.00000000000E+00  0.00000000000E+00  0.16135234112E+04  0.16135234112E+04  0.25500000000E-02 0.  1.
         -2   -1    0    0    0  501 -0.00000000000E+00 -0.00000000000E+00 -0.26278917263E+03  0.26278917264E+03  0.25500000000E-02 0. -1.
     200001    2    1    2    0    0 -0.13859545355E+03 -0.99384887451E-01  0.42801813808E+03  0.75989746762E+03  0.61240176775E+03 0.  0.
    5000001    2    3    3    0    0  0.10850909977E+03  0.68194023077E+02 -0.83274196408E+02  0.17908295235E+03  0.93335215853E+02 0.  0.
        -13    1    4    4    0    0  0.62966593374E+02  0.69359140619E+02 -0.20452793760E+02  0.95884358501E+02  0.10566000000E+00 0. -1.
     200003    1    4    4    0    0  0.45542506394E+02 -0.11651175419E+01 -0.62821402647E+02  0.83198593847E+02  0.30000000000E+02 0. -1.
     200000    1    3    3    0    0 -0.24710455332E+03 -0.68293407964E+02  0.51129233449E+03  0.58081451527E+03  0.10100000000E+03 0.  1.
    -200001    1    1    2    0    0  0.13859545355E+03  0.99384887451E-01  0.92271610046E+03  0.11164151162E+04  0.61300000000E+03 0.  1.
<mgrwt>
<rscale>  0 0.13023310E+04</rscale>
<asrwt>0</asrwt>
<pdfrwt beam="1">  1        2 0.23050335E+00 0.13023310E+04</pdfrwt>
<pdfrwt beam="2">  1       -2 0.37541309E-01 0.13023310E+04</pdfrwt>
<totfact> 0.83491174E+01</totfact>
</mgrwt>
</event>
<event>
 8    1  0.7685004E-052  0.1414175E+04  0.7818608E-02  0.8943622E-01
         -2   -1    0    0    0  501 -0.00000000000E+00  0.00000000000E+00  0.31404981164E+03  0.31404981165E+03  0.25500000000E-02 0. -1.
          2   -1    0    0  501    0  0.00000000000E+00 -0.00000000000E+00 -0.15920169237E+04  0.15920169237E+04  0.25500000000E-02 0.  1.
     200001    2    1    2    0    0 -0.77895254632E+02 -0.25412444139E+03 -0.95109026408E+03  0.11622493007E+04  0.61286527400E+03 0.  0.
    5000001    2    3    3    0    0 -0.76375267589E+01 -0.24534912723E+02 -0.84381194062E+03  0.88054530942E+03  0.25036205196E+03 0.  0.
        -13    1    4    4    0    0 -0.68651049976E+02 -0.90914808987E+02 -0.69295317869E+03  0.70225535824E+03  0.10566000000E+00 0. -1.
     200003    1    4    4    0    0  0.61013523217E+02  0.66379896264E+02 -0.15085876193E+03  0.17828995119E+03  0.30000000000E+02 0. -1.
     200000    1    3    3    0    0 -0.70257727873E+02 -0.22958952867E+03 -0.10727832346E+03  0.28170399125E+03  0.10100000000E+03 0. -1.
    -200001    1    1    2    0    0  0.77895254632E+02  0.25412444139E+03 -0.32687684799E+03  0.74381743469E+03  0.61300000000E+03 0. -1.
<mgrwt>
<rscale>  0 0.14141748E+04</rscale>
<asrwt>0</asrwt>
<pdfrwt beam="1">  1        2 0.22743098E+00 0.14141748E+04</pdfrwt>
<pdfrwt beam="2">  1       -2 0.44864260E-01 0.14141748E+04</pdfrwt>
<totfact> 0.59900513E+01</totfact>
</mgrwt>
</event>
<event>
 8    1  0.7685004E-052  0.1838558E+04  0.7818608E-02  0.8686059E-01
         -2   -1    0    0    0  501 -0.00000000000E+00  0.00000000000E+00  0.21822775713E+03  0.21822775714E+03  0.25500000000E-02 0. -1.
          2   -1    0    0  501    0  0.00000000000E+00 -0.00000000000E+00 -0.38724401740E+04  0.38724401740E+04  0.25500000000E-02 0.  1.
     200001    2    1    2    0    0  0.49076431888E+03 -0.15025846794E+03 -0.28367156892E+04  0.29472095263E+04  0.61291179358E+03 0.  0.
    5000001    2    3    3    0    0  0.22558771360E+03 -0.22909642974E+03 -0.22569489888E+04  0.22969292151E+04  0.28051754065E+03 0.  0.
        -13    1    4    4    0    0  0.15009579992E+02 -0.14441446217E+03 -0.39281545145E+03  0.41878970192E+03  0.10566000000E+00 0. -1.
     200003    1    4    4    0    0  0.21057813360E+03 -0.84681967574E+02 -0.18641335373E+04  0.18781395132E+04  0.30000000000E+02 0. -1.
     200000    1    3    3    0    0  0.26517660529E+03  0.78837961801E+02 -0.57976670040E+03  0.65028031118E+03  0.10100000000E+03 0. -1.
    -200001    1    1    2    0    0 -0.49076431888E+03  0.15025846794E+03 -0.81749672772E+03  0.11434584049E+04  0.61300000000E+03 0. -1.
<mgrwt>
<rscale>  0 0.18385581E+04</rscale>
<asrwt>0</asrwt>
<pdfrwt beam="1">  1        2 0.55320570E+00 0.18385581E+04</pdfrwt>
<pdfrwt beam="2">  1       -2 0.31175396E-01 0.18385581E+04</pdfrwt>
<totfact> 0.63103092E+00</totfact>
</mgrwt>
</event>
<event>
 8    1  0.7685004E-052  0.2100211E+04  0.7818608E-02  0.8561150E-01
         -2   -1    0    0    0  501 -0.00000000000E+00  0.00000000000E+00  0.13958938964E+04  0.13958938964E+04  0.25500000000E-02 0. -1.
          2   -1    0    0  501    0  0.00000000000E+00 -0.00000000000E+00 -0.78997533197E+03  0.78997533197E+03  0.25500000000E-02 0.  1.
     200001    2    1    2    0    0 -0.63920475816E+02  0.32210912321E+03 -0.51590920827E+03  0.86598034438E+03  0.61312277008E+03 0.  0.
    5000001    2    3    3    0    0 -0.21901563531E+03  0.36356208966E+03 -0.15507998035E+03  0.45833884913E+03  0.76677628858E+02 0.  0.
        -13    1    4    4    0    0 -0.16515299770E+03  0.22207077135E+03 -0.92603997818E+02  0.29183291746E+03  0.10566000000E+00 0. -1.
     200003    1    4    4    0    0 -0.53862637606E+02  0.14149131831E+03 -0.62475982528E+02  0.16650593166E+03  0.30000000000E+02 0. -1.
     200000    1    3    3    0    0  0.15509515949E+03 -0.41452966447E+02 -0.36082922793E+03  0.40764149525E+03  0.10100000000E+03 0.  1.
    -200001    1    1    2    0    0  0.63920475816E+02 -0.32210912321E+03  0.11218277727E+04  0.13198888840E+04  0.61300000000E+03 0. -1.
<mgrwt>
<rscale>  0 0.21002112E+04</rscale>
<asrwt>0</asrwt>
<pdfrwt beam="1">  1        2 0.11285362E+00 0.21002112E+04</pdfrwt>
<pdfrwt beam="2">  1       -2 0.19941341E+00 0.21002112E+04</pdfrwt>
<totfact> 0.47941559E+00</totfact>
</mgrwt>
</event>
<event>
 8    1  0.7685004E-052  0.1479551E+04  0.7818608E-02  0.8898166E-01
         -2   -1    0    0    0  501 -0.00000000000E+00  0.00000000000E+00  0.13926251266E+03  0.13926251268E+03  0.25500000000E-02 0. -1.
          2   -1    0    0  501    0  0.00000000000E+00 -0.00000000000E+00 -0.39297559440E+04  0.39297559440E+04  0.25500000000E-02 0.  1.
     200001    2    1    2    0    0 -0.29482151793E+03 -0.12838475671E+02 -0.26926399320E+04  0.27774551172E+04  0.61389133468E+03 0.  0.
    5000001    2    3    3    0    0 -0.10886946195E+03 -0.15361318999E+03 -0.12368106219E+04  0.12996067937E+04  0.35189164775E+03 0.  0.
        -13    1    4    4    0    0 -0.21611552134E+03 -0.14753811202E+02 -0.58096205162E+03  0.62003266857E+03  0.10566000000E+00 0. -1.
     200003    1    4    4    0    0  0.10724605939E+03 -0.13885937879E+03 -0.65584857033E+03  0.67957412512E+03  0.30000000000E+02 0. -1.
     200000    1    3    3    0    0 -0.18595205597E+03  0.14077471432E+03 -0.14558293100E+04  0.14778483235E+04  0.10100000000E+03 0.  1.
    -200001    1    1    2    0    0  0.29482151793E+03  0.12838475671E+02 -0.10978534994E+04  0.12915633395E+04  0.61300000000E+03 0. -1.
<mgrwt>
<rscale>  0 0.14795509E+04</rscale>
<asrwt>0</asrwt>
<pdfrwt beam="1">  1        2 0.56139364E+00 0.14795509E+04</pdfrwt>
<pdfrwt beam="2">  1       -2 0.19894647E-01 0.14795509E+04</pdfrwt>
<totfact> 0.13534050E+01</totfact>
</mgrwt>
</event>
<event>
 8    1  0.7685004E-052  0.1726354E+04  0.7818608E-02  0.8746475E-01
         -2   -1    0    0    0  501 -0.00000000000E+00  0.00000000000E+00  0.19229419111E+03  0.19229419113E+03  0.25500000000E-02 0. -1.
          2   -1    0    0  501    0  0.00000000000E+00 -0.00000000000E+00 -0.38746608513E+04  0.38746608513E+04  0.25500000000E-02 0.  1.
     200001    2    1    2    0    0  0.32044996349E+03 -0.29294972860E+01 -0.62458292010E+03  0.93191004082E+03  0.61290761052E+03 0.  0.
    5000001    2    3    3    0    0  0.46286529504E+03 -0.10829244689E+03 -0.38926866782E+03  0.62053040896E+03  0.86927310378E+02 0.  0.
        -13    1    4    4    0    0  0.69186547934E+02 -0.36820265618E+02 -0.93840939823E+02  0.12226464545E+03  0.10566000000E+00 0. -1.
     200003    1    4    4    0    0  0.39367874710E+03 -0.71472181270E+02 -0.29542772800E+03  0.49826576351E+03  0.30000000000E+02 0. -1.
     200000    1    3    3    0    0 -0.14241533155E+03  0.10536294960E+03 -0.23531425228E+03  0.31137963186E+03  0.10100000000E+03 0. -1.
    -200001    1    1    2    0    0 -0.32044996349E+03  0.29294972860E+01 -0.30577837400E+04  0.31350450016E+04  0.61300000000E+03 0.  1.
<mgrwt>
<rscale>  0 0.17263543E+04</rscale>
<asrwt>0</asrwt>
<pdfrwt beam="1">  1        2 0.55352293E+00 0.17263543E+04</pdfrwt>
<pdfrwt beam="2">  1       -2 0.27470601E-01 0.17263543E+04</pdfrwt>
<totfact> 0.80432734E+00</totfact>
</mgrwt>
</event>
<event>
 8    1  0.7685004E-052  0.1412429E+04  0.7818608E-02  0.8944871E-01
          2   -1    0    0  501    0  0.00000000000E+00  0.00000000000E+00  0.12635525254E+04  0.12635525254E+04  0.25500000000E-02 0.  1.
         -2   -1    0    0    0  501 -0.00000000000E+00 -0.00000000000E+00 -0.39471148638E+03  0.39471148639E+03  0.25500000000E-02 0. -1.
     200001    2    1    2    0    0 -0.71044356819E+02  0.14974522574E+03  0.71696624441E+02  0.63910791434E+03  0.61306409694E+03 0.  0.
    5000001    2    3    3    0    0  0.15254798506E+03  0.22324215558E+03 -0.13781886842E+03  0.30821053480E+03  0.53774952326E+02 0.  0.
        -13    1    4    4    0    0  0.28451680811E+01 -0.88882633141E+00  0.14846361286E+01  0.33317115912E+01  0.10566000000E+00 0. -1.
     200003    1    4    4    0    0  0.14970281697E+03  0.22413098191E+03 -0.13930350455E+03  0.30487882321E+03  0.30000000000E+02 0. -1.
     200000    1    3    3    0    0 -0.22359234187E+03 -0.73496929842E+02  0.20951549286E+03  0.33089737954E+03  0.10100000000E+03 0.  1.
    -200001    1    1    2    0    0  0.71044356819E+02 -0.14974522574E+03  0.79714441456E+03  0.10191560974E+04  0.61300000000E+03 0.  1.
<mgrwt>
<rscale>  0 0.14124287E+04</rscale>
<asrwt>0</asrwt>
<pdfrwt beam="1">  1        2 0.18050750E+00 0.14124287E+04</pdfrwt>
<pdfrwt beam="2">  1       -2 0.56387355E-01 0.14124287E+04</pdfrwt>
<totfact> 0.56526318E+01</totfact>
</mgrwt>
</event>
<event>
 8    1  0.7685004E-052  0.1786672E+04  0.7818608E-02  0.8713419E-01
         -2   -1    0    0    0  501 -0.00000000000E+00  0.00000000000E+00  0.11057758388E+04  0.11057758388E+04  0.25500000000E-02 0. -1.
          2   -1    0    0  501    0  0.00000000000E+00 -0.00000000000E+00 -0.72170992873E+03  0.72170992873E+03  0.25500000000E-02 0.  1.
     200001    2    1    2    0    0  0.41495732740E+03 -0.81911534048E+02 -0.31245064257E+03  0.80777826483E+03  0.61317308985E+03 0.  0.
    5000001    2    3    3    0    0  0.19309815309E+03  0.20651456999E+00  0.16642872858E+03  0.26418713241E+03  0.69349692569E+02 0.  0.
        -13    1    4    4    0    0  0.13236517513E+03 -0.17363055164E+02  0.92652736373E+02  0.16250094152E+03  0.10566000000E+00 0. -1.
     200003    1    4    4    0    0  0.60732977955E+02  0.17569569734E+02  0.73775992205E+02  0.10168619089E+03  0.30000000000E+02 0.  1.
     200000    1    3    3    0    0  0.22185917431E+03 -0.82118048618E+02 -0.47887937115E+03  0.54359113242E+03  0.10100000000E+03 0.  1.
    -200001    1    1    2    0    0 -0.41495732740E+03  0.81911534048E+02  0.69651655265E+03  0.10197075027E+04  0.61300000000E+03 0. -1.
<mgrwt>
<rscale>  0 0.17866722E+04</rscale>
<asrwt>0</asrwt>
<pdfrwt beam="1">  1        2 0.10310142E+00 0.17866722E+04</pdfrwt>
<pdfrwt beam="2">  1       -2 0.15796798E+00 0.17866722E+04</pdfrwt>
<totfact> 0.10706244E+01</totfact>
</mgrwt>
</event>
<event>
 8    1  0.7685004E-052  0.1891904E+04  0.7818608E-02  0.8658897E-01
         -2   -1    0    0    0  501 -0.00000000000E+00  0.00000000000E+00  0.49711777965E+03  0.49711777966E+03  0.25500000000E-02 0. -1.
          2   -1    0    0  501    0  0.00000000000E+00 -0.00000000000E+00 -0.18000260193E+04  0.18000260193E+04  0.25500000000E-02 0.  1.
     200001    2    1    2    0    0  0.19923493360E+03  0.32120150481E+03 -0.13963819726E+04  0.15709404499E+04  0.61245923809E+03 0.  0.
    5000001    2    3    3    0    0 -0.99312916624E+02  0.12275950331E+03 -0.87895922643E+03  0.93341606208E+03  0.27159394721E+03 0.  0.
        -13    1    4    4    0    0 -0.68109841282E+02  0.20464769037E+03 -0.69091087427E+03  0.72379380696E+03  0.10566000000E+00 0. -1.
     200003    1    4    4    0    0 -0.31203075343E+02 -0.81888187053E+02 -0.18804835216E+03  0.20962225512E+03  0.30000000000E+02 0. -1.
     200000    1    3    3    0    0  0.29854785023E+03  0.19844200149E+03 -0.51742274615E+03  0.63752438782E+03  0.10100000000E+03 0. -1.
    -200001    1    1    2    0    0 -0.19923493360E+03 -0.32120150481E+03  0.93473732919E+02  0.72620334907E+03  0.61300000000E+03 0. -1.
<mgrwt>
<rscale>  0 0.18919037E+04</rscale>
<asrwt>0</asrwt>
<pdfrwt beam="1">  1        2 0.25714657E+00 0.18919037E+04</pdfrwt>
<pdfrwt beam="2">  1       -2 0.71016827E-01 0.18919037E+04</pdfrwt>
<totfact> 0.17235019E+01</totfact>
</mgrwt>
</event>
<event>
 8    1  0.7685004E-052  0.1995838E+04  0.7818608E-02  0.8608569E-01
          2   -1    0    0  501    0  0.00000000000E+00  0.00000000000E+00  0.65608235682E+03  0.65608235682E+03  0.25500000000E-02 0.  1.
         -2   -1    0    0    0  501 -0.00000000000E+00 -0.00000000000E+00 -0.15178624547E+04  0.15178624547E+04  0.25500000000E-02 0. -1.
     200001    2    1    2    0    0  0.16604375835E+03 -0.55180867318E+03 -0.10152280171E+04  0.13187380498E+04  0.61344826654E+03 0.  0.
    5000001    2    3    3    0    0  0.27443290105E+03 -0.41535995223E+03 -0.32452922258E+03  0.59927138310E+03  0.77263621416E+02 0.  0.
        -13    1    4    4    0    0  0.93866529394E+02 -0.19106044895E+03 -0.11549393567E+03  0.24218563301E+03  0.10566000000E+00 0. -1.
     200003    1    4    4    0    0  0.18056637165E+03 -0.22429950328E+03 -0.20903528691E+03  0.35708575009E+03  0.30000000000E+02 0. -1.
     200000    1    3    3    0    0 -0.10838914270E+03 -0.13644872095E+03 -0.69069879453E+03  0.71946666669E+03  0.10100000000E+03 0.  1.
    -200001    1    1    2    0    0 -0.16604375835E+03  0.55180867318E+03  0.15344791919E+03  0.85520676178E+03  0.61300000000E+03 0.  1.
<mgrwt>
<rscale>  0 0.19958384E+04</rscale>
<asrwt>0</asrwt>
<pdfrwt beam="1">  1        2 0.93726052E-01 0.19958384E+04</pdfrwt>
<pdfrwt beam="2">  1       -2 0.21683749E+00 0.19958384E+04</pdfrwt>
<totfact> 0.47022769E+00</totfact>
</mgrwt>
</event>
<event>
 8    1  0.7685004E-052  0.1575456E+04  0.7818608E-02  0.8835770E-01
          2   -1    0    0  501    0  0.00000000000E+00  0.00000000000E+00  0.64002547587E+03  0.64002547587E+03  0.25500000000E-02 0.  1.
         -2   -1    0    0    0  501 -0.00000000000E+00 -0.00000000000E+00 -0.96951663121E+03  0.96951663121E+03  0.25500000000E-02 0. -1.
     200001    2    1    2    0    0 -0.12844791281E+03 -0.68899797496E+01 -0.65202501550E+03  0.90502565654E+03  0.61431952601E+03 0.  0.
    5000001    2    3    3    0    0 -0.28665366812E+03  0.16620890559E+03 -0.25404705476E+03  0.43218346050E+03  0.11156572842E+03 0.  0.
        -13    1    4    4    0    0 -0.15290154860E+03  0.31500049131E+02 -0.13271006676E+03  0.20489780293E+03  0.10566000000E+00 0. -1.
     200003    1    4    4    0    0 -0.13375211952E+03  0.13470885646E+03 -0.12133698800E+03  0.22728565758E+03  0.30000000000E+02 0. -1.
     200000    1    3    3    0    0  0.15820575531E+03 -0.17309888534E+03 -0.39797796075E+03  0.47284219604E+03  0.10100000000E+03 0. -1.
    -200001    1    1    2    0    0  0.12844791281E+03  0.68899797496E+01  0.32253386017E+03  0.70451645054E+03  0.61300000000E+03 0.  1.
<mgrwt>
<rscale>  0 0.15754559E+04</rscale>
<asrwt>0</asrwt>
<pdfrwt beam="1">  1        2 0.91432211E-01 0.15754559E+04</pdfrwt>
<pdfrwt beam="2">  1       -2 0.13850238E+00 0.15754559E+04</pdfrwt>
<totfact> 0.17852064E+01</totfact>
</mgrwt>
</event>
<event>
 8    1  0.7685004E-052  0.1726369E+04  0.7818608E-02  0.8746466E-01
         -2   -1    0    0    0  501 -0.00000000000E+00  0.00000000000E+00  0.83538029744E+03  0.83538029745E+03  0.25500000000E-02 0. -1.
          2   -1    0    0  501    0  0.00000000000E+00 -0.00000000000E+00 -0.89191455101E+03  0.89191455101E+03  0.25500000000E-02 0.  1.
     200001    2    1    2    0    0  0.15206709265E+03  0.58054872215E+03 -0.12437109699E+03  0.86675312560E+03  0.61288791105E+03 0.  0.
    5000001    2    3    3    0    0 -0.66125645979E+02  0.22695684561E+03  0.19417755001E+03  0.33354629251E+03  0.13291424864E+03 0.  0.
        -13    1    4    4    0    0 -0.77575058382E+02  0.22383844636E+03  0.15641351338E+03  0.28387803382E+03  0.10566000000E+00 0. -1.
     200003    1    4    4    0    0  0.11449412403E+02  0.31183992474E+01  0.37764036632E+02  0.49668258687E+02  0.30000000000E+02 0. -1.
     200000    1    3    3    0    0  0.21819273863E+03  0.35359187654E+03 -0.31854864701E+03  0.53320683309E+03  0.10100000000E+03 0.  1.
    -200001    1    1    2    0    0 -0.15206709265E+03 -0.58054872215E+03  0.67836843428E+02  0.86054172286E+03  0.61300000000E+03 0.  1.
<mgrwt>
<rscale>  0 0.17263694E+04</rscale>
<asrwt>0</asrwt>
<pdfrwt beam="1">  1        2 0.12741636E+00 0.17263694E+04</pdfrwt>
<pdfrwt beam="2">  1       -2 0.11934004E+00 0.17263694E+04</pdfrwt>
<totfact> 0.16875573E+01</totfact>
</mgrwt>
</event>
<event>
 8    1  0.7685004E-052  0.1261707E+04  0.7818608E-02  0.9060495E-01
          2   -1    0    0  501    0  0.00000000000E+00  0.00000000000E+00  0.71216495023E+03  0.71216495023E+03  0.25500000000E-02 0.  1.
         -2   -1    0    0    0  501 -0.00000000000E+00 -0.00000000000E+00 -0.55882619343E+03  0.55882619344E+03  0.25500000000E-02 0. -1.
     200001    2    1    2    0    0 -0.57004249693E+02 -0.69208814534E+02 -0.44818232069E+02  0.62054934248E+03  0.61239976163E+03 0.  0.
    5000001    2    3    3    0    0  0.14422302334E+03 -0.89867050601E+02 -0.24992378482E+03  0.31528148322E+03  0.89800602432E+02 0.  0.
        -13    1    4    4    0    0 -0.49141829959E+00 -0.30765886641E+02 -0.24530271246E+02  0.39351323284E+02  0.10566000000E+00 0. -1.
     200003    1    4    4    0    0  0.14471444164E+03 -0.59101163960E+02 -0.22539351357E+03  0.27593015994E+03  0.30000000000E+02 0. -1.
     200000    1    3    3    0    0 -0.20122727304E+03  0.20658236066E+02  0.20510555275E+03  0.30526785926E+03  0.10100000000E+03 0.  1.
    -200001    1    1    2    0    0  0.57004249693E+02  0.69208814534E+02  0.19815698886E+03  0.65044180118E+03  0.61300000000E+03 0.  1.
<mgrwt>
<rscale>  0 0.12617075E+04</rscale>
<asrwt>0</asrwt>
<pdfrwt beam="1">  1        2 0.10173785E+00 0.12617075E+04</pdfrwt>
<pdfrwt beam="2">  1       -2 0.79832314E-01 0.12617075E+04</pdfrwt>
<totfact> 0.60219657E+01</totfact>
</mgrwt>
</event>
<event>
 8    1  0.7685004E-052  0.1381396E+04  0.7818608E-02  0.8967396E-01
         -2   -1    0    0    0  501 -0.00000000000E+00  0.00000000000E+00  0.40376799224E+03  0.40376799225E+03  0.25500000000E-02 0. -1.
          2   -1    0    0  501    0  0.00000000000E+00 -0.00000000000E+00 -0.11815291261E+04  0.11815291261E+04  0.25500000000E-02 0.  1.
     200001    2    1    2    0    0 -0.58752368801E+02 -0.23282387043E+03 -0.15144138367E+03  0.67661443171E+03  0.61417733679E+03 0.  0.
    5000001    2    3    3    0    0 -0.23375597942E+03 -0.25377736829E+03 -0.35934770838E+02  0.44293069156E+03  0.27541147252E+03 0.  0.
        -13    1    4    4    0    0 -0.12923155812E+03  0.26895360094E+02 -0.51099939803E+02  0.14154635643E+03  0.10566000000E+00 0. -1.
     200003    1    4    4    0    0 -0.10452442131E+03 -0.28067272839E+03  0.15165168965E+02  0.30138433513E+03  0.30000000000E+02 0. -1.
     200000    1    3    3    0    0  0.17500361062E+03  0.20953497860E+02 -0.11550661283E+03  0.23368374015E+03  0.10100000000E+03 0. -1.
    -200001    1    1    2    0    0  0.58752368801E+02  0.23282387043E+03 -0.62631975015E+03  0.90868268659E+03  0.61300000000E+03 0. -1.
<mgrwt>
<rscale>  0 0.13813959E+04</rscale>
<asrwt>0</asrwt>
<pdfrwt beam="1">  1        2 0.16878987E+00 0.13813959E+04</pdfrwt>
<pdfrwt beam="2">  1       -2 0.57681142E-01 0.13813959E+04</pdfrwt>
<totfact> 0.60128950E+01</totfact>
</mgrwt>
</event>
<event>
 8    1  0.7685004E-052  0.1892274E+04  0.7818608E-02  0.8658711E-01
         -2   -1    0    0    0  501 -0.00000000000E+00  0.00000000000E+00  0.70478573694E+03  0.70478573695E+03  0.25500000000E-02 0. -1.
          2   -1    0    0  501    0  0.00000000000E+00 -0.00000000000E+00 -0.12701387711E+04  0.12701387711E+04  0.25500000000E-02 0.  1.
     200001    2    1    2    0    0  0.49851008565E+03 -0.39558607960E+03 -0.63597808684E+03  0.10884948436E+04  0.61265997564E+03 0.  0.
    5000001    2    3    3    0    0  0.43723548165E+03 -0.67075844608E+02 -0.11867137238E+03  0.46441088418E+03  0.76945041320E+02 0.  0.
        -13    1    4    4    0    0  0.22605833712E+03 -0.42656307687E+02 -0.29474361508E+02  0.23192818181E+03  0.10566000000E+00 0. -1.
     200003    1    4    4    0    0  0.21117714452E+03 -0.24419536921E+02 -0.89197010876E+02  0.23248270237E+03  0.30000000000E+02 0.  1.
     200000    1    3    3    0    0  0.61274604001E+02 -0.32851023500E+03 -0.51730671445E+03  0.62408395942E+03  0.10100000000E+03 0.  1.
    -200001    1    1    2    0    0 -0.49851008565E+03  0.39558607960E+03  0.70625052714E+02  0.88642966441E+03  0.61300000000E+03 0.  1.
<mgrwt>
<rscale>  0 0.18922745E+04</rscale>
<asrwt>0</asrwt>
<pdfrwt beam="1">  1        2 0.18144840E+00 0.18922745E+04</pdfrwt>
<pdfrwt beam="2">  1       -2 0.10068368E+00 0.18922745E+04</pdfrwt>
<totfact> 0.14912353E+01</totfact>
</mgrwt>
</event>
<event>
 8    1  0.7685004E-052  0.1711922E+04  0.7818608E-02  0.8754594E-01
         -2   -1    0    0    0  501 -0.00000000000E+00  0.00000000000E+00  0.22923121440E+03  0.22923121442E+03  0.25500000000E-02 0. -1.
          2   -1    0    0  501    0  0.00000000000E+00 -0.00000000000E+00 -0.31962030890E+04  0.31962030890E+04  0.25500000000E-02 0.  1.
     200001    2    1    2    0    0 -0.76398673206E+02 -0.46085046671E+03 -0.22316968546E+04  0.23602496880E+04  0.60999002363E+03 0.  0.
    5000001    2    3    3    0    0 -0.26275468208E+03 -0.44108244781E+03 -0.13516918704E+04  0.14548607612E+04  0.16110609289E+03 0.  0.
        -13    1    4    4    0    0 -0.28822209817E+02 -0.94070040254E+02 -0.12936468749E+03  0.16252730781E+03  0.10566000000E+00 0. -1.
     200003    1    4    4    0    0 -0.23393247227E+03 -0.34701240755E+03 -0.12223271829E+04  0.12923334534E+04  0.30000000000E+02 0. -1.
     200000    1    3    3    0    0  0.18635600888E+03 -0.19768018909E+02 -0.88000498412E+03  0.90538892676E+03  0.10100000000E+03 0.  1.
    -200001    1    1    2    0    0  0.76398673206E+02  0.46085046671E+03 -0.73527502009E+03  0.10651846155E+04  0.61300000000E+03 0. -1.
<mgrwt>
<rscale>  0 0.17119223E+04</rscale>
<asrwt>0</asrwt>
<pdfrwt beam="1">  1        2 0.45660041E+00 0.17119223E+04</pdfrwt>
<pdfrwt beam="2">  1       -2 0.32747318E-01 0.17119223E+04</pdfrwt>
<totfact> 0.15170343E+01</totfact>
</mgrwt>
</event>
<event>
 8    1  0.7685004E-052  0.1492951E+04  0.7818608E-02  0.8889154E-01
         -2   -1    0    0    0  501 -0.00000000000E+00  0.00000000000E+00  0.25315013717E+03  0.25315013718E+03  0.25500000000E-02 0. -1.
          2   -1    0    0  501    0  0.00000000000E+00 -0.00000000000E+00 -0.22011670631E+04  0.22011670631E+04  0.25500000000E-02 0.  1.
     200001    2    1    2    0    0  0.22965546068E+02  0.42880511528E+02 -0.16691812917E+04  0.17791250310E+04  0.61380252262E+03 0.  0.
    5000001    2    3    3    0    0  0.30733261625E+02  0.27584759279E+03 -0.46271109620E+03  0.54619951379E+03  0.84828783414E+02 0.  0.
        -13    1    4    4    0    0  0.51401902760E+01  0.75092183673E+01 -0.59912116517E+02  0.60599362918E+02  0.10566000000E+00 0. -1.
     200003    1    4    4    0    0  0.25593071349E+02  0.26833837443E+03 -0.40279897969E+03  0.48560015087E+03  0.30000000000E+02 0. -1.
     200000    1    3    3    0    0 -0.77677155563E+01 -0.23296708126E+03 -0.12064701955E+04  0.12329255172E+04  0.10100000000E+03 0.  1.
    -200001    1    1    2    0    0 -0.22965546068E+02 -0.42880511528E+02 -0.27883563428E+03  0.67519216933E+03  0.61300000000E+03 0. -1.
<mgrwt>
<rscale>  0 0.14929511E+04</rscale>
<asrwt>0</asrwt>
<pdfrwt beam="1">  1        2 0.31445243E+00 0.14929511E+04</pdfrwt>
<pdfrwt beam="2">  1       -2 0.36164307E-01 0.14929511E+04</pdfrwt>
<totfact> 0.44002701E+01</totfact>
</mgrwt>
</event>
<event>
 8    1  0.7685004E-052  0.1870975E+04  0.7818608E-02  0.8669441E-01
          2   -1    0    0  501    0  0.00000000000E+00  0.00000000000E+00  0.25507776443E+04  0.25507776443E+04  0.25500000000E-02 0.  1.
         -2   -1    0    0    0  501 -0.00000000000E+00 -0.00000000000E+00 -0.34308614006E+03  0.34308614006E+03  0.25500000000E-02 0. -1.
     200001    2    1    2    0    0 -0.50121772947E+03 -0.49371986890E+03  0.10007985397E+04  0.13683021995E+04  0.61292305461E+03 0.  0.
    5000001    2    3    3    0    0  0.63625550425E+02 -0.14252829956E+03  0.50319729932E+03  0.53152777134E+03  0.70368478893E+02 0.  0.
        -13    1    4    4    0    0  0.64604520359E+02 -0.93743636708E+02  0.34262472403E+03  0.36104477029E+03  0.10566000000E+00 0. -1.
     200003    1    4    4    0    0 -0.97896993441E+00 -0.48784662849E+02  0.16057257529E+03  0.17048300105E+03  0.30000000000E+02 0.  1.
     200000    1    3    3    0    0 -0.56484327989E+03 -0.35119156934E+03  0.49760124033E+03  0.83677442815E+03  0.10100000000E+03 0.  1.
    -200001    1    1    2    0    0  0.50121772947E+03  0.49371986890E+03  0.12068929646E+04  0.15255615849E+04  0.61300000000E+03 0.  1.
<mgrwt>
<rscale>  0 0.18709746E+04</rscale>
<asrwt>0</asrwt>
<pdfrwt beam="1">  1        2 0.36439680E+00 0.18709746E+04</pdfrwt>
<pdfrwt beam="2">  1       -2 0.49012306E-01 0.18709746E+04</pdfrwt>
<totfact> 0.15383623E+01</totfact>
</mgrwt>
</event>
<event>
 8    1  0.7685004E-052  0.1327306E+04  0.7818608E-02  0.9008187E-01
          2   -1    0    0  501    0  0.00000000000E+00  0.00000000000E+00  0.13510323545E+04  0.13510323545E+04  0.25500000000E-02 0.  1.
         -2   -1    0    0    0  501 -0.00000000000E+00 -0.00000000000E+00 -0.32599923670E+03  0.32599923671E+03  0.25500000000E-02 0. -1.
     200001    2    1    2    0    0 -0.20356478990E+03 -0.14377211890E+03  0.50769347101E+03  0.83708019023E+03  0.61712360068E+03 0.  0.
    5000001    2    3    3    0    0 -0.30272517924E+03 -0.22264316032E+03  0.29353723454E+03  0.56853351346E+03  0.30960254664E+03 0.  0.
        -13    1    4    4    0    0 -0.12903516958E+03  0.61083952349E+02  0.37314439575E+02  0.14755915014E+03  0.10566000000E+00 0. -1.
     200003    1    4    4    0    0 -0.17369000965E+03 -0.28372711267E+03  0.25622279497E+03  0.42097436332E+03  0.30000000000E+02 0. -1.
     200000    1    3    3    0    0  0.99160389335E+02  0.78871041413E+02  0.21415623647E+03  0.26854667677E+03  0.10100000000E+03 0.  1.
    -200001    1    1    2    0    0  0.20356478990E+03  0.14377211890E+03  0.51733964679E+03  0.83995140097E+03  0.61300000000E+03 0. -1.
<mgrwt>
<rscale>  0 0.13273063E+04</rscale>
<asrwt>0</asrwt>
<pdfrwt beam="1">  1        2 0.19300462E+00 0.13273063E+04</pdfrwt>
<pdfrwt beam="2">  1       -2 0.46571319E-01 0.13273063E+04</pdfrwt>
<totfact> 0.75265155E+01</totfact>
</mgrwt>
</event>
<event>
 8    1  0.7685004E-052  0.1394326E+04  0.7818608E-02  0.8957936E-01
          2   -1    0    0  501    0  0.00000000000E+00  0.00000000000E+00  0.42648282628E+03  0.42648282629E+03  0.25500000000E-02 0.  1.
         -2   -1    0    0    0  501 -0.00000000000E+00 -0.00000000000E+00 -0.11396390713E+04  0.11396390713E+04  0.25500000000E-02 0. -1.
     200001    2    1    2    0    0 -0.32917409804E+03  0.17918720171E+02 -0.40367813276E+03  0.80439860837E+03  0.61271887430E+03 0.  0.
    5000001    2    3    3    0    0 -0.35368837875E+03 -0.21070243665E+03 -0.21813553527E+03  0.49215569205E+03  0.15856584560E+03 0.  0.
        -13    1    4    4    0    0 -0.16571625862E+03 -0.10550494802E+03 -0.19162090836E+02  0.19738381219E+03  0.10566000000E+00 0. -1.
     200003    1    4    4    0    0 -0.18797212014E+03 -0.10519748863E+03 -0.19897344443E+03  0.29477187985E+03  0.30000000000E+02 0. -1.
     200000    1    3    3    0    0  0.24514280713E+02  0.22862115683E+03 -0.18554259750E+03  0.31224291632E+03  0.10100000000E+03 0.  1.
    -200001    1    1    2    0    0  0.32917409804E+03 -0.17918720171E+02 -0.30947811223E+03  0.76172328919E+03  0.61300000000E+03 0. -1.
<mgrwt>
<rscale>  0 0.13943263E+04</rscale>
<asrwt>0</asrwt>
<pdfrwt beam="1">  1        2 0.60926119E-01 0.13943263E+04</pdfrwt>
<pdfrwt beam="2">  1       -2 0.16280558E+00 0.13943263E+04</pdfrwt>
<totfact> 0.18830563E+01</totfact>
</mgrwt>
</event>
<event>
 8    1  0.7685004E-052  0.1399472E+04  0.7818608E-02  0.8954201E-01
         -2   -1    0    0    0  501 -0.00000000000E+00  0.00000000000E+00  0.12262657591E+04  0.12262657591E+04  0.25500000000E-02 0. -1.
          2   -1    0    0  501    0  0.00000000000E+00 -0.00000000000E+00 -0.39928585660E+03  0.39928585661E+03  0.25500000000E-02 0.  1.
     200001    2    1    2    0    0 -0.19343158666E+03  0.18817829743E+03  0.17749150311E+03  0.69258268200E+03  0.61265054263E+03 0.  0.
    5000001    2    3    3    0    0  0.92570469122E+02  0.22999772099E+03 -0.10129763569E+03  0.27849280767E+03  0.76346509514E+02 0.  0.
        -13    1    4    4    0    0  0.17921657333E+02  0.16644693606E+02  0.78639009851E+01  0.25692094689E+02  0.10566000000E+00 0. -1.
     200003    1    4    4    0    0  0.74648811789E+02  0.21335302739E+03 -0.10916153668E+03  0.25280071298E+03  0.30000000000E+02 0. -1.
     200000    1    3    3    0    0 -0.28600205578E+03 -0.41819423561E+02  0.27878913881E+03  0.41408987432E+03  0.10100000000E+03 0.  1.
    -200001    1    1    2    0    0  0.19343158666E+03 -0.18817829743E+03  0.64948839939E+03  0.93296893372E+03  0.61300000000E+03 0. -1.
<mgrwt>
<rscale>  0 0.13994721E+04</rscale>
<asrwt>0</asrwt>
<pdfrwt beam="1">  1        2 0.57040838E-01 0.13994721E+04</pdfrwt>
<pdfrwt beam="2">  1       -2 0.17518082E+00 0.13994721E+04</pdfrwt>
<totfact> 0.16532682E+01</totfact>
</mgrwt>
</event>
<event>
 8    1  0.7685004E-052  0.1325105E+04  0.7818608E-02  0.9009890E-01
         -2   -1    0    0    0  501 -0.00000000000E+00  0.00000000000E+00  0.51591323139E+03  0.51591323140E+03  0.25500000000E-02 0. -1.
          2   -1    0    0  501    0  0.00000000000E+00 -0.00000000000E+00 -0.85087161425E+03  0.85087161425E+03  0.25500000000E-02 0.  1.
     200001    2    1    2    0    0  0.16448050310E+03  0.98791324817E+02 -0.33474578722E+03  0.72445891051E+03  0.61316589043E+03 0.  0.
    5000001    2    3    3    0    0  0.32596495900E+02 -0.40106717072E+02  0.11963534114E+02  0.31568707819E+03  0.31119788702E+03 0.  0.
        -13    1    4    4    0    0 -0.16673629454E+02 -0.45298263095E+02 -0.14264263328E+03  0.15058842768E+03  0.10566000000E+00 0. -1.
     200003    1    4    4    0    0  0.49270125354E+02  0.51915460232E+01  0.15460616739E+03  0.16509865051E+03  0.30000000000E+02 0. -1.
     200000    1    3    3    0    0  0.13188400720E+03  0.13889804189E+03 -0.34670932134E+03  0.40877183232E+03  0.10100000000E+03 0.  1.
    -200001    1    1    2    0    0 -0.16448050310E+03 -0.98791324817E+02 -0.21259563553E+00  0.64232593514E+03  0.61300000000E+03 0. -1.
<mgrwt>
<rscale>  0 0.13251052E+04</rscale>
<asrwt>0</asrwt>
<pdfrwt beam="1">  1        2 0.12155309E+00 0.13251052E+04</pdfrwt>
<pdfrwt beam="2">  1       -2 0.73701890E-01 0.13251052E+04</pdfrwt>
<totfact> 0.57028029E+01</totfact>
</mgrwt>
</event>
<event>
 8    1  0.7685004E-052  0.2235156E+04  0.7818608E-02  0.8503936E-01
          2   -1    0    0  501    0  0.00000000000E+00  0.00000000000E+00  0.26231477031E+04  0.26231477031E+04  0.25500000000E-02 0.  1.
         -2   -1    0    0    0  501 -0.00000000000E+00 -0.00000000000E+00 -0.47613808489E+03  0.47613808489E+03  0.25500000000E-02 0. -1.
     200001    2    1    2    0    0  0.40526269948E+03 -0.32619009321E+03  0.21506057313E+04  0.22952834469E+04  0.61039598446E+03 0.  0.
    5000001    2    3    3    0    0  0.14016012882E+02  0.11313204011E+03  0.78834901511E+03  0.80799656561E+03  0.13553218546E+03 0.  0.
        -13    1    4    4    0    0  0.78304326221E+01 -0.43955080139E+01 -0.12893352092E+01  0.90724701745E+01  0.10566000000E+00 0. -1.
     200003    1    4    4    0    0  0.61855802604E+01  0.11752754813E+03  0.78963835032E+03  0.79892409543E+03  0.30000000000E+02 0. -1.
     200000    1    3    3    0    0  0.39124668660E+03 -0.43932213332E+03  0.13622567162E+04  0.14872868813E+04  0.10100000000E+03 0.  1.
    -200001    1    1    2    0    0 -0.40526269948E+03  0.32619009321E+03 -0.35961130034E+01  0.80400234112E+03  0.61300000000E+03 0. -1.
<mgrwt>
<rscale>  0 0.22351559E+04</rscale>
<asrwt>0</asrwt>
<pdfrwt beam="1">  1        2 0.37473538E+00 0.22351559E+04</pdfrwt>
<pdfrwt beam="2">  1       -2 0.68019727E-01 0.22351559E+04</pdfrwt>
<totfact> 0.68685903E+00</totfact>
</mgrwt>
</event>
<event>
 8    1  0.7685004E-052  0.2023906E+04  0.7818608E-02  0.8595525E-01
         -2   -1    0    0    0  501 -0.00000000000E+00  0.00000000000E+00  0.37169513588E+03  0.37169513589E+03  0.25500000000E-02 0. -1.
          2   -1    0    0  501    0  0.00000000000E+00 -0.00000000000E+00 -0.27550775468E+04  0.27550775468E+04  0.25500000000E-02 0.  1.
     200001    2    1    2    0    0  0.21401239941E+03  0.77159132340E+03 -0.10610912759E+04  0.14638303135E+04  0.61296819945E+03 0.  0.
    5000001    2    3    3    0    0  0.31211439232E+03  0.79903413107E+03 -0.87480638045E+03  0.12287129578E+04  0.92619613362E+02 0.  0.
        -13    1    4    4    0    0  0.84458841041E+02  0.26753200816E+03 -0.33693590904E+03  0.43844325652E+03  0.10566000000E+00 0. -1.
     200003    1    4    4    0    0  0.22765555128E+03  0.53150212291E+03 -0.53787047141E+03  0.79026970124E+03  0.30000000000E+02 0. -1.
     200000    1    3    3    0    0 -0.98101992907E+02 -0.27442807674E+02 -0.18628489547E+03  0.23511735577E+03  0.10100000000E+03 0.  1.
    -200001    1    1    2    0    0 -0.21401239941E+03 -0.77159132340E+03 -0.13222911350E+04  0.16629423692E+04  0.61300000000E+03 0.  1.
<mgrwt>
<rscale>  0 0.20239060E+04</rscale>
<asrwt>0</asrwt>
<pdfrwt beam="1">  1        2 0.39358250E+00 0.20239060E+04</pdfrwt>
<pdfrwt beam="2">  1       -2 0.53099307E-01 0.20239060E+04</pdfrwt>
<totfact> 0.10023769E+01</totfact>
</mgrwt>
</event>
<event>
 8    1  0.7685004E-052  0.2792158E+04  0.7818608E-02  0.8305707E-01
          2   -1    0    0  501    0  0.00000000000E+00  0.00000000000E+00  0.13456428653E+04  0.13456428653E+04  0.25500000000E-02 0.  1.
         -2   -1    0    0    0  501 -0.00000000000E+00 -0.00000000000E+00 -0.14484059173E+04  0.14484059173E+04  0.25500000000E-02 0. -1.
     200001    2    1    2    0    0  0.17082767737E+03  0.21425511674E+03 -0.12761461477E+04  0.14421300574E+04  0.61327217596E+03 0.  0.
    5000001    2    3    3    0    0  0.37739380319E+03  0.83179565767E+02 -0.81066331534E+03  0.90666238181E+03  0.12456621090E+03 0.  0.
        -13    1    4    4    0    0  0.10330294687E+03  0.37470708031E+02 -0.35971346997E+03  0.37612410776E+03  0.10566000000E+00 0. -1.
     200003    1    4    4    0    0  0.27409085632E+03  0.45708857735E+02 -0.45094984537E+03  0.53053827405E+03  0.30000000000E+02 0. -1.
     200000    1    3    3    0    0 -0.20656612582E+03  0.13107555097E+03 -0.46548283232E+03  0.53546767557E+03  0.10100000000E+03 0. -1.
    -200001    1    1    2    0    0 -0.17082767737E+03 -0.21425511674E+03  0.11733830957E+04  0.13519187252E+04  0.61300000000E+03 0.  1.
<mgrwt>
<rscale>  0 0.27921584E+04</rscale>
<asrwt>0</asrwt>
<pdfrwt beam="1">  1        2 0.19223469E+00 0.27921584E+04</pdfrwt>
<pdfrwt beam="2">  1       -2 0.20691513E+00 0.27921584E+04</pdfrwt>
<totfact> 0.18617202E+00</totfact>
</mgrwt>
</event>
<event>
 8    1  0.7685004E-052  0.1424083E+04  0.7818608E-02  0.8936568E-01
         -2   -1    0    0    0  501 -0.00000000000E+00  0.00000000000E+00  0.22159006222E+03  0.22159006223E+03  0.25500000000E-02 0. -1.
          2   -1    0    0  501    0  0.00000000000E+00 -0.00000000000E+00 -0.22880227947E+04  0.22880227947E+04  0.25500000000E-02 0.  1.
     200001    2    1    2    0    0  0.19444132936E+03 -0.26695280898E+03 -0.77088589498E+03  0.10388029301E+04  0.61300508289E+03 0.  0.
    5000001    2    3    3    0    0 -0.17213048881E+03 -0.25942392728E+03 -0.35938847270E+03  0.47847917500E+03  0.53409431596E+02 0.  0.
        -13    1    4    4    0    0  0.18414192160E+01 -0.42721083185E-01 -0.82562750455E+00  0.20212557067E+01  0.10566000000E+00 0. -1.
     200003    1    4    4    0    0 -0.17397190803E+03 -0.25938120619E+03 -0.35856284519E+03  0.47645791930E+03  0.30000000000E+02 0. -1.
     200000    1    3    3    0    0  0.36657181818E+03 -0.75288817023E+01 -0.41149742228E+03  0.56032375506E+03  0.10100000000E+03 0. -1.
    -200001    1    1    2    0    0 -0.19444132936E+03  0.26695280898E+03 -0.12955468375E+04  0.14708099268E+04  0.61300000000E+03 0. -1.
<mgrwt>
<rscale>  0 0.14240830E+04</rscale>
<asrwt>0</asrwt>
<pdfrwt beam="1">  1        2 0.32686039E+00 0.14240830E+04</pdfrwt>
<pdfrwt beam="2">  1       -2 0.31655724E-01 0.14240830E+04</pdfrwt>
<totfact> 0.51387357E+01</totfact>
</mgrwt>
</event>
<event>
 8    1  0.7685004E-052  0.1759197E+04  0.7818608E-02  0.8728304E-01
         -2   -1    0    0    0  501 -0.00000000000E+00  0.00000000000E+00  0.39553124104E+03  0.39553124105E+03  0.25500000000E-02 0. -1.
          2   -1    0    0  501    0  0.00000000000E+00 -0.00000000000E+00 -0.19560881091E+04  0.19560881091E+04  0.25500000000E-02 0.  1.
     200001    2    1    2    0    0  0.26987446506E+03  0.42754842587E+03 -0.12846563259E+04  0.15104772739E+04  0.61283752813E+03 0.  0.
    5000001    2    3    3    0    0  0.87872472448E+02  0.44278618381E+03 -0.48810403537E+03  0.68703725412E+03  0.17318620968E+03 0.  0.
        -13    1    4    4    0    0  0.10579228770E+03  0.40177216690E+03 -0.47599718664E+03  0.63181185102E+03  0.10566000000E+00 0. -1.
     200003    1    4    4    0    0 -0.17919815256E+02  0.41014016910E+02 -0.12106848726E+02  0.55225403104E+02  0.30000000000E+02 0. -1.
     200000    1    3    3    0    0  0.18200199261E+03 -0.15237757946E+02 -0.79655229053E+03  0.82344001975E+03  0.10100000000E+03 0.  1.
    -200001    1    1    2    0    0 -0.26987446506E+03 -0.42754842587E+03 -0.27590054219E+03  0.84114207631E+03  0.61300000000E+03 0.  1.
<mgrwt>
<rscale>  0 0.17591975E+04</rscale>
<asrwt>0</asrwt>
<pdfrwt beam="1">  1        2 0.27944115E+00 0.17591975E+04</pdfrwt>
<pdfrwt beam="2">  1       -2 0.56504464E-01 0.17591975E+04</pdfrwt>
<totfact> 0.23586697E+01</totfact>
</mgrwt>
</event>
<event>
 8    1  0.7685004E-052  0.1502945E+04  0.7818608E-02  0.8882497E-01
         -2   -1    0    0    0  501 -0.00000000000E+00  0.00000000000E+00  0.52724042905E+03  0.52724042906E+03  0.25500000000E-02 0. -1.
          2   -1    0    0  501    0  0.00000000000E+00 -0.00000000000E+00 -0.10710685444E+04  0.10710685444E+04  0.25500000000E-02 0.  1.
     200001    2    1    2    0    0 -0.14900686510E+03  0.37061700947E+03 -0.89815978450E+02  0.73723056005E+03  0.61309214245E+03 0.  0.
    5000001    2    3    3    0    0  0.43753730232E+02 -0.11403694671E+03  0.96431665274E+02  0.17426049944E+03  0.78414548866E+02 0.  0.
        -13    1    4    4    0    0  0.30630253869E+02 -0.65117287687E+02  0.89717113627E+02  0.11501150051E+03  0.10566000000E+00 0. -1.
     200003    1    4    4    0    0  0.13123476362E+02 -0.48919659018E+02  0.67145516472E+01  0.59248998929E+02  0.30000000000E+02 0. -1.
     200000    1    3    3    0    0 -0.19276059533E+03  0.48465395618E+03 -0.18624764372E+03  0.56297006061E+03  0.10100000000E+03 0.  1.
    -200001    1    1    2    0    0  0.14900686510E+03 -0.37061700947E+03 -0.45401213687E+03  0.86107841338E+03  0.61300000000E+03 0.  1.
<mgrwt>
<rscale>  0 0.15029446E+04</rscale>
<asrwt>0</asrwt>
<pdfrwt beam="1">  1        2 0.15300979E+00 0.15029446E+04</pdfrwt>
<pdfrwt beam="2">  1       -2 0.75320062E-01 0.15029446E+04</pdfrwt>
<totfact> 0.38920006E+01</totfact>
</mgrwt>
</event>
<event>
 8    1  0.7685004E-052  0.1348724E+04  0.7818608E-02  0.8991794E-01
          2   -1    0    0  501    0  0.00000000000E+00  0.00000000000E+00  0.11363661522E+04  0.11363661522E+04  0.25500000000E-02 0.  1.
         -2   -1    0    0    0  501 -0.00000000000E+00 -0.00000000000E+00 -0.40019160482E+03  0.40019160482E+03  0.25500000000E-02 0. -1.
     200001    2    1    2    0    0 -0.69659478016E+02 -0.24483373286E+03  0.23170317022E+03  0.70285734922E+03  0.61280183961E+03 0.  0.
    5000001    2    3    3    0    0 -0.25925231245E+03 -0.13944933101E+03 -0.74492102728E+02  0.31426005098E+03  0.80947074328E+02 0.  0.
        -13    1    4    4    0    0 -0.14471873797E+03 -0.75184021265E+02 -0.75099846741E+02  0.17954427955E+03  0.10566000000E+00 0. -1.
     200003    1    4    4    0    0 -0.11453357448E+03 -0.64265309745E+02  0.60774401289E+00  0.13471577143E+03  0.30000000000E+02 0. -1.
     200000    1    3    3    0    0  0.18959283443E+03 -0.10538440185E+03  0.30619527295E+03  0.38859729824E+03  0.10100000000E+03 0.  1.
    -200001    1    1    2    0    0  0.69659478016E+02  0.24483373286E+03  0.50447137719E+03  0.83370040784E+03  0.61300000000E+03 0.  1.
<mgrwt>
<rscale>  0 0.13487241E+04</rscale>
<asrwt>0</asrwt>
<pdfrwt beam="1">  1        2 0.16233802E+00 0.13487241E+04</pdfrwt>
<pdfrwt beam="2">  1       -2 0.57170229E-01 0.13487241E+04</pdfrwt>
<totfact> 0.65208638E+01</totfact>
</mgrwt>
</event>
<event>
 8    1  0.7685004E-052  0.1320301E+04  0.7818608E-02  0.9013619E-01
         -2   -1    0    0    0  501 -0.00000000000E+00  0.00000000000E+00  0.21959030191E+03  0.21959030193E+03  0.25500000000E-02 0. -1.
          2   -1    0    0  501    0  0.00000000000E+00 -0.00000000000E+00 -0.19846003828E+04  0.19846003828E+04  0.25500000000E-02 0.  1.
     200001    2    1    2    0    0 -0.14278323880E+03 -0.74859537157E+02 -0.56131384180E+03  0.84380668027E+03  0.60905293784E+03 0.  0.
    5000001    2    3    3    0    0  0.99858986019E+02  0.93178899699E+02 -0.50002678267E+03  0.52589274672E+03  0.88782167322E+02 0.  0.
        -13    1    4    4    0    0  0.92306744982E+02  0.80548376990E+02 -0.31717033879E+03  0.34000825163E+03  0.10566000000E+00 0. -1.
     200003    1    4    4    0    0  0.75522410375E+01  0.12630522709E+02 -0.18285644388E+03  0.18588449509E+03  0.30000000000E+02 0. -1.
     200000    1    3    3    0    0 -0.24264222482E+03 -0.16803843686E+03 -0.61287059134E+02  0.31791393355E+03  0.10100000000E+03 0. -1.
    -200001    1    1    2    0    0  0.14278323880E+03  0.74859537157E+02 -0.12036962391E+04  0.13603840044E+04  0.61300000000E+03 0.  1.
<mgrwt>
<rscale>  0 0.13203015E+04</rscale>
<asrwt>0</asrwt>
<pdfrwt beam="1">  1        2 0.28351433E+00 0.13203015E+04</pdfrwt>
<pdfrwt beam="2">  1       -2 0.31370044E-01 0.13203015E+04</pdfrwt>
<totfact> 0.75478312E+01</totfact>
</mgrwt>
</event>
<event>
 8    1  0.7685004E-052  0.1284117E+04  0.7818608E-02  0.9042256E-01
         -2   -1    0    0    0  501 -0.00000000000E+00  0.00000000000E+00  0.18133471453E+03  0.18133471455E+03  0.25500000000E-02 0. -1.
          2   -1    0    0  501    0  0.00000000000E+00 -0.00000000000E+00 -0.22733619210E+04  0.22733619210E+04  0.25500000000E-02 0.  1.
     200001    2    1    2    0    0  0.36048762313E+02  0.16466148214E+03 -0.12197729722E+04  0.13753406395E+04  0.61261966504E+03 0.  0.
    5000001    2    3    3    0    0  0.28428450695E+03  0.20405825520E+03 -0.59793615799E+03  0.69706701171E+03  0.76924101435E+02 0.  0.
        -13    1    4    4    0    0  0.14613953456E+03  0.13021498775E+03 -0.37423764143E+03  0.42233461855E+03  0.10566000000E+00 0. -1.
     200003    1    4    4    0    0  0.13814497239E+03  0.73843267449E+02 -0.22369851656E+03  0.27473239317E+03  0.30000000000E+02 0. -1.
     200000    1    3    3    0    0 -0.24823574464E+03 -0.39396773056E+02 -0.62183681424E+03  0.67827362782E+03  0.10100000000E+03 0.  1.
    -200001    1    1    2    0    0 -0.36048762313E+02 -0.16466148214E+03 -0.87225423420E+03  0.10793559960E+04  0.61300000000E+03 0. -1.
<mgrwt>
<rscale>  0 0.12841175E+04</rscale>
<asrwt>0</asrwt>
<pdfrwt beam="1">  1        2 0.32476597E+00 0.12841175E+04</pdfrwt>
<pdfrwt beam="2">  1       -2 0.25904961E-01 0.12841175E+04</pdfrwt>
<totfact> 0.76604322E+01</totfact>
</mgrwt>
</event>
<event>
 8    1  0.7685004E-052  0.1599588E+04  0.7818608E-02  0.8820801E-01
          2   -1    0    0  501    0  0.00000000000E+00  0.00000000000E+00  0.48308388128E+03  0.48308388129E+03  0.25500000000E-02 0.  1.
         -2   -1    0    0    0  501 -0.00000000000E+00 -0.00000000000E+00 -0.13241390647E+04  0.13241390647E+04  0.25500000000E-02 0. -1.
     200001    2    1    2    0    0  0.32385980632E+03 -0.39628653258E+03 -0.47197528933E+03  0.92749733067E+03  0.61283148956E+03 0.  0.
    5000001    2    3    3    0    0  0.44973852537E+03 -0.17675916543E+03 -0.16904927605E+03  0.52006281279E+03  0.91537575611E+02 0.  0.
        -13    1    4    4    0    0  0.39597082170E+03 -0.14769646693E+03 -0.15745140893E+03  0.45099677972E+03  0.10566000000E+00 0. -1.
     200003    1    4    4    0    0  0.53767703665E+02 -0.29062698498E+02 -0.11597867121E+02  0.69066033063E+02  0.30000000000E+02 0.  1.
     200000    1    3    3    0    0 -0.12587871905E+03 -0.21952736715E+03 -0.30292601328E+03  0.40743451788E+03  0.10100000000E+03 0.  1.
    -200001    1    1    2    0    0 -0.32385980632E+03  0.39628653258E+03 -0.36907989410E+03  0.87972561534E+03  0.61300000000E+03 0.  1.
<mgrwt>
<rscale>  0 0.15995877E+04</rscale>
<asrwt>0</asrwt>
<pdfrwt beam="1">  1        2 0.69011984E-01 0.15995877E+04</pdfrwt>
<pdfrwt beam="2">  1       -2 0.18916272E+00 0.15995877E+04</pdfrwt>
<totfact> 0.10530847E+01</totfact>
</mgrwt>
</event>
<event>
 8    1  0.7685004E-052  0.1283632E+04  0.7818608E-02  0.9042646E-01
         -2   -1    0    0    0  501 -0.00000000000E+00  0.00000000000E+00  0.13106946719E+03  0.13106946722E+03  0.25500000000E-02 0. -1.
          2   -1    0    0  501    0  0.00000000000E+00 -0.00000000000E+00 -0.31428221065E+04  0.31428221065E+04  0.25500000000E-02 0.  1.
     200001    2    1    2    0    0  0.11049721470E+03 -0.11541638338E+03 -0.17921515284E+04  0.18995821305E+04  0.60915892324E+03 0.  0.
    5000001    2    3    3    0    0 -0.12120274136E+03  0.11375573186E+03 -0.12146230761E+04  0.12288028514E+04  0.83766100530E+02 0.  0.
        -13    1    4    4    0    0 -0.11181038470E+03  0.97187988820E+02 -0.89064226378E+03  0.90287912840E+03  0.10566000000E+00 0. -1.
     200003    1    4    4    0    0 -0.93923566599E+01  0.16567743043E+02 -0.32398081228E+03  0.32592372297E+03  0.30000000000E+02 0.  1.
     200000    1    3    3    0    0  0.23169995606E+03 -0.22917211525E+03 -0.57752845232E+03  0.67077927911E+03  0.10100000000E+03 0.  1.
    -200001    1    1    2    0    0 -0.11049721470E+03  0.11541638338E+03 -0.12196011110E+04  0.13743094433E+04  0.61300000000E+03 0. -1.
<mgrwt>
<rscale>  0 0.12836324E+04</rscale>
<asrwt>0</asrwt>
<pdfrwt beam="1">  1        2 0.44897454E+00 0.12836324E+04</pdfrwt>
<pdfrwt beam="2">  1       -2 0.18724212E-01 0.12836324E+04</pdfrwt>
<totfact> 0.46613532E+01</totfact>
</mgrwt>
</event>
<event>
 8    1  0.7685004E-052  0.1276494E+04  0.7818608E-02  0.9048416E-01
          2   -1    0    0  501    0  0.00000000000E+00  0.00000000000E+00  0.16571165599E+04  0.16571165599E+04  0.25500000000E-02 0.  1.
         -2   -1    0    0    0  501 -0.00000000000E+00 -0.00000000000E+00 -0.24582414781E+03  0.24582414782E+03  0.25500000000E-02 0. -1.
     200001    2    1    2    0    0  0.20349612092E+02 -0.61213538546E+02  0.45680561228E+03  0.76672978759E+03  0.61240672413E+03 0.  0.
    5000001    2    3    3    0    0  0.30780596893E+02 -0.32151789947E+03  0.22073183475E+03  0.40094433928E+03  0.87821497980E+02 0.  0.
        -13    1    4    4    0    0  0.26103440569E+02 -0.10620061082E+03  0.34576185494E+02  0.11469735444E+03  0.10566000000E+00 0. -1.
     200003    1    4    4    0    0  0.46771563244E+01 -0.21531728865E+03  0.18615564926E+03  0.28624698485E+03  0.30000000000E+02 0. -1.
     200000    1    3    3    0    0 -0.10430984801E+02  0.26030436092E+03  0.23607377753E+03  0.36578544831E+03  0.10100000000E+03 0. -1.
    -200001    1    1    2    0    0 -0.20349612092E+02  0.61213538546E+02  0.95448679978E+03  0.11362109201E+04  0.61300000000E+03 0.  1.
<mgrwt>
<rscale>  0 0.12764941E+04</rscale>
<asrwt>0</asrwt>
<pdfrwt beam="1">  1        2 0.23673093E+00 0.12764941E+04</pdfrwt>
<pdfrwt beam="2">  1       -2 0.35117736E-01 0.12764941E+04</pdfrwt>
<totfact> 0.90229714E+01</totfact>
</mgrwt>
</event>
<event>
 8    1  0.7685004E-052  0.1592378E+04  0.7818608E-02  0.8825244E-01
          2   -1    0    0  501    0  0.00000000000E+00  0.00000000000E+00  0.61099416318E+03  0.61099416318E+03  0.25500000000E-02 0.  1.
         -2   -1    0    0    0  501 -0.00000000000E+00 -0.00000000000E+00 -0.10375173424E+04  0.10375173425E+04  0.25500000000E-02 0. -1.
     200001    2    1    2    0    0 -0.36156966380E+03 -0.90538936889E+02 -0.57076520687E+03  0.91672965057E+03  0.61293589386E+03 0.  0.
    5000001    2    3    3    0    0 -0.19585766715E+03 -0.25395622844E+03 -0.57402928252E+03  0.66300276748E+03  0.84906187945E+02 0.  0.
        -13    1    4    4    0    0 -0.12383868707E+01 -0.43578804791E+02 -0.74569624399E+02  0.86378735092E+02  0.10566000000E+00 0. -1.
     200003    1    4    4    0    0 -0.19461928028E+03 -0.21037742365E+03 -0.49945965812E+03  0.57662403239E+03  0.30000000000E+02 0. -1.
     200000    1    3    3    0    0 -0.16571199666E+03  0.16341729155E+03  0.32640756493E+01  0.25372688309E+03  0.10100000000E+03 0. -1.
    -200001    1    1    2    0    0  0.36156966380E+03  0.90538936889E+02  0.14424202760E+03  0.73178185507E+03  0.61300000000E+03 0.  1.
<mgrwt>
<rscale>  0 0.15923781E+04</rscale>
<asrwt>0</asrwt>
<pdfrwt beam="1">  1        2 0.87284880E-01 0.15923781E+04</pdfrwt>
<pdfrwt beam="2">  1       -2 0.14821676E+00 0.15923781E+04</pdfrwt>
<totfact> 0.15783650E+01</totfact>
</mgrwt>
</event>
<event>
 8    1  0.7685004E-052  0.1847464E+04  0.7818608E-02  0.8681458E-01
          2   -1    0    0  501    0  0.00000000000E+00  0.00000000000E+00  0.27262531868E+04  0.27262531868E+04  0.25500000000E-02 0.  1.
         -2   -1    0    0    0  501 -0.00000000000E+00 -0.00000000000E+00 -0.31298647035E+03  0.31298647036E+03  0.25500000000E-02 0. -1.
     200001    2    1    2    0    0  0.38072165917E+03 -0.28284669234E+03  0.20335781467E+04  0.21761732384E+04  0.61264888137E+03 0.  0.
    5000001    2    3    3    0    0  0.19809189728E+03  0.10863174557E+03  0.12593893565E+04  0.12838850113E+04  0.10610332356E+03 0.  0.
        -13    1    4    4    0    0  0.11171617238E+03  0.95924848549E+02  0.58694489576E+03  0.60513337502E+03  0.10566000000E+00 0. -1.
     200003    1    4    4    0    0  0.86375724894E+02  0.12706897024E+02  0.67244446070E+03  0.67875163633E+03  0.30000000000E+02 0. -1.
     200000    1    3    3    0    0  0.18262976190E+03 -0.39147843792E+03  0.77418879021E+03  0.89228822707E+03  0.10100000000E+03 0.  1.
    -200001    1    1    2    0    0 -0.38072165917E+03  0.28284669234E+03  0.37968856977E+03  0.86306641874E+03  0.61300000000E+03 0. -1.
<mgrwt>
<rscale>  0 0.18474635E+04</rscale>
<asrwt>0</asrwt>
<pdfrwt beam="1">  1        2 0.38946475E+00 0.18474635E+04</pdfrwt>
<pdfrwt beam="2">  1       -2 0.44712352E-01 0.18474635E+04</pdfrwt>
<totfact> 0.14945009E+01</totfact>
</mgrwt>
</event>
<event>
 8    1  0.7685004E-052  0.1589235E+04  0.7818608E-02  0.8827189E-01
          2   -1    0    0  501    0  0.00000000000E+00  0.00000000000E+00  0.86610216052E+03  0.86610216052E+03  0.25500000000E-02 0.  1.
         -2   -1    0    0    0  501 -0.00000000000E+00 -0.00000000000E+00 -0.72903329246E+03  0.72903329247E+03  0.25500000000E-02 0. -1.
     200001    2    1    2    0    0 -0.45031628719E+03 -0.30349320752E+02 -0.15787846257E+03  0.77876006897E+03  0.61468349279E+03 0.  0.
    5000001    2    3    3    0    0 -0.49380612863E+03  0.76221020864E+02 -0.13468492555E+03  0.62388094133E+03  0.34847275803E+03 0.  0.
        -13    1    4    4    0    0 -0.53278567948E+03  0.25370761155E+02 -0.92032046524E+02  0.54127087907E+03  0.10566000000E+00 0. -1.
     200003    1    4    4    0    0  0.38979550851E+02  0.50850259709E+02 -0.42652879024E+02  0.82610062257E+02  0.30000000000E+02 0. -1.
     200000    1    3    3    0    0  0.43489841439E+02 -0.10657034162E+03 -0.23193537024E+02  0.15487912765E+03  0.10100000000E+03 0.  1.
    -200001    1    1    2    0    0  0.45031628719E+03  0.30349320752E+02  0.29494733063E+03  0.81637538401E+03  0.61300000000E+03 0. -1.
<mgrwt>
<rscale>  0 0.15892354E+04</rscale>
<asrwt>0</asrwt>
<pdfrwt beam="1">  1        2 0.12372888E+00 0.15892354E+04</pdfrwt>
<pdfrwt beam="2">  1       -2 0.10414761E+00 0.15892354E+04</pdfrwt>
<totfact> 0.24696035E+01</totfact>
</mgrwt>
</event>
<event>
 8    1  0.7685004E-052  0.1389682E+04  0.7818608E-02  0.8961321E-01
          2   -1    0    0  501    0  0.00000000000E+00  0.00000000000E+00  0.11415409298E+04  0.11415409298E+04  0.25500000000E-02 0.  1.
         -2   -1    0    0    0  501 -0.00000000000E+00 -0.00000000000E+00 -0.42294060393E+03  0.42294060393E+03  0.25500000000E-02 0. -1.
     200001    2    1    2    0    0  0.20770549972E+03  0.20440344411E+03  0.52059934968E+03  0.85744848702E+03  0.61585053578E+03 0.  0.
    5000001    2    3    3    0    0  0.14176079731E+03 -0.12137762417E+03 -0.27698193438E+02  0.20836204900E+03  0.88424556770E+02 0.  0.
        -13    1    4    4    0    0  0.94285012554E+02 -0.45720455305E+02 -0.42324605661E+02  0.11301065009E+03  0.10566000000E+00 0. -1.
     200003    1    4    4    0    0  0.47475784752E+02 -0.75657168867E+02  0.14626412223E+02  0.95351398906E+02  0.30000000000E+02 0. -1.
     200000    1    3    3    0    0  0.65944702417E+02  0.32578106828E+03  0.54829754312E+03  0.64908643802E+03  0.10100000000E+03 0.  1.
    -200001    1    1    2    0    0 -0.20770549972E+03 -0.20440344411E+03  0.19800097619E+03  0.70703304672E+03  0.61300000000E+03 0. -1.
<mgrwt>
<rscale>  0 0.13896820E+04</rscale>
<asrwt>0</asrwt>
<pdfrwt beam="1">  1        2 0.16307728E+00 0.13896820E+04</pdfrwt>
<pdfrwt beam="2">  1       -2 0.60420086E-01 0.13896820E+04</pdfrwt>
<totfact> 0.57479929E+01</totfact>
</mgrwt>
</event>
<event>
 8    1  0.7685004E-052  0.1699241E+04  0.7818608E-02  0.8761797E-01
          2   -1    0    0  501    0  0.00000000000E+00  0.00000000000E+00  0.19127531161E+04  0.19127531161E+04  0.25500000000E-02 0.  1.
         -2   -1    0    0    0  501 -0.00000000000E+00 -0.00000000000E+00 -0.37739050857E+03  0.37739050858E+03  0.25500000000E-02 0. -1.
     200001    2    1    2    0    0  0.55330140052E+03  0.66849558527E+02  0.51376102902E+03  0.97482994023E+03  0.61296958663E+03 0.  0.
    5000001    2    3    3    0    0  0.21785388460E+03  0.17685269175E+03 -0.31411743134E+02  0.31753238451E+03  0.14526846867E+03 0.  0.
        -13    1    4    4    0    0  0.13291209128E+01  0.56716703384E+02  0.24687281311E+02  0.61871027370E+02  0.10566000000E+00 0. -1.
     200003    1    4    4    0    0  0.21652476369E+03  0.12013598836E+03 -0.56099024446E+02  0.25566135714E+03  0.30000000000E+02 0. -1.
     200000    1    3    3    0    0  0.33544751592E+03 -0.11000313322E+03  0.54517277216E+03  0.65729755572E+03  0.10100000000E+03 0.  1.
    -200001    1    1    2    0    0 -0.55330140052E+03 -0.66849558527E+02  0.10216015785E+04  0.13153136844E+04  0.61300000000E+03 0. -1.
<mgrwt>
<rscale>  0 0.16992409E+04</rscale>
<asrwt>0</asrwt>
<pdfrwt beam="1">  1        2 0.27325045E+00 0.16992409E+04</pdfrwt>
<pdfrwt beam="2">  1       -2 0.53912930E-01 0.16992409E+04</pdfrwt>
<totfact> 0.27505784E+01</totfact>
</mgrwt>
</event>
<event>
 8    1  0.7685004E-052  0.1620488E+04  0.7818608E-02  0.8808059E-01
          2   -1    0    0  501    0  0.00000000000E+00  0.00000000000E+00  0.39024724132E+03  0.39024724133E+03  0.25500000000E-02 0.  1.
         -2   -1    0    0    0  501 -0.00000000000E+00 -0.00000000000E+00 -0.16822558766E+04  0.16822558766E+04  0.25500000000E-02 0. -1.
     200001    2    1    2    0    0 -0.42926663663E+00  0.52013239085E+03 -0.51903183774E+03  0.95724529222E+03  0.61350355548E+03 0.  0.
    5000001    2    3    3    0    0  0.12716113615E+03  0.17450784518E+03 -0.52617007353E+03  0.57516206586E+03  0.85635933762E+02 0.  0.
        -13    1    4    4    0    0  0.12567087823E+02  0.25561074784E+02 -0.15974634180E+03  0.16226584706E+03  0.10566000000E+00 0. -1.
     200003    1    4    4    0    0  0.11459404832E+03  0.14894677040E+03 -0.36642373172E+03  0.41289621879E+03  0.30000000000E+02 0. -1.
     200000    1    3    3    0    0 -0.12759040278E+03  0.34562454567E+03  0.71382357809E+01  0.38208322636E+03  0.10100000000E+03 0.  1.
    -200001    1    1    2    0    0  0.42926663663E+00 -0.52013239085E+03 -0.77297679753E+03  0.11152578257E+04  0.61300000000E+03 0.  1.
<mgrwt>
<rscale>  0 0.16204885E+04</rscale>
<asrwt>0</asrwt>
<pdfrwt beam="1">  1        2 0.55749607E-01 0.16204885E+04</pdfrwt>
<pdfrwt beam="2">  1       -2 0.24032226E+00 0.16204885E+04</pdfrwt>
<totfact> 0.62906883E+00</totfact>
</mgrwt>
</event>
<event>
 8    1  0.7685004E-052  0.1493490E+04  0.7818608E-02  0.8888793E-01
          2   -1    0    0  501    0  0.00000000000E+00  0.00000000000E+00  0.15820333510E+04  0.15820333510E+04  0.25500000000E-02 0.  1.
         -2   -1    0    0    0  501 -0.00000000000E+00 -0.00000000000E+00 -0.35247578669E+03  0.35247578670E+03  0.25500000000E-02 0. -1.
     200001    2    1    2    0    0  0.17362791097E+03 -0.12076461341E+03  0.13508418780E+03  0.66235674305E+03  0.61297469274E+03 0.  0.
    5000001    2    3    3    0    0  0.24653623455E+03 -0.43141591001E+02  0.32659029704E+03  0.42107568881E+03  0.89455026520E+02 0.  0.
        -13    1    4    4    0    0  0.20685560767E+03 -0.40640161771E+02  0.29316900950E+03  0.36109409365E+03  0.10566000000E+00 0. -1.
     200003    1    4    4    0    0  0.39680626880E+02 -0.25014292297E+01  0.33421287544E+02  0.59981595168E+02  0.30000000000E+02 0.  1.
     200000    1    3    3    0    0 -0.72908323575E+02 -0.77623022408E+02 -0.19150610924E+03  0.24128105423E+03  0.10100000000E+03 0. -1.
    -200001    1    1    2    0    0 -0.17362791097E+03  0.12076461341E+03  0.10944733765E+04  0.12721523946E+04  0.61300000000E+03 0.  1.
<mgrwt>
<rscale>  0 0.14934905E+04</rscale>
<asrwt>0</asrwt>
<pdfrwt beam="1">  1        2 0.22600476E+00 0.14934905E+04</pdfrwt>
<pdfrwt beam="2">  1       -2 0.50353684E-01 0.14934905E+04</pdfrwt>
<totfact> 0.47746537E+01</totfact>
</mgrwt>
</event>
<event>
 8    1  0.7685004E-052  0.1568333E+04  0.7818608E-02  0.8840242E-01
         -2   -1    0    0    0  501 -0.00000000000E+00  0.00000000000E+00  0.39803831232E+03  0.39803831233E+03  0.25500000000E-02 0. -1.
          2   -1    0    0  501    0  0.00000000000E+00 -0.00000000000E+00 -0.15448685002E+04  0.15448685002E+04  0.25500000000E-02 0.  1.
     200001    2    1    2    0    0 -0.31655576898E+03  0.37089830669E+03 -0.51369559872E+03  0.93573179460E+03  0.61150446810E+03 0.  0.
    5000001    2    3    3    0    0 -0.34863796505E+03  0.16372310654E+03 -0.57262485731E+03  0.69568078257E+03  0.87856916262E+02 0.  0.
        -13    1    4    4    0    0 -0.21298512498E+03  0.94556648982E+02 -0.27859448886E+03  0.36320589714E+03  0.10566000000E+00 0. -1.
     200003    1    4    4    0    0 -0.13565284008E+03  0.69166457562E+02 -0.29403036845E+03  0.33247488543E+03  0.30000000000E+02 0.  1.
     200000    1    3    3    0    0  0.32082196071E+02  0.20717520015E+03  0.58929258593E+02  0.24005101203E+03  0.10100000000E+03 0. -1.
    -200001    1    1    2    0    0  0.31655576898E+03 -0.37089830669E+03 -0.63313458920E+03  0.10071750180E+04  0.61300000000E+03 0.  1.
<mgrwt>
<rscale>  0 0.15683327E+04</rscale>
<asrwt>0</asrwt>
<pdfrwt beam="1">  1        2 0.22069550E+00 0.15683327E+04</pdfrwt>
<pdfrwt beam="2">  1       -2 0.56862617E-01 0.15683327E+04</pdfrwt>
<totfact> 0.38640779E+01</totfact>
</mgrwt>
</event>
<event>
 8    1  0.7685004E-052  0.1483316E+04  0.7818608E-02  0.8895624E-01
         -2   -1    0    0    0  501 -0.00000000000E+00  0.00000000000E+00  0.20702355668E+03  0.20702355669E+03  0.25500000000E-02 0.  1.
          2   -1    0    0  501    0  0.00000000000E+00 -0.00000000000E+00 -0.26569754107E+04  0.26569754107E+04  0.25500000000E-02 0. -1.
     200001    2    1    2    0    0  0.34744582204E+03  0.20394635676E+03 -0.10479005571E+04  0.12816495892E+04  0.61823731372E+03 0.  0.
    5000001    2    3    3    0    0 -0.64487725586E+02  0.98627348268E+02  0.12900122260E+02  0.13435694009E+03  0.63240442912E+02 0.  0.
        -13    1    4    4    0    0 -0.49484123940E+02  0.31537145633E+02  0.38634144390E+01  0.58806523549E+02  0.10566000000E+00 0. -1.
     200003    1    4    4    0    0 -0.15003601646E+02  0.67090202635E+02  0.90367078208E+01  0.75550416546E+02  0.30000000000E+02 0. -1.
     200000    1    3    3    0    0  0.41193354763E+03  0.10531900849E+03 -0.10608006794E+04  0.11472926491E+04  0.10100000000E+03 0. -1.
    -200001    1    1    2    0    0 -0.34744582204E+03 -0.20394635676E+03 -0.14020512969E+04  0.15823493783E+04  0.61300000000E+03 0.  1.
<mgrwt>
<rscale>  0 0.14833159E+04</rscale>
<asrwt>0</asrwt>
<pdfrwt beam="1">  1        2 0.37956790E+00 0.14833159E+04</pdfrwt>
<pdfrwt beam="2">  1       -2 0.29574795E-01 0.14833159E+04</pdfrwt>
<totfact> 0.37194545E+01</totfact>
</mgrwt>
</event>
<event>
 8    1  0.7685004E-052  0.1333024E+04  0.7818608E-02  0.9003779E-01
          2   -1    0    0  501    0  0.00000000000E+00  0.00000000000E+00  0.27344134547E+04  0.27344134547E+04  0.25500000000E-02 0. -1.
         -2   -1    0    0    0  501 -0.00000000000E+00 -0.00000000000E+00 -0.16246203333E+03  0.16246203335E+03  0.25500000000E-02 0.  1.
     200001    2    1    2    0    0  0.13611141814E+03  0.17861304400E+03  0.15796466454E+04  0.17090763864E+04  0.61255990106E+03 0.  0.
    5000001    2    3    3    0    0  0.27286466434E+03  0.10530231004E+03  0.33726917776E+03  0.45297977932E+03  0.76788545110E+02 0.  0.
        -13    1    4    4    0    0 -0.83077547000E+00  0.71928089436E+00  0.20167748065E+02  0.20197939967E+02  0.10566000000E+00 0. -1.
     200003    1    4    4    0    0  0.27369543981E+03  0.10458302915E+03  0.31710142969E+03  0.43278183935E+03  0.30000000000E+02 0. -1.
     200000    1    3    3    0    0 -0.13675324621E+03  0.73310733954E+02  0.12423774677E+04  0.12560966070E+04  0.10100000000E+03 0. -1.
    -200001    1    1    2    0    0 -0.13611141814E+03 -0.17861304400E+03  0.99230477597E+03  0.11877991017E+04  0.61300000000E+03 0.  1.
<mgrwt>
<rscale>  0 0.13330242E+04</rscale>
<asrwt>0</asrwt>
<pdfrwt beam="1">  1        2 0.39063050E+00 0.13330242E+04</pdfrwt>
<pdfrwt beam="2">  1       -2 0.23208862E-01 0.13330242E+04</pdfrwt>
<totfact> 0.53301426E+01</totfact>
</mgrwt>
</event>
<event>
 8    1  0.7685004E-052  0.1607712E+04  0.7818608E-02  0.8815824E-01
          2   -1    0    0  501    0  0.00000000000E+00  0.00000000000E+00  0.10190176793E+04  0.10190176793E+04  0.25500000000E-02 0.  1.
         -2   -1    0    0    0  501 -0.00000000000E+00 -0.00000000000E+00 -0.63412510355E+03  0.63412510355E+03  0.25500000000E-02 0. -1.
     200001    2    1    2    0    0  0.11907986638E+03 -0.35331876171E+03 -0.17994742294E+03  0.74000128993E+03  0.61335688806E+03 0.  0.
    5000001    2    3    3    0    0 -0.56853776010E+02  0.13092858314E+03 -0.14029397423E+03  0.21348297732E+03  0.74282815444E+02 0.  0.
        -13    1    4    4    0    0 -0.32759545766E+02  0.11198128406E+03 -0.11429198992E+03  0.16332686841E+03  0.10566000000E+00 0. -1.
     200003    1    4    4    0    0 -0.24094230244E+02  0.18947299079E+02 -0.26001984311E+02  0.50156108915E+02  0.30000000000E+02 0.  1.
     200000    1    3    3    0    0  0.17593364239E+03 -0.48424734485E+03 -0.39653448703E+02  0.52651831261E+03  0.10100000000E+03 0.  1.
    -200001    1    1    2    0    0 -0.11907986638E+03  0.35331876171E+03  0.56483999866E+03  0.91314149289E+03  0.61300000000E+03 0.  1.
<mgrwt>
<rscale>  0 0.16077123E+04</rscale>
<asrwt>0</asrwt>
<pdfrwt beam="1">  1        2 0.14557395E+00 0.16077123E+04</pdfrwt>
<pdfrwt beam="2">  1       -2 0.90589301E-01 0.16077123E+04</pdfrwt>
<totfact> 0.27342033E+01</totfact>
</mgrwt>
</event>
<event>
 8    1  0.7685004E-052  0.1397162E+04  0.7818608E-02  0.8955876E-01
          2   -1    0    0  501    0  0.00000000000E+00  0.00000000000E+00  0.13770889484E+04  0.13770889484E+04  0.25500000000E-02 0.  1.
         -2   -1    0    0    0  501 -0.00000000000E+00 -0.00000000000E+00 -0.35438178547E+03  0.35438178548E+03  0.25500000000E-02 0. -1.
     200001    2    1    2    0    0  0.27937421761E+03  0.91757580254E+02  0.31228743924E+03  0.74814241089E+03  0.61296346977E+03 0.  0.
    5000001    2    3    3    0    0  0.36134965839E+03  0.25516624814E+03  0.29207789304E+03  0.53830487519E+03  0.93697669362E+02 0.  0.
        -13    1    4    4    0    0  0.11851019436E+03  0.63510750915E+02  0.46790237224E+02  0.14236438850E+03  0.10566000000E+00 0. -1.
     200003    1    4    4    0    0  0.24283946403E+03  0.19165549723E+03  0.24528765582E+03  0.39594048669E+03  0.30000000000E+02 0. -1.
     200000    1    3    3    0    0 -0.81975440776E+02 -0.16340866789E+03  0.20209546195E+02  0.20983753570E+03  0.10100000000E+03 0.  1.
    -200001    1    1    2    0    0 -0.27937421761E+03 -0.91757580254E+02  0.71041972370E+03  0.98332832300E+03  0.61300000000E+03 0.  1.
<mgrwt>
<rscale>  0 0.13971618E+04</rscale>
<asrwt>0</asrwt>
<pdfrwt beam="1">  1        2 0.19672699E+00 0.13971618E+04</pdfrwt>
<pdfrwt beam="2">  1       -2 0.50625969E-01 0.13971618E+04</pdfrwt>
<totfact> 0.61200305E+01</totfact>
</mgrwt>
</event>
<event>
 8    1  0.7685004E-052  0.1248780E+04  0.7818608E-02  0.9071199E-01
         -2   -1    0    0    0  501 -0.00000000000E+00  0.00000000000E+00  0.40452281942E+03  0.40452281943E+03  0.25500000000E-02 0. -1.
          2   -1    0    0  501    0  0.00000000000E+00 -0.00000000000E+00 -0.96376041649E+03  0.96376041649E+03  0.25500000000E-02 0.  1.
     200001    2    1    2    0    0 -0.19169213220E+02 -0.71734072994E+02 -0.17693457669E+03  0.64203408077E+03  0.61268970978E+03 0.  0.
    5000001    2    3    3    0    0 -0.25010617752E+03 -0.44656766206E+02 -0.26353767309E+03  0.37414201607E+03  0.77348666763E+02 0.  0.
        -13    1    4    4    0    0 -0.92366645408E+02 -0.39765878252E+02 -0.13537337049E+03  0.16863831966E+03  0.10566000000E+00 0. -1.
     200003    1    4    4    0    0 -0.15773953211E+03 -0.48908879534E+01 -0.12816430260E+03  0.20550369640E+03  0.30000000000E+02 0. -1.
     200000    1    3    3    0    0  0.23093696430E+03 -0.27077306788E+02  0.86603096401E+02  0.26789206470E+03  0.10100000000E+03 0. -1.
    -200001    1    1    2    0    0  0.19169213220E+02  0.71734072994E+02 -0.38230302038E+03  0.72624915515E+03  0.61300000000E+03 0. -1.
<mgrwt>
<rscale>  0 0.12487803E+04</rscale>
<asrwt>0</asrwt>
<pdfrwt beam="1">  1        2 0.13768006E+00 0.12487803E+04</pdfrwt>
<pdfrwt beam="2">  1       -2 0.57788974E-01 0.12487803E+04</pdfrwt>
<totfact> 0.81646263E+01</totfact>
</mgrwt>
</event>
<event>
 8    1  0.7685004E-052  0.1950910E+04  0.7818608E-02  0.8629922E-01
          2   -1    0    0  501    0  0.00000000000E+00  0.00000000000E+00  0.27755877793E+04  0.27755877793E+04  0.25500000000E-02 0.  1.
         -2   -1    0    0    0  501 -0.00000000000E+00 -0.00000000000E+00 -0.34281483846E+03  0.34281483847E+03  0.25500000000E-02 0. -1.
     200001    2    1    2    0    0 -0.57166755224E+03  0.37897180234E+03  0.17309245774E+04  0.19613444764E+04  0.61672428620E+03 0.  0.
    5000001    2    3    3    0    0 -0.47375327673E+03  0.10516670000E+02  0.12368835895E+04  0.13291863572E+04  0.11091704433E+03 0.  0.
        -13    1    4    4    0    0 -0.11851579494E+03  0.41532711719E+01  0.19776276352E+03  0.23059350622E+03  0.10566000000E+00 0. -1.
     200003    1    4    4    0    0 -0.35523748179E+03  0.63633988278E+01  0.10391208260E+04  0.10985928510E+04  0.30000000000E+02 0. -1.
     200000    1    3    3    0    0 -0.97914275511E+02  0.36845513234E+03  0.49404098789E+03  0.63215811915E+03  0.10100000000E+03 0.  1.
    -200001    1    1    2    0    0  0.57166755224E+03 -0.37897180234E+03  0.70184836344E+03  0.11570581414E+04  0.61300000000E+03 0. -1.
<mgrwt>
<rscale>  0 0.19509102E+04</rscale>
<asrwt>0</asrwt>
<pdfrwt beam="1">  1        2 0.39651255E+00 0.19509102E+04</pdfrwt>
<pdfrwt beam="2">  1       -2 0.48973547E-01 0.19509102E+04</pdfrwt>
<totfact> 0.11600396E+01</totfact>
</mgrwt>
</event>
<event>
 8    1  0.7685004E-052  0.1580853E+04  0.7818608E-02  0.8832398E-01
         -2   -1    0    0    0  501 -0.00000000000E+00  0.00000000000E+00  0.42836294701E+03  0.42836294702E+03  0.25500000000E-02 0. -1.
          2   -1    0    0  501    0  0.00000000000E+00 -0.00000000000E+00 -0.14585160691E+04  0.14585160691E+04  0.25500000000E-02 0.  1.
     200001    2    1    2    0    0  0.42052359469E+03 -0.26798344765E+03 -0.48828150613E+03  0.92873024371E+03  0.61275265357E+03 0.  0.
    5000001    2    3    3    0    0  0.31289378033E+03  0.33319997646E+02  0.68837004043E+01  0.33060189223E+03  0.10118046157E+03 0.  0.
        -13    1    4    4    0    0  0.17888688936E+03  0.58953923553E+02  0.23949182319E+02  0.18986747690E+03  0.10566000000E+00 0. -1.
     200003    1    4    4    0    0  0.13400689097E+03 -0.25633925907E+02 -0.17065481915E+02  0.14073441533E+03  0.30000000000E+02 0. -1.
     200000    1    3    3    0    0  0.10762981436E+03 -0.30130344530E+03 -0.49516520653E+03  0.59812835148E+03  0.10100000000E+03 0.  1.
    -200001    1    1    2    0    0 -0.42052359469E+03  0.26798344765E+03 -0.54187161599E+03  0.95814877243E+03  0.61300000000E+03 0. -1.
<mgrwt>
<rscale>  0 0.15808532E+04</rscale>
<asrwt>0</asrwt>
<pdfrwt beam="1">  1        2 0.20835944E+00 0.15808532E+04</pdfrwt>
<pdfrwt beam="2">  1       -2 0.61194707E-01 0.15808532E+04</pdfrwt>
<totfact> 0.36767469E+01</totfact>
</mgrwt>
</event>
<event>
 8    1  0.7685004E-052  0.1325071E+04  0.7818608E-02  0.9009917E-01
         -2   -1    0    0    0  501 -0.00000000000E+00  0.00000000000E+00  0.24179196017E+03  0.24179196018E+03  0.25500000000E-02 0. -1.
          2   -1    0    0  501    0  0.00000000000E+00 -0.00000000000E+00 -0.18154160261E+04  0.18154160261E+04  0.25500000000E-02 0.  1.
     200001    2    1    2    0    0  0.17699825141E+03 -0.17028244903E+02 -0.10622887322E+04  0.12393747725E+04  0.61316729687E+03 0.  0.
    5000001    2    3    3    0    0 -0.11470734041E+03 -0.20768380782E+03 -0.30725599522E+03  0.40168919310E+03  0.10323576551E+03 0.  0.
        -13    1    4    4    0    0 -0.75095592658E+02 -0.10921854342E+03 -0.23510364194E+03  0.26989214861E+03  0.10566000000E+00 0. -1.
     200003    1    4    4    0    0 -0.39611747753E+02 -0.98465264398E+02 -0.72152353284E+02  0.13179704449E+03  0.30000000000E+02 0. -1.
     200000    1    3    3    0    0  0.29170559182E+03  0.19065556292E+03 -0.75503273698E+03  0.83768557937E+03  0.10100000000E+03 0. -1.
    -200001    1    1    2    0    0 -0.17699825141E+03  0.17028244903E+02 -0.51133533376E+03  0.81783321385E+03  0.61300000000E+03 0.  1.
<mgrwt>
<rscale>  0 0.13250706E+04</rscale>
<asrwt>0</asrwt>
<pdfrwt beam="1">  1        2 0.25934514E+00 0.13250706E+04</pdfrwt>
<pdfrwt beam="2">  1       -2 0.34541710E-01 0.13250706E+04</pdfrwt>
<totfact> 0.76832664E+01</totfact>
</mgrwt>
</event>
<event>
 8    1  0.7685004E-052  0.1539671E+04  0.7818608E-02  0.8858493E-01
          2   -1    0    0  501    0  0.00000000000E+00  0.00000000000E+00  0.16397401323E+04  0.16397401323E+04  0.25500000000E-02 0.  1.
         -2   -1    0    0    0  501 -0.00000000000E+00 -0.00000000000E+00 -0.36142700064E+03  0.36142700065E+03  0.25500000000E-02 0. -1.
     200001    2    1    2    0    0  0.40928706827E+03 -0.16706766146E+03  0.45532176530E+03  0.88379911082E+03  0.61510604823E+03 0.  0.
    5000001    2    3    3    0    0  0.24155041820E+03  0.17303120238E+03  0.37537776910E+03  0.48330583561E+03  0.66254506754E+02 0.  0.
        -13    1    4    4    0    0  0.15004481569E+03  0.90147570344E+02  0.18758421100E+03  0.25656944193E+03  0.10566000000E+00 0. -1.
     200003    1    4    4    0    0  0.91505602513E+02  0.82883632040E+02  0.18779355811E+03  0.22673639368E+03  0.30000000000E+02 0.  1.
     200000    1    3    3    0    0  0.16773665007E+03 -0.34009886384E+03  0.79943996201E+02  0.40049327521E+03  0.10100000000E+03 0. -1.
    -200001    1    1    2    0    0 -0.40928706827E+03  0.16706766146E+03  0.82299136631E+03  0.11173680221E+04  0.61300000000E+03 0. -1.
<mgrwt>
<rscale>  0 0.15396706E+04</rscale>
<asrwt>0</asrwt>
<pdfrwt beam="1">  1        2 0.23424860E+00 0.15396706E+04</pdfrwt>
<pdfrwt beam="2">  1       -2 0.51632427E-01 0.15396706E+04</pdfrwt>
<totfact> 0.42157505E+01</totfact>
</mgrwt>
</event>
<event>
 8    1  0.7685004E-052  0.1419739E+04  0.7818608E-02  0.8939653E-01
         -2   -1    0    0    0  501 -0.00000000000E+00  0.00000000000E+00  0.23344273027E+03  0.23344273029E+03  0.25500000000E-02 0. -1.
          2   -1    0    0  501    0  0.00000000000E+00 -0.00000000000E+00 -0.21586211090E+04  0.21586211090E+04  0.25500000000E-02 0.  1.
     200001    2    1    2    0    0 -0.30361025256E+01 -0.33007287132E+03 -0.11969932763E+04  0.13846017498E+04  0.61267592072E+03 0.  0.
    5000001    2    3    3    0    0 -0.26031508739E+03 -0.65438075435E+01 -0.39522047058E+03  0.47691008238E+03  0.58627981135E+02 0.  0.
        -13    1    4    4    0    0 -0.12246284656E+03 -0.15904720876E+02 -0.21378587827E+03  0.24688969571E+03  0.10566000000E+00 0. -1.
     200003    1    4    4    0    0 -0.13785224083E+03  0.93609133323E+01 -0.18143459231E+03  0.23002038668E+03  0.30000000000E+02 0. -1.
     200000    1    3    3    0    0  0.25727898487E+03 -0.32352906378E+03 -0.80177280573E+03  0.90769166746E+03  0.10100000000E+03 0. -1.
    -200001    1    1    2    0    0  0.30361025256E+01  0.33007287132E+03 -0.72818510242E+03  0.10074620895E+04  0.61300000000E+03 0. -1.
<mgrwt>
<rscale>  0 0.14197386E+04</rscale>
<asrwt>0</asrwt>
<pdfrwt beam="1">  1        2 0.30837443E+00 0.14197386E+04</pdfrwt>
<pdfrwt beam="2">  1       -2 0.33348963E-01 0.14197386E+04</pdfrwt>
<totfact> 0.54332447E+01</totfact>
</mgrwt>
</event>
<event>
 8    1  0.7685004E-052  0.1940064E+04  0.7818608E-02  0.8635167E-01
          2   -1    0    0  501    0  0.00000000000E+00  0.00000000000E+00  0.63977944030E+03  0.63977944030E+03  0.25500000000E-02 0.  1.
         -2   -1    0    0    0  501 -0.00000000000E+00 -0.00000000000E+00 -0.14707603914E+04  0.14707603914E+04  0.25500000000E-02 0. -1.
     200001    2    1    2    0    0  0.11883735439E+03 -0.66477956764E+03 -0.77580465456E+03  0.11968289289E+04  0.61194152709E+03 0.  0.
    5000001    2    3    3    0    0 -0.20971395068E+03 -0.15268862811E+03 -0.21285408488E+03  0.36178555615E+03  0.13523375659E+03 0.  0.
        -13    1    4    4    0    0 -0.16141939993E+03 -0.15048976991E+03 -0.11565269020E+03  0.24915647581E+03  0.10566000000E+00 0. -1.
     200003    1    4    4    0    0 -0.48294550750E+02 -0.21988581975E+01 -0.97201394682E+02  0.11262908034E+03  0.30000000000E+02 0. -1.
     200000    1    3    3    0    0  0.32855130507E+03 -0.51209093953E+03 -0.56295056969E+03  0.83504337272E+03  0.10100000000E+03 0.  1.
    -200001    1    1    2    0    0 -0.11883735439E+03  0.66477956764E+03 -0.55176296579E+02  0.91371090288E+03  0.61300000000E+03 0.  1.
<mgrwt>
<rscale>  0 0.19400642E+04</rscale>
<asrwt>0</asrwt>
<pdfrwt beam="1">  1        2 0.91397063E-01 0.19400642E+04</pdfrwt>
<pdfrwt beam="2">  1       -2 0.21010863E+00 0.19400642E+04</pdfrwt>
<totfact> 0.53769079E+00</totfact>
</mgrwt>
</event>
<event>
 8    1  0.7685004E-052  0.1749478E+04  0.7818608E-02  0.8733638E-01
          2   -1    0    0  501    0  0.00000000000E+00  0.00000000000E+00  0.15272758978E+04  0.15272758978E+04  0.25500000000E-02 0.  1.
         -2   -1    0    0    0  501 -0.00000000000E+00 -0.00000000000E+00 -0.50100219894E+03  0.50100219895E+03  0.25500000000E-02 0. -1.
     200001    2    1    2    0    0  0.41732941789E+03 -0.45661705960E+03  0.60826344458E+03  0.10622736688E+04  0.61300729784E+03 0.  0.
    5000001    2    3    3    0    0 -0.40611466882E+02  0.39671131117E+02 -0.37708973429E+02  0.12233048591E+03  0.10158588100E+03 0.  0.
        -13    1    4    4    0    0 -0.59580015254E+02  0.32692743916E+02  0.28043068813E+01  0.68018152162E+02  0.10566000000E+00 0. -1.
     200003    1    4    4    0    0  0.18968548372E+02  0.69783872005E+01 -0.40513280310E+02  0.54312333744E+02  0.30000000000E+02 0. -1.
     200000    1    3    3    0    0  0.45794088477E+03 -0.49628819072E+03  0.64597241801E+03  0.93994318287E+03  0.10100000000E+03 0. -1.
    -200001    1    1    2    0    0 -0.41732941789E+03  0.45661705960E+03  0.41801025425E+03  0.96600442795E+03  0.61300000000E+03 0.  1.
<mgrwt>
<rscale>  0 0.17494783E+04</rscale>
<asrwt>0</asrwt>
<pdfrwt beam="1">  1        2 0.21818227E+00 0.17494783E+04</pdfrwt>
<pdfrwt beam="2">  1       -2 0.71571742E-01 0.17494783E+04</pdfrwt>
<totfact> 0.23793573E+01</totfact>
</mgrwt>
</event>
<event>
 8    1  0.7685004E-052  0.2440021E+04  0.7818608E-02  0.8424670E-01
          2   -1    0    0  501    0  0.00000000000E+00  0.00000000000E+00  0.16648921725E+04  0.16648921725E+04  0.25500000000E-02 0.  1.
         -2   -1    0    0    0  501 -0.00000000000E+00 -0.00000000000E+00 -0.89400752873E+03  0.89400752874E+03  0.25500000000E-02 0. -1.
     200001    2    1    2    0    0  0.48037427774E+03  0.89537994849E+03  0.84284104024E+02  0.11878949602E+04  0.60952926703E+03 0.  0.
    5000001    2    3    3    0    0  0.27472751090E+03  0.65357536515E+03  0.31761448083E+03  0.78119591423E+03  0.82171374618E+02 0.  0.
        -13    1    4    4    0    0  0.17831344154E+03  0.48986997476E+03  0.22753876264E+03  0.56880767864E+03  0.10566000000E+00 0. -1.
     200003    1    4    4    0    0  0.96414069365E+02  0.16370539038E+03  0.90075718188E+02  0.21238823559E+03  0.30000000000E+02 0.  1.
     200000    1    3    3    0    0  0.20564676684E+03  0.24180458334E+03 -0.23333037681E+03  0.40669904595E+03  0.10100000000E+03 0.  1.
    -200001    1    1    2    0    0 -0.48037427774E+03 -0.89537994849E+03  0.68660053978E+03  0.13710047411E+04  0.61300000000E+03 0.  1.
<mgrwt>
<rscale>  0 0.24400214E+04</rscale>
<asrwt>0</asrwt>
<pdfrwt beam="1">  1        2 0.23784174E+00 0.24400214E+04</pdfrwt>
<pdfrwt beam="2">  1       -2 0.12771536E+00 0.24400214E+04</pdfrwt>
<totfact> 0.49004094E+00</totfact>
</mgrwt>
</event>
<event>
 8    1  0.7685004E-052  0.1335620E+04  0.7818608E-02  0.9001786E-01
         -2   -1    0    0    0  501 -0.00000000000E+00  0.00000000000E+00  0.23605918647E+03  0.23605918648E+03  0.25500000000E-02 0. -1.
          2   -1    0    0  501    0  0.00000000000E+00 -0.00000000000E+00 -0.18892299665E+04  0.18892299665E+04  0.25500000000E-02 0.  1.
     200001    2    1    2    0    0  0.25174655204E+03  0.78869981787E+02 -0.86219491865E+03  0.10903936927E+04  0.61317332525E+03 0.  0.
    5000001    2    3    3    0    0  0.18389343805E+03  0.30779941771E+03 -0.31438764455E+03  0.48433549311E+03  0.84758484751E+02 0.  0.
        -13    1    4    4    0    0  0.12438973073E+03  0.17754802851E+03 -0.14651788238E+03  0.26165551506E+03  0.10566000000E+00 0. -1.
     200003    1    4    4    0    0  0.59503707319E+02  0.13025138920E+03 -0.16786976217E+03  0.22267997805E+03  0.30000000000E+02 0. -1.
     200000    1    3    3    0    0  0.67853113984E+02 -0.22892943592E+03 -0.54780727409E+03  0.60605819956E+03  0.10100000000E+03 0.  1.
    -200001    1    1    2    0    0 -0.25174655204E+03 -0.78869981787E+02 -0.79097586140E+03  0.10348954603E+04  0.61300000000E+03 0. -1.
<mgrwt>
<rscale>  0 0.13356198E+04</rscale>
<asrwt>0</asrwt>
<pdfrwt beam="1">  1        2 0.26988999E+00 0.13356198E+04</pdfrwt>
<pdfrwt beam="2">  1       -2 0.33722742E-01 0.13356198E+04</pdfrwt>
<totfact> 0.73626797E+01</totfact>
</mgrwt>
</event>
<event>
 8    1  0.7685004E-052  0.1674704E+04  0.7818608E-02  0.8775925E-01
         -2   -1    0    0    0  501 -0.00000000000E+00  0.00000000000E+00  0.64741186215E+03  0.64741186216E+03  0.25500000000E-02 0. -1.
          2   -1    0    0  501    0  0.00000000000E+00 -0.00000000000E+00 -0.10830173441E+04  0.10830173441E+04  0.25500000000E-02 0.  1.
     200001    2    1    2    0    0  0.12161212570E+03 -0.50180048810E+02  0.35408166225E+03  0.72212254054E+03  0.61545072395E+03 0.  0.
    5000001    2    3    3    0    0  0.34399858448E+02 -0.30596656587E+03  0.10201627610E+03  0.33901592253E+03  0.98618382931E+02 0.  0.
        -13    1    4    4    0    0 -0.18496573845E+02 -0.17007693975E+03  0.78744535073E+02  0.18833215776E+03  0.10566000000E+00 0. -1.
     200003    1    4    4    0    0  0.52896432293E+02 -0.13588962612E+03  0.23271741025E+02  0.15068376477E+03  0.30000000000E+02 0. -1.
     200000    1    3    3    0    0  0.87212267255E+02  0.25578651706E+03  0.25206538615E+03  0.38310661801E+03  0.10100000000E+03 0. -1.
    -200001    1    1    2    0    0 -0.12161212570E+03  0.50180048810E+02 -0.78968714416E+03  0.10083066657E+04  0.61300000000E+03 0.  1.
<mgrwt>
<rscale>  0 0.16747039E+04</rscale>
<asrwt>0</asrwt>
<pdfrwt beam="1">  1        2 0.15471676E+00 0.16747039E+04</pdfrwt>
<pdfrwt beam="2">  1       -2 0.92487409E-01 0.16747039E+04</pdfrwt>
<totfact> 0.23719750E+01</totfact>
</mgrwt>
</event>
<event>
 8    1  0.7685004E-052  0.1752318E+04  0.7818608E-02  0.8732075E-01
          2   -1    0    0  501    0  0.00000000000E+00  0.00000000000E+00  0.11324500848E+04  0.11324500848E+04  0.25500000000E-02 0.  1.
         -2   -1    0    0    0  501 -0.00000000000E+00 -0.00000000000E+00 -0.67787075969E+03  0.67787075970E+03  0.25500000000E-02 0. -1.
     200001    2    1    2    0    0  0.29366982923E+03  0.92231159619E+01  0.79850214010E+03  0.10484947901E+04  0.61270598388E+03 0.  0.
    5000001    2    3    3    0    0  0.38227030924E+03  0.16118734657E+03  0.71084452841E+03  0.82752413747E+03  0.85931975986E+02 0.  0.
        -13    1    4    4    0    0  0.12683818527E+03  0.25420217192E+02  0.17211145696E+03  0.21530554444E+03  0.10566000000E+00 0. -1.
     200003    1    4    4    0    0  0.25543212397E+03  0.13576712938E+03  0.53873307145E+03  0.61221859303E+03  0.30000000000E+02 0. -1.
     200000    1    3    3    0    0 -0.88600480012E+02 -0.15196423061E+03  0.87657611689E+02  0.22097065264E+03  0.10100000000E+03 0. -1.
    -200001    1    1    2    0    0 -0.29366982923E+03 -0.92231159619E+01 -0.34392281500E+03  0.76182605439E+03  0.61300000000E+03 0. -1.
<mgrwt>
<rscale>  0 0.17523182E+04</rscale>
<asrwt>0</asrwt>
<pdfrwt beam="1">  1        2 0.16177858E+00 0.17523182E+04</pdfrwt>
<pdfrwt beam="2">  1       -2 0.96838680E-01 0.17523182E+04</pdfrwt>
<totfact> 0.19804225E+01</totfact>
</mgrwt>
</event>
<event>
 8    1  0.7685004E-052  0.1635199E+04  0.7818608E-02  0.8799211E-01
         -2   -1    0    0    0  501 -0.00000000000E+00  0.00000000000E+00  0.91937572483E+03  0.91937572484E+03  0.25500000000E-02 0. -1.
          2   -1    0    0  501    0  0.00000000000E+00 -0.00000000000E+00 -0.72708993482E+03  0.72708993482E+03  0.25500000000E-02 0.  1.
     200001    2    1    2    0    0  0.77712532523E+02  0.47698191569E+03 -0.14744085361E+03  0.79515245173E+03  0.61398504099E+03 0.  0.
    5000001    2    3    3    0    0 -0.63514970256E+02 -0.63086401344E+02  0.30909618508E+02  0.20048541421E+03  0.17670583271E+03 0.  0.
        -13    1    4    4    0    0  0.27423466422E+02 -0.36510746090E+02  0.78101895045E+02  0.90470980233E+02  0.10566000000E+00 0. -1.
     200003    1    4    4    0    0 -0.90938436678E+02 -0.26575655254E+02 -0.47192276537E+02  0.11001443397E+03  0.30000000000E+02 0. -1.
     200000    1    3    3    0    0  0.14122750278E+03  0.54006831703E+03 -0.17835047212E+03  0.59466703752E+03  0.10100000000E+03 0.  1.
    -200001    1    1    2    0    0 -0.77712532523E+02 -0.47698191569E+03  0.33972664363E+03  0.85131320793E+03  0.61300000000E+03 0. -1.
<mgrwt>
<rscale>  0 0.16351989E+04</rscale>
<asrwt>0</asrwt>
<pdfrwt beam="1">  1        2 0.10386999E+00 0.16351989E+04</pdfrwt>
<pdfrwt beam="2">  1       -2 0.13133939E+00 0.16351989E+04</pdfrwt>
<totfact> 0.17411613E+01</totfact>
</mgrwt>
</event>
<event>
 8    1  0.7685004E-052  0.1432976E+04  0.7818608E-02  0.8930288E-01
         -2   -1    0    0    0  501 -0.00000000000E+00  0.00000000000E+00  0.16622752569E+04  0.16622752569E+04  0.25500000000E-02 0. -1.
          2   -1    0    0  501    0  0.00000000000E+00 -0.00000000000E+00 -0.30882691461E+03  0.30882691462E+03  0.25500000000E-02 0.  1.
     200001    2    1    2    0    0  0.57563080700E+02 -0.35611309131E+03  0.77825292848E+03  0.10563624238E+04  0.61651756473E+03 0.  0.
    5000001    2    3    3    0    0  0.14389863811E+03 -0.14002263213E+03  0.33999065989E+02  0.27006494390E+03  0.17738653240E+03 0.  0.
        -13    1    4    4    0    0  0.63400392721E+02 -0.11316534588E+02  0.85442183120E+02  0.10699556800E+03  0.10566000000E+00 0. -1.
     200003    1    4    4    0    0  0.80498245394E+02 -0.12870609754E+03 -0.51443117131E+02  0.16306937590E+03  0.30000000000E+02 0. -1.
     200000    1    3    3    0    0 -0.86335557415E+02 -0.21609045918E+03  0.74425386249E+03  0.78629747987E+03  0.10100000000E+03 0.  1.
    -200001    1    1    2    0    0 -0.57563080700E+02  0.35611309131E+03  0.57519541385E+03  0.91473974779E+03  0.61300000000E+03 0.  1.
<mgrwt>
<rscale>  0 0.14329764E+04</rscale>
<asrwt>0</asrwt>
<pdfrwt beam="1">  1        2 0.44118129E-01 0.14329764E+04</pdfrwt>
<pdfrwt beam="2">  1       -2 0.23746790E+00 0.14329764E+04</pdfrwt>
<totfact> 0.86295319E+00</totfact>
</mgrwt>
</event>
<event>
 8    1  0.7685004E-052  0.1995718E+04  0.7818608E-02  0.8608625E-01
         -2   -1    0    0    0  501 -0.00000000000E+00  0.00000000000E+00  0.93322746678E+03  0.93322746678E+03  0.25500000000E-02 0. -1.
          2   -1    0    0  501    0  0.00000000000E+00 -0.00000000000E+00 -0.10669669662E+04  0.10669669662E+04  0.25500000000E-02 0.  1.
     200001    2    1    2    0    0 -0.23662810297E+03  0.10631724602E+03 -0.81198641641E+03  0.10498870637E+04  0.61289859691E+03 0.  0.
    5000001    2    3    3    0    0 -0.40032528688E+03  0.18511374392E+03 -0.62717445531E+03  0.77174660082E+03  0.87849786470E+02 0.  0.
        -13    1    4    4    0    0 -0.13514980712E+03  0.77445847209E+02 -0.28375934788E+03  0.32370157289E+03  0.10566000000E+00 0. -1.
     200003    1    4    4    0    0 -0.26517547976E+03  0.10766789671E+03 -0.34341510743E+03  0.44804502794E+03  0.30000000000E+02 0.  1.
     200000    1    3    3    0    0  0.16369718392E+03 -0.78796497891E+02 -0.18481196109E+03  0.27814046283E+03  0.10100000000E+03 0. -1.
    -200001    1    1    2    0    0  0.23662810297E+03 -0.10631724602E+03  0.67824691695E+03  0.95030736936E+03  0.61300000000E+03 0. -1.
<mgrwt>
<rscale>  0 0.19957183E+04</rscale>
<asrwt>0</asrwt>
<pdfrwt beam="1">  1        2 0.15242385E+00 0.19957183E+04</pdfrwt>
<pdfrwt beam="2">  1       -2 0.13331821E+00 0.19957183E+04</pdfrwt>
<totfact> 0.97167621E+00</totfact>
</mgrwt>
</event>
<event>
 8    1  0.7685004E-052  0.1268171E+04  0.7818608E-02  0.9055194E-01
          2   -1    0    0  501    0  0.00000000000E+00  0.00000000000E+00  0.46059974180E+03  0.46059974180E+03  0.25500000000E-02 0.  1.
         -2   -1    0    0    0  501 -0.00000000000E+00 -0.00000000000E+00 -0.87291461306E+03  0.87291461306E+03  0.25500000000E-02 0. -1.
     200001    2    1    2    0    0  0.11013532281E+03  0.11805839152E+03 -0.22034888524E+03  0.67117946002E+03  0.61307476150E+03 0.  0.
    5000001    2    3    3    0    0 -0.18672174259E+03  0.12445657689E+03 -0.26156799715E+03  0.35484882723E+03  0.84530612000E+02 0.  0.
        -13    1    4    4    0    0 -0.96973777703E+02  0.61965985523E+02 -0.77813860828E+02  0.13891977910E+03  0.10566000000E+00 0. -1.
     200003    1    4    4    0    0 -0.89747964891E+02  0.62490591363E+02 -0.18375413632E+03  0.21592904813E+03  0.30000000000E+02 0. -1.
     200000    1    3    3    0    0  0.29685706541E+03 -0.63981853652E+01  0.41219111904E+02  0.31633063279E+03  0.10100000000E+03 0.  1.
    -200001    1    1    2    0    0 -0.11013532281E+03 -0.11805839152E+03 -0.19196598602E+03  0.66233489484E+03  0.61300000000E+03 0.  1.
<mgrwt>
<rscale>  0 0.12681707E+04</rscale>
<asrwt>0</asrwt>
<pdfrwt beam="1">  1        2 0.65799963E-01 0.12681707E+04</pdfrwt>
<pdfrwt beam="2">  1       -2 0.12470209E+00 0.12681707E+04</pdfrwt>
<totfact> 0.34974244E+01</totfact>
</mgrwt>
</event>
<event>
 8    1  0.7685004E-052  0.2652430E+04  0.7818608E-02  0.8350607E-01
          2   -1    0    0  501    0  0.00000000000E+00  0.00000000000E+00  0.17300700785E+04  0.17300700785E+04  0.25500000000E-02 0.  1.
         -2   -1    0    0    0  501 -0.00000000000E+00 -0.00000000000E+00 -0.10166326553E+04  0.10166326553E+04  0.25500000000E-02 0. -1.
     200001    2    1    2    0    0  0.96372769638E+03  0.40699928597E+03 -0.19924289519E+03  0.12290816168E+04  0.61361583898E+03 0.  0.
    5000001    2    3    3    0    0  0.75212988661E+03  0.90813708704E+02 -0.28708070767E+03  0.82576606578E+03  0.15977411135E+03 0.  0.
        -13    1    4    4    0    0  0.37739679373E+03  0.10489948724E+03 -0.93602210547E+02  0.40273269959E+03  0.10566000000E+00 0. -1.
     200003    1    4    4    0    0  0.37473309288E+03 -0.14085778534E+02 -0.19347849712E+03  0.42303336618E+03  0.30000000000E+02 0. -1.
     200000    1    3    3    0    0  0.21159780977E+03  0.31618557726E+03  0.87837812475E+02  0.40331555099E+03  0.10100000000E+03 0.  1.
    -200001    1    1    2    0    0 -0.96372769638E+03 -0.40699928597E+03  0.91268031838E+03  0.15176211171E+04  0.61300000000E+03 0. -1.
<mgrwt>
<rscale>  0 0.26524296E+04</rscale>
<asrwt>0</asrwt>
<pdfrwt beam="1">  1        2 0.24715287E+00 0.26524296E+04</pdfrwt>
<pdfrwt beam="2">  1       -2 0.14523324E+00 0.26524296E+04</pdfrwt>
<totfact> 0.32015029E+00</totfact>
</mgrwt>
</event>
<event>
 8    1  0.7685004E-052  0.1636042E+04  0.7818608E-02  0.8798707E-01
          2   -1    0    0  501    0  0.00000000000E+00  0.00000000000E+00  0.13652080136E+04  0.13652080136E+04  0.25500000000E-02 0.  1.
         -2   -1    0    0    0  501 -0.00000000000E+00 -0.00000000000E+00 -0.49015112069E+03  0.49015112069E+03  0.25500000000E-02 0. -1.
     200001    2    1    2    0    0  0.16640442666E+03  0.20332932998E+01 -0.14689327452E+03  0.65209452823E+03  0.61315175296E+03 0.  0.
    5000001    2    3    3    0    0  0.11064361647E+03 -0.10462931309E+03  0.20062823606E+03  0.27070446560E+03  0.99196348566E+02 0.  0.
        -13    1    4    4    0    0  0.98629701866E+02 -0.72091698336E+02  0.18606728481E+03  0.22258948021E+03  0.10566000000E+00 0. -1.
     200003    1    4    4    0    0  0.12013914607E+02 -0.32537614757E+02  0.14560951250E+02  0.48114985395E+02  0.30000000000E+02 0. -1.
     200000    1    3    3    0    0  0.55760810183E+02  0.10666260639E+03 -0.34752151058E+03  0.38139006263E+03  0.10100000000E+03 0. -1.
    -200001    1    1    2    0    0 -0.16640442666E+03 -0.20332932998E+01  0.10219501674E+04  0.12032646060E+04  0.61300000000E+03 0.  1.
<mgrwt>
<rscale>  0 0.16360419E+04</rscale>
<asrwt>0</asrwt>
<pdfrwt beam="1">  1        2 0.19502972E+00 0.16360419E+04</pdfrwt>
<pdfrwt beam="2">  1       -2 0.70021589E-01 0.16360419E+04</pdfrwt>
<totfact> 0.30774296E+01</totfact>
</mgrwt>
</event>
<event>
 8    1  0.7685004E-052  0.1529149E+04  0.7818608E-02  0.8865297E-01
         -2   -1    0    0    0  501 -0.00000000000E+00  0.00000000000E+00  0.27834110040E+03  0.27834110041E+03  0.25500000000E-02 0. -1.
          2   -1    0    0  501    0  0.00000000000E+00 -0.00000000000E+00 -0.21002080724E+04  0.21002080724E+04  0.25500000000E-02 0.  1.
     200001    2    1    2    0    0  0.20040922334E+03 -0.39025201941E+03 -0.71400639792E+03  0.10385549388E+04  0.61345800938E+03 0.  0.
    5000001    2    3    3    0    0 -0.20562992105E+02  0.14232898583E+03 -0.13450111430E+03  0.21484466157E+03  0.85949415371E+02 0.  0.
        -13    1    4    4    0    0  0.28782676509E+02  0.61454555135E+02 -0.60898597664E+02  0.91179795873E+02  0.10566000000E+00 0. -1.
     200003    1    4    4    0    0 -0.49345668614E+02  0.80874430699E+02 -0.73602516638E+02  0.12366486569E+03  0.30000000000E+02 0. -1.
     200000    1    3    3    0    0  0.22097221545E+03 -0.53258100525E+03 -0.57950528362E+03  0.82371027728E+03  0.10100000000E+03 0. -1.
    -200001    1    1    2    0    0 -0.20040922334E+03  0.39025201941E+03 -0.11078605741E+04  0.13399942339E+04  0.61300000000E+03 0.  1.
<mgrwt>
<rscale>  0 0.15291491E+04</rscale>
<asrwt>0</asrwt>
<pdfrwt beam="1">  1        2 0.30002972E+00 0.15291491E+04</pdfrwt>
<pdfrwt beam="2">  1       -2 0.39763016E-01 0.15291491E+04</pdfrwt>
<totfact> 0.41156129E+01</totfact>
</mgrwt>
</event>
<event>
 8    1  0.7685004E-052  0.1552965E+04  0.7818608E-02  0.8849976E-01
          2   -1    0    0  501    0  0.00000000000E+00  0.00000000000E+00  0.19865727593E+04  0.19865727593E+04  0.25500000000E-02 0.  1.
         -2   -1    0    0    0  501 -0.00000000000E+00 -0.00000000000E+00 -0.30350006930E+03  0.30350006931E+03  0.25500000000E-02 0. -1.
     200001    2    1    2    0    0  0.79314464412E+02  0.15396998648E+03  0.14960950075E+04  0.16261999532E+04  0.61337466147E+03 0.  0.
    5000001    2    3    3    0    0  0.37319231238E+02  0.31722905578E+03  0.43346775029E+03  0.54555440027E+03  0.87797005968E+02 0.  0.
        -13    1    4    4    0    0 -0.12030701449E+02  0.39994690829E+02  0.98078962434E+02  0.10660115904E+03  0.10566000000E+00 0. -1.
     200003    1    4    4    0    0  0.49349932687E+02  0.27723436495E+03  0.33538878786E+03  0.43895324123E+03  0.30000000000E+02 0. -1.
     200000    1    3    3    0    0  0.41995233174E+02 -0.16325906930E+03  0.10626272572E+04  0.10806455529E+04  0.10100000000E+03 0.  1.
    -200001    1    1    2    0    0 -0.79314464412E+02 -0.15396998648E+03  0.18697768256E+03  0.66387287546E+03  0.61300000000E+03 0. -1.
<mgrwt>
<rscale>  0 0.15529649E+04</rscale>
<asrwt>0</asrwt>
<pdfrwt beam="1">  1        2 0.28379611E+00 0.15529649E+04</pdfrwt>
<pdfrwt beam="2">  1       -2 0.43357152E-01 0.15529649E+04</pdfrwt>
<totfact> 0.39635413E+01</totfact>
</mgrwt>
</event>
<event>
 8    1  0.7685004E-052  0.1447679E+04  0.7818608E-02  0.8920011E-01
          2   -1    0    0  501    0  0.00000000000E+00  0.00000000000E+00  0.23440306901E+04  0.23440306901E+04  0.25500000000E-02 0.  1.
         -2   -1    0    0    0  501 -0.00000000000E+00 -0.00000000000E+00 -0.22352245074E+03  0.22352245076E+03  0.25500000000E-02 0. -1.
     200001    2    1    2    0    0  0.29514172199E+03 -0.33496951535E+02  0.62928550248E+03  0.92811880768E+03  0.61414460489E+03 0.  0.
    5000001    2    3    3    0    0  0.23836663743E+03  0.14466378222E+03  0.28639933358E+02  0.29098400484E+03  0.78135661300E+02 0.  0.
        -13    1    4    4    0    0  0.39955023894E+02  0.29304170254E+00  0.17239664394E+02  0.43516743907E+02  0.10566000000E+00 0. -1.
     200003    1    4    4    0    0  0.19841161353E+03  0.14437074052E+03  0.11400268965E+02  0.24746726094E+03  0.30000000000E+02 0. -1.
     200000    1    3    3    0    0  0.56775084559E+02 -0.17816073376E+03  0.60064556912E+03  0.63713480283E+03  0.10100000000E+03 0.  1.
    -200001    1    1    2    0    0 -0.29514172199E+03  0.33496951535E+02  0.14912227369E+04  0.16394343332E+04  0.61300000000E+03 0.  1.
<mgrwt>
<rscale>  0 0.14476788E+04</rscale>
<asrwt>0</asrwt>
<pdfrwt beam="1">  1        2 0.33486155E+00 0.14476788E+04</pdfrwt>
<pdfrwt beam="2">  1       -2 0.31931777E-01 0.14476788E+04</pdfrwt>
<totfact> 0.47197496E+01</totfact>
</mgrwt>
</event>
<event>
 8    1  0.7685004E-052  0.1552358E+04  0.7818608E-02  0.8850363E-01
          2   -1    0    0  501    0  0.00000000000E+00  0.00000000000E+00  0.52287785488E+03  0.52287785489E+03  0.25500000000E-02 0. -1.
         -2   -1    0    0    0  501 -0.00000000000E+00 -0.00000000000E+00 -0.11521880131E+04  0.11521880132E+04  0.25500000000E-02 0.  1.
     200001    2    1    2    0    0 -0.32294108853E+03  0.34843145638E+03 -0.28476779030E+03  0.82643528305E+03  0.61335728269E+03 0.  0.
    5000001    2    3    3    0    0  0.95981604699E+02  0.18601380386E+03  0.69586784204E+02  0.24536396108E+03  0.10745952350E+03 0.  0.
        -13    1    4    4    0    0  0.92686199258E+00 -0.57383578718E+01  0.23741521802E+02  0.24442971295E+02  0.10566000000E+00 0. -1.
     200003    1    4    4    0    0  0.95054742706E+02  0.19175216174E+03  0.45845262402E+02  0.22092098978E+03  0.30000000000E+02 0. -1.
     200000    1    3    3    0    0 -0.41892269322E+03  0.16241765251E+03 -0.35435457450E+03  0.58107132197E+03  0.10100000000E+03 0.  1.
    -200001    1    1    2    0    0  0.32294108853E+03 -0.34843145638E+03 -0.34454236797E+03  0.84863058499E+03  0.61300000000E+03 0. -1.
<mgrwt>
<rscale>  0 0.15523577E+04</rscale>
<asrwt>0</asrwt>
<pdfrwt beam="1">  1        2 0.74696837E-01 0.15523577E+04</pdfrwt>
<pdfrwt beam="2">  1       -2 0.16459829E+00 0.15523577E+04</pdfrwt>
<totfact> 0.14321500E+01</totfact>
</mgrwt>
</event>
<event>
 8    1  0.7685004E-052  0.1459393E+04  0.7818608E-02  0.8911914E-01
          2   -1    0    0  501    0  0.00000000000E+00  0.00000000000E+00  0.66785766625E+03  0.66785766625E+03  0.25500000000E-02 0.  1.
         -2   -1    0    0    0  501 -0.00000000000E+00 -0.00000000000E+00 -0.79726155558E+03  0.79726155558E+03  0.25500000000E-02 0. -1.
     200001    2    1    2    0    0  0.12010777951E+03 -0.35808731656E+03  0.51535286608E+02  0.72271745031E+03  0.61401321015E+03 0.  0.
    5000001    2    3    3    0    0 -0.10585211586E+03  0.11772587686E+03  0.64422798598E+02  0.18622592446E+03  0.73930680004E+02 0.  0.
        -13    1    4    4    0    0 -0.57752583909E+02  0.99740776612E+02  0.42678789244E+02  0.12290270006E+03  0.10566000000E+00 0. -1.
     200003    1    4    4    0    0 -0.48099531952E+02  0.17985100249E+02  0.21744009354E+02  0.63323224395E+02  0.30000000000E+02 0.  1.
     200000    1    3    3    0    0  0.22595989537E+03 -0.47581319342E+03 -0.12887511989E+02  0.53649152585E+03  0.10100000000E+03 0. -1.
    -200001    1    1    2    0    0 -0.12010777951E+03  0.35808731656E+03 -0.18093917594E+03  0.74240177153E+03  0.61300000000E+03 0.  1.
<mgrwt>
<rscale>  0 0.14593934E+04</rscale>
<asrwt>0</asrwt>
<pdfrwt beam="1">  1        2 0.95408239E-01 0.14593934E+04</pdfrwt>
<pdfrwt beam="2">  1       -2 0.11389451E+00 0.14593934E+04</pdfrwt>
<totfact> 0.27952986E+01</totfact>
</mgrwt>
</event>
<event>
 8    1  0.7685004E-052  0.1278448E+04  0.7818608E-02  0.9046833E-01
          2   -1    0    0  501    0  0.00000000000E+00  0.00000000000E+00  0.30184054188E+04  0.30184054188E+04  0.25500000000E-02 0.  1.
         -2   -1    0    0    0  501 -0.00000000000E+00 -0.00000000000E+00 -0.13537198467E+03  0.13537198469E+03  0.25500000000E-02 0. -1.
     200001    2    1    2    0    0  0.41088357705E+02 -0.15473769407E+03  0.12251831264E+04  0.13789904727E+04  0.61229814901E+03 0.  0.
    5000001    2    3    3    0    0 -0.22365762549E+03 -0.21649407923E+03  0.46685556833E+03  0.56710010315E+03  0.82194802319E+02 0.  0.
        -13    1    4    4    0    0 -0.45418819498E+02 -0.68023199883E+02  0.17425728452E+03  0.19249840846E+03  0.10566000000E+00 0. -1.
     200003    1    4    4    0    0 -0.17823880599E+03 -0.14847087935E+03  0.29259828381E+03  0.37460169469E+03  0.30000000000E+02 0. -1.
     200000    1    3    3    0    0  0.26474598319E+03  0.61756385159E+02  0.75832755811E+03  0.81189036951E+03  0.10100000000E+03 0. -1.
    -200001    1    1    2    0    0 -0.41088357705E+02  0.15473769407E+03  0.16578503077E+04  0.17747869308E+04  0.61300000000E+03 0. -1.
<mgrwt>
<rscale>  0 0.12784483E+04</rscale>
<asrwt>0</asrwt>
<pdfrwt beam="1">  1        2 0.43120079E+00 0.12784483E+04</pdfrwt>
<pdfrwt beam="2">  1       -2 0.19338854E-01 0.12784483E+04</pdfrwt>
<totfact> 0.51772433E+01</totfact>
</mgrwt>
</event>
<event>
 8    1  0.7685004E-052  0.2055709E+04  0.7818608E-02  0.8581009E-01
         -2   -1    0    0    0  501 -0.00000000000E+00  0.00000000000E+00  0.51916814047E+03  0.51916814048E+03  0.25500000000E-02 0. -1.
          2   -1    0    0  501    0  0.00000000000E+00 -0.00000000000E+00 -0.20349572205E+04  0.20349572205E+04  0.25500000000E-02 0.  1.
     200001    2    1    2    0    0 -0.67915349458E+03  0.44269081105E+03 -0.56643233579E+03  0.11633443390E+04  0.61261720234E+03 0.  0.
    5000001    2    3    3    0    0 -0.33490927464E+03  0.21830316060E+03 -0.61380811564E+03  0.73755170734E+03  0.86032703087E+02 0.  0.
        -13    1    4    4    0    0 -0.53522288231E+02  0.12923516056E+02 -0.12469595410E+03  0.13631120547E+03  0.10566000000E+00 0. -1.
     200003    1    4    4    0    0 -0.28138698641E+03  0.20537964454E+03 -0.48911216155E+03  0.60124050187E+03  0.30000000000E+02 0. -1.
     200000    1    3    3    0    0 -0.34424421994E+03  0.22438765045E+03  0.47375779854E+02  0.42579263163E+03  0.10100000000E+03 0. -1.
    -200001    1    1    2    0    0  0.67915349458E+03 -0.44269081105E+03 -0.94935674425E+03  0.13907810220E+04  0.61300000000E+03 0.  1.
<mgrwt>
<rscale>  0 0.20557091E+04</rscale>
<asrwt>0</asrwt>
<pdfrwt beam="1">  1        2 0.29070817E+00 0.20557091E+04</pdfrwt>
<pdfrwt beam="2">  1       -2 0.74166879E-01 0.20557091E+04</pdfrwt>
<totfact> 0.11697818E+01</totfact>
</mgrwt>
</event>
<event>
 8    1  0.7685004E-052  0.1941538E+04  0.7818608E-02  0.8634452E-01
          2   -1    0    0  501    0  0.00000000000E+00  0.00000000000E+00  0.94260424757E+03  0.94260424757E+03  0.25500000000E-02 0.  1.
         -2   -1    0    0    0  501 -0.00000000000E+00 -0.00000000000E+00 -0.99977573022E+03  0.99977573022E+03  0.25500000000E-02 0. -1.
     200001    2    1    2    0    0 -0.24968856847E+03 -0.37289262493E+03  0.57671809212E+03  0.95294666324E+03  0.61164556260E+03 0.  0.
    5000001    2    3    3    0    0 -0.88320207402E+02 -0.32347870598E+03  0.70233632661E+01  0.35025721799E+03  0.10095473668E+03 0.  0.
        -13    1    4    4    0    0 -0.65187548929E+02 -0.12074871730E+03  0.36322866852E+02  0.14194728277E+03  0.10566000000E+00 0. -1.
     200003    1    4    4    0    0 -0.23132658472E+02 -0.20272998868E+03 -0.29299503586E+02  0.20830993521E+03  0.30000000000E+02 0. -1.
     200000    1    3    3    0    0 -0.16136836107E+03 -0.49413918945E+02  0.56969472885E+03  0.60268944525E+03  0.10100000000E+03 0.  1.
    -200001    1    1    2    0    0  0.24968856847E+03  0.37289262493E+03 -0.63388957477E+03  0.98943331456E+03  0.61300000000E+03 0. -1.
<mgrwt>
<rscale>  0 0.19415384E+04</rscale>
<asrwt>0</asrwt>
<pdfrwt beam="1">  1        2 0.13465775E+00 0.19415384E+04</pdfrwt>
<pdfrwt beam="2">  1       -2 0.14282510E+00 0.19415384E+04</pdfrwt>
<totfact> 0.97463388E+00</totfact>
</mgrwt>
</event>
<event>
 8    1  0.7685004E-052  0.1998699E+04  0.7818608E-02  0.8607229E-01
          2   -1    0    0  501    0  0.00000000000E+00  0.00000000000E+00  0.89379056232E+03  0.89379056232E+03  0.25500000000E-02 0.  1.
         -2   -1    0    0    0  501 -0.00000000000E+00 -0.00000000000E+00 -0.11173756836E+04  0.11173756836E+04  0.25500000000E-02 0. -1.
     200001    2    1    2    0    0 -0.65612769976E+03  0.58755985250E+02  0.32755333617E+03  0.95595137515E+03  0.61040643790E+03 0.  0.
    5000001    2    3    3    0    0 -0.47533096952E+03 -0.15678786060E+03 -0.85226153022E+01  0.50617959713E+03  0.74987904128E+02 0.  0.
        -13    1    4    4    0    0 -0.36353159640E+03 -0.10924528443E+03 -0.22535627643E+02  0.38025993666E+03  0.10566000000E+00 0. -1.
     200003    1    4    4    0    0 -0.11179937312E+03 -0.47542576162E+02  0.14013012341E+02  0.12591966047E+03  0.30000000000E+02 0.  1.
     200000    1    3    3    0    0 -0.18079673024E+03  0.21554384585E+03  0.33607595147E+03  0.44977177802E+03  0.10100000000E+03 0.  1.
    -200001    1    1    2    0    0  0.65612769976E+03 -0.58755985250E+02 -0.55113845743E+03  0.10552148708E+04  0.61300000000E+03 0. -1.
<mgrwt>
<rscale>  0 0.19986994E+04</rscale>
<asrwt>0</asrwt>
<pdfrwt beam="1">  1        2 0.12768437E+00 0.19986994E+04</pdfrwt>
<pdfrwt beam="2">  1       -2 0.15962510E+00 0.19986994E+04</pdfrwt>
<totfact> 0.77590103E+00</totfact>
</mgrwt>
</event>
<event>
 8    1  0.7685004E-052  0.1537553E+04  0.7818608E-02  0.8859858E-01
         -2   -1    0    0    0  501 -0.00000000000E+00  0.00000000000E+00  0.87921333492E+03  0.87921333493E+03  0.25500000000E-02 0. -1.
          2   -1    0    0  501    0  0.00000000000E+00 -0.00000000000E+00 -0.67221149198E+03  0.67221149198E+03  0.25500000000E-02 0.  1.
     200001    2    1    2    0    0  0.39825630481E+02  0.36714753382E+02  0.56803842346E+03  0.83794710026E+03  0.61363966491E+03 0.  0.
    5000001    2    3    3    0    0 -0.18258460230E+03 -0.98289566100E+02  0.50553657765E+03  0.55194017962E+03  0.77927881686E+02 0.  0.
        -13    1    4    4    0    0 -0.74216475280E+02 -0.76892355570E+02  0.23267322854E+03  0.25604171924E+03  0.10566000000E+00 0. -1.
     200003    1    4    4    0    0 -0.10836812702E+03 -0.21397210530E+02  0.27286334911E+03  0.29589846038E+03  0.30000000000E+02 0.  1.
     200000    1    3    3    0    0  0.22241023278E+03  0.13500431948E+03  0.62501845808E+02  0.28600692064E+03  0.10100000000E+03 0.  1.
    -200001    1    1    2    0    0 -0.39825630481E+02 -0.36714753382E+02 -0.36103658051E+03  0.71347772665E+03  0.61300000000E+03 0.  1.
<mgrwt>
<rscale>  0 0.15375530E+04</rscale>
<asrwt>0</asrwt>
<pdfrwt beam="1">  1        2 0.96030213E-01 0.15375530E+04</pdfrwt>
<pdfrwt beam="2">  1       -2 0.12560191E+00 0.15375530E+04</pdfrwt>
<totfact> 0.21635834E+01</totfact>
</mgrwt>
</event>
<event>
 8    1  0.7685004E-052  0.2382053E+04  0.7818608E-02  0.8446253E-01
         -2   -1    0    0    0  501 -0.00000000000E+00  0.00000000000E+00  0.12215601910E+04  0.12215601910E+04  0.25500000000E-02 0. -1.
          2   -1    0    0  501    0  0.00000000000E+00 -0.00000000000E+00 -0.11612560004E+04  0.11612560004E+04  0.25500000000E-02 0.  1.
     200001    2    1    2    0    0 -0.71903247183E+03  0.71455977648E+03  0.15265743307E+03  0.11945815803E+04  0.61328418404E+03 0.  0.
    5000001    2    3    3    0    0 -0.37269997293E+03  0.98266980433E+02 -0.14941742393E+03  0.41920217027E+03  0.69593273524E+02 0.  0.
        -13    1    4    4    0    0 -0.89048022710E+02  0.48823514722E+02 -0.28514824697E+02  0.10548171562E+03  0.10566000000E+00 0. -1.
     200003    1    4    4    0    0 -0.28365195022E+03  0.49443465711E+02 -0.12090259923E+03  0.31372045465E+03  0.30000000000E+02 0. -1.
     200000    1    3    3    0    0 -0.34633249889E+03  0.61629279605E+03  0.30207485700E+03  0.77537941002E+03  0.10100000000E+03 0. -1.
    -200001    1    1    2    0    0  0.71903247183E+03 -0.71455977648E+03 -0.92353242475E+02  0.11882346111E+04  0.61300000000E+03 0.  1.
<mgrwt>
<rscale>  0 0.23820530E+04</rscale>
<asrwt>0</asrwt>
<pdfrwt beam="1">  1        2 0.16589371E+00 0.23820530E+04</pdfrwt>
<pdfrwt beam="2">  1       -2 0.17450860E+00 0.23820530E+04</pdfrwt>
<totfact> 0.40332590E+00</totfact>
</mgrwt>
</event>
<event>
 8    1  0.7685004E-052  0.1570471E+04  0.7818608E-02  0.8838897E-01
         -2   -1    0    0    0  501 -0.00000000000E+00  0.00000000000E+00  0.93058011462E+03  0.93058011462E+03  0.25500000000E-02 0. -1.
          2   -1    0    0  501    0  0.00000000000E+00 -0.00000000000E+00 -0.66259218186E+03  0.66259218187E+03  0.25500000000E-02 0.  1.
     200001    2    1    2    0    0  0.19139648457E+03 -0.41316035176E+03 -0.52101438283E+02  0.76518661061E+03  0.61274945827E+03 0.  0.
    5000001    2    3    3    0    0  0.42523102891E+02  0.43737019674E+02 -0.22730814561E+03  0.24382600403E+03  0.63725866109E+02 0.  0.
        -13    1    4    4    0    0  0.11994957277E+02  0.21456753941E+02 -0.22214919835E+02  0.33132840462E+02  0.10566000000E+00 0. -1.
     200003    1    4    4    0    0  0.30528145615E+02  0.22280265733E+02 -0.20509322578E+03  0.21069316357E+03  0.30000000000E+02 0. -1.
     200000    1    3    3    0    0  0.14887338167E+03 -0.45689737143E+03  0.17520670733E+03  0.52136060657E+03  0.10100000000E+03 0.  1.
    -200001    1    1    2    0    0 -0.19139648457E+03  0.41316035176E+03  0.32008937104E+03  0.82798568588E+03  0.61300000000E+03 0. -1.
<mgrwt>
<rscale>  0 0.15704714E+04</rscale>
<asrwt>0</asrwt>
<pdfrwt beam="1">  1        2 0.94656026E-01 0.15704714E+04</pdfrwt>
<pdfrwt beam="2">  1       -2 0.13294002E+00 0.15704714E+04</pdfrwt>
<totfact> 0.19024779E+01</totfact>
</mgrwt>
</event>
<event>
 8    1  0.7685004E-052  0.1334841E+04  0.7818608E-02  0.9002383E-01
         -2   -1    0    0    0  501 -0.00000000000E+00  0.00000000000E+00  0.48692793686E+03  0.48692793687E+03  0.25500000000E-02 0.  1.
          2   -1    0    0  501    0  0.00000000000E+00 -0.00000000000E+00 -0.91481787936E+03  0.91481787937E+03  0.25500000000E-02 0. -1.
     200001    2    1    2    0    0  0.16216168415E+03  0.77614627350E+02 -0.41645556373E+03  0.76282470436E+03  0.61330730538E+03 0.  0.
    5000001    2    3    3    0    0 -0.11282746035E+03 -0.26217238824E+02 -0.42857508168E+03  0.45178134927E+03  0.83740118745E+02 0.  0.
        -13    1    4    4    0    0 -0.79735182066E+02  0.16150327097E+02 -0.24076741863E+03  0.25414069600E+03  0.10566000000E+00 0. -1.
     200003    1    4    4    0    0 -0.33092278283E+02 -0.42367565921E+02 -0.18780766305E+03  0.19764065327E+03  0.30000000000E+02 0. -1.
     200000    1    3    3    0    0  0.27498914450E+03  0.10383186617E+03  0.12119517955E+02  0.31104335509E+03  0.10100000000E+03 0. -1.
    -200001    1    1    2    0    0 -0.16216168415E+03 -0.77614627350E+02 -0.11434378775E+02  0.63892111188E+03  0.61300000000E+03 0.  1.
<mgrwt>
<rscale>  0 0.13348414E+04</rscale>
<asrwt>0</asrwt>
<pdfrwt beam="1">  1        2 0.13068827E+00 0.13348414E+04</pdfrwt>
<pdfrwt beam="2">  1       -2 0.69561134E-01 0.13348414E+04</pdfrwt>
<totfact> 0.58689170E+01</totfact>
</mgrwt>
</event>
<event>
 8    1  0.7685004E-052  0.1319482E+04  0.7818608E-02  0.9014257E-01
          2   -1    0    0  501    0  0.00000000000E+00  0.00000000000E+00  0.71489528681E+03  0.71489528682E+03  0.25500000000E-02 0.  1.
         -2   -1    0    0    0  501 -0.00000000000E+00 -0.00000000000E+00 -0.60884172200E+03  0.60884172201E+03  0.25500000000E-02 0. -1.
     200001    2    1    2    0    0 -0.11112295409E+03 -0.41418757273E+02  0.26563804586E+03  0.67929924537E+03  0.61385671697E+03 0.  0.
    5000001    2    3    3    0    0 -0.37575935030E+02 -0.28953193221E+03  0.11072082412E+02  0.30250468418E+03  0.78395167469E+02 0.  0.
        -13    1    4    4    0    0 -0.17699715630E+02 -0.22427841843E+03  0.26102472451E+02  0.22648496448E+03  0.10566000000E+00 0. -1.
     200003    1    4    4    0    0 -0.19876219399E+02 -0.65253513782E+02 -0.15030390039E+02  0.76019719699E+02  0.30000000000E+02 0. -1.
     200000    1    3    3    0    0 -0.73547019057E+02  0.24811317494E+03  0.25456596345E+03  0.37679456118E+03  0.10100000000E+03 0. -1.
    -200001    1    1    2    0    0  0.11112295409E+03  0.41418757273E+02 -0.15958448106E+03  0.64443776346E+03  0.61300000000E+03 0. -1.
<mgrwt>
<rscale>  0 0.13194818E+04</rscale>
<asrwt>0</asrwt>
<pdfrwt beam="1">  1        2 0.10212790E+00 0.13194818E+04</pdfrwt>
<pdfrwt beam="2">  1       -2 0.86977389E-01 0.13194818E+04</pdfrwt>
<totfact> 0.49148329E+01</totfact>
</mgrwt>
</event>
<event>
 8    1  0.7685004E-052  0.1306744E+04  0.7818608E-02  0.9024234E-01
         -2   -1    0    0    0  501 -0.00000000000E+00  0.00000000000E+00  0.14863183720E+03  0.14863183722E+03  0.25500000000E-02 0.  1.
          2   -1    0    0  501    0  0.00000000000E+00 -0.00000000000E+00 -0.28721634821E+04  0.28721634821E+04  0.25500000000E-02 0. -1.
     200001    2    1    2    0    0  0.14365251748E+03  0.77263926576E+00 -0.95784314894E+03  0.11462122970E+04  0.61294574728E+03 0.  0.
    5000001    2    3    3    0    0 -0.19764430695E+02  0.19695567246E+03 -0.79085604058E+03  0.82484245428E+03  0.12541781306E+03 0.  0.
        -13    1    4    4    0    0 -0.60555812707E+00  0.11726446569E+03 -0.24002125082E+03  0.26713579622E+03  0.10566000000E+00 0. -1.
     200003    1    4    4    0    0 -0.19158872568E+02  0.79691206763E+02 -0.55083478976E+03  0.55770665806E+03  0.30000000000E+02 0. -1.
     200000    1    3    3    0    0  0.16341694817E+03 -0.19618303319E+03 -0.16698710837E+03  0.32136984274E+03  0.10100000000E+03 0.  1.
    -200001    1    1    2    0    0 -0.14365251748E+03 -0.77263926576E+00 -0.17656884960E+04  0.18745830223E+04  0.61300000000E+03 0. -1.
<mgrwt>
<rscale>  0 0.13067439E+04</rscale>
<asrwt>0</asrwt>
<pdfrwt beam="1">  1        2 0.41030903E+00 0.13067439E+04</pdfrwt>
<pdfrwt beam="2">  1       -2 0.21233121E-01 0.13067439E+04</pdfrwt>
<totfact> 0.52733404E+01</totfact>
</mgrwt>
</event>
<event>
 8    1  0.7685004E-052  0.2094155E+04  0.7818608E-02  0.8563822E-01
          2   -1    0    0  501    0  0.00000000000E+00  0.00000000000E+00  0.20835955821E+04  0.20835955821E+04  0.25500000000E-02 0.  1.
         -2   -1    0    0    0  501 -0.00000000000E+00 -0.00000000000E+00 -0.52619213198E+03  0.52619213199E+03  0.25500000000E-02 0. -1.
     200001    2    1    2    0    0  0.55969653986E+03  0.57828360829E+03  0.11153846001E+04  0.15057850818E+04  0.61288967849E+03 0.  0.
    5000001    2    3    3    0    0 -0.16243175712E+02  0.32137586396E+03  0.60481557958E+03  0.68811163241E+03  0.64416198788E+02 0.  0.
        -13    1    4    4    0    0 -0.22043483659E+02  0.83082764207E+02  0.19429820924E+03  0.21246285830E+03  0.10566000000E+00 0. -1.
     200003    1    4    4    0    0  0.58003079467E+01  0.23829309975E+03  0.41051737034E+03  0.47564877411E+03  0.30000000000E+02 0. -1.
     200000    1    3    3    0    0  0.57593971557E+03  0.25690774433E+03  0.51056902051E+03  0.81767344935E+03  0.10100000000E+03 0.  1.
    -200001    1    1    2    0    0 -0.55969653986E+03 -0.57828360829E+03  0.44201884999E+03  0.11040026323E+04  0.61300000000E+03 0. -1.
<mgrwt>
<rscale>  0 0.20941553E+04</rscale>
<asrwt>0</asrwt>
<pdfrwt beam="1">  1        2 0.29765651E+00 0.20941553E+04</pdfrwt>
<pdfrwt beam="2">  1       -2 0.75170305E-01 0.20941553E+04</pdfrwt>
<totfact> 0.10684867E+01</totfact>
</mgrwt>
</event>
<event>
 8    1  0.7685004E-052  0.2404144E+04  0.7818608E-02  0.8437954E-01
         -2   -1    0    0    0  501 -0.00000000000E+00  0.00000000000E+00  0.94076448234E+03  0.94076448235E+03  0.25500000000E-02 0. -1.
          2   -1    0    0  501    0  0.00000000000E+00 -0.00000000000E+00 -0.15359603728E+04  0.15359603728E+04  0.25500000000E-02 0.  1.
     200001    2    1    2    0    0  0.20089420008E+03 -0.62012130745E+02 -0.13409818229E+04  0.14887118791E+04  0.61141379238E+03 0.  0.
    5000001    2    3    3    0    0 -0.36614593599E+02 -0.25024046069E+03 -0.31454952313E+03  0.41372136873E+03  0.90901330098E+02 0.  0.
        -13    1    4    4    0    0 -0.20140788686E+01 -0.16239847747E+03 -0.23979198129E+03  0.28961617263E+03  0.10566000000E+00 0. -1.
     200003    1    4    4    0    0 -0.34600514730E+02 -0.87841983224E+02 -0.74757541840E+02  0.12410519610E+03  0.30000000000E+02 0. -1.
     200000    1    3    3    0    0  0.23750879368E+03  0.18822832995E+03 -0.10264322998E+04  0.10749905103E+04  0.10100000000E+03 0.  1.
    -200001    1    1    2    0    0 -0.20089420008E+03  0.62012130745E+02  0.74578593242E+03  0.98801297612E+03  0.61300000000E+03 0. -1.
<mgrwt>
<rscale>  0 0.24041439E+04</rscale>
<asrwt>0</asrwt>
<pdfrwt beam="1">  1        2 0.21942291E+00 0.24041439E+04</pdfrwt>
<pdfrwt beam="2">  1       -2 0.13439493E+00 0.24041439E+04</pdfrwt>
<totfact> 0.50476620E+00</totfact>
</mgrwt>
</event>
<event>
 8    1  0.7685004E-052  0.1432654E+04  0.7818608E-02  0.8930515E-01
         -2   -1    0    0    0  501 -0.00000000000E+00  0.00000000000E+00  0.30206811636E+03  0.30206811637E+03  0.25500000000E-02 0. -1.
          2   -1    0    0  501    0  0.00000000000E+00 -0.00000000000E+00 -0.16987036524E+04  0.16987036524E+04  0.25500000000E-02 0.  1.
     200001    2    1    2    0    0 -0.31592043888E+03  0.99843617326E+01 -0.96917839777E+03  0.11893569450E+04  0.61266447973E+03 0.  0.
    5000001    2    3    3    0    0  0.13477210674E+03 -0.42613724940E+02 -0.10121306590E+03  0.20474781101E+03  0.10815789890E+03 0.  0.
        -13    1    4    4    0    0  0.85133706581E+02 -0.24557561610E+01 -0.10365886887E+03  0.13416016918E+03  0.10566000000E+00 0. -1.
     200003    1    4    4    0    0  0.49638400163E+02 -0.40157968779E+02  0.24458029693E+01  0.70587641832E+02  0.30000000000E+02 0. -1.
     200000    1    3    3    0    0 -0.45069254562E+03  0.52598086673E+02 -0.86796533187E+03  0.98460913399E+03  0.10100000000E+03 0. -1.
    -200001    1    1    2    0    0  0.31592043888E+03 -0.99843617326E+01 -0.42745713825E+03  0.81141482376E+03  0.61300000000E+03 0. -1.
<mgrwt>
<rscale>  0 0.14326538E+04</rscale>
<asrwt>0</asrwt>
<pdfrwt beam="1">  1        2 0.24267194E+00 0.14326538E+04</pdfrwt>
<pdfrwt beam="2">  1       -2 0.43152589E-01 0.14326538E+04</pdfrwt>
<totfact> 0.56845997E+01</totfact>
</mgrwt>
</event>
<event>
 8    1  0.7685004E-052  0.2125805E+04  0.7818608E-02  0.8549960E-01
          2   -1    0    0  501    0  0.00000000000E+00  0.00000000000E+00  0.45933331456E+03  0.45933331457E+03  0.25500000000E-02 0.  1.
         -2   -1    0    0    0  501 -0.00000000000E+00 -0.00000000000E+00 -0.24595691111E+04  0.24595691111E+04  0.25500000000E-02 0. -1.
     200001    2    1    2    0    0 -0.71332553290E+02  0.49445837629E+03 -0.19753732252E+04  0.21277232004E+04  0.61280438938E+03 0.  0.
    5000001    2    3    3    0    0  0.68899236309E+02  0.23547181874E+03 -0.16733855790E+04  0.16939761194E+04  0.95612316213E+02 0.  0.
        -13    1    4    4    0    0 -0.90611558573E+01  0.83256260102E+02 -0.38940400850E+03  0.39830792408E+03  0.10566000000E+00 0. -1.
     200003    1    4    4    0    0  0.77960392166E+02  0.15221555864E+03 -0.12839815705E+04  0.12956681953E+04  0.30000000000E+02 0.  1.
     200000    1    3    3    0    0 -0.14023178960E+03  0.25898655755E+03 -0.30198764626E+03  0.43374708102E+03  0.10100000000E+03 0. -1.
    -200001    1    1    2    0    0  0.71332553290E+02 -0.49445837629E+03 -0.24862571335E+02  0.79117922527E+03  0.61300000000E+03 0.  1.
<mgrwt>
<rscale>  0 0.21258053E+04</rscale>
<asrwt>0</asrwt>
<pdfrwt beam="1">  1        2 0.65619046E-01 0.21258053E+04</pdfrwt>
<pdfrwt beam="2">  1       -2 0.35136701E+00 0.21258053E+04</pdfrwt>
<totfact> 0.10431303E+00</totfact>
</mgrwt>
</event>
<event>
 8    1  0.7685004E-052  0.1587556E+04  0.7818608E-02  0.8828230E-01
         -2   -1    0    0    0  501 -0.00000000000E+00  0.00000000000E+00  0.32194262403E+03  0.32194262404E+03  0.25500000000E-02 0. -1.
          2   -1    0    0  501    0  0.00000000000E+00 -0.00000000000E+00 -0.19571293314E+04  0.19571293314E+04  0.25500000000E-02 0.  1.
     200001    2    1    2    0    0  0.44863958856E+03 -0.15419384585E+03 -0.57142003968E+03  0.96285702397E+03  0.61279651137E+03 0.  0.
    5000001    2    3    3    0    0  0.27215344721E+03 -0.12027028025E+02  0.50164625878E+02  0.29358334405E+03  0.97275598098E+02 0.  0.
        -13    1    4    4    0    0  0.13058052481E+03 -0.17355115720E+02  0.67008334633E+02  0.14779242733E+03  0.10566000000E+00 0. -1.
     200003    1    4    4    0    0  0.14157292239E+03  0.53280876945E+01 -0.16843708755E+02  0.14579091672E+03  0.30000000000E+02 0. -1.
     200000    1    3    3    0    0  0.17648614135E+03 -0.14216681782E+03 -0.62158466556E+03  0.66927367992E+03  0.10100000000E+03 0.  1.
    -200001    1    1    2    0    0 -0.44863958856E+03  0.15419384585E+03 -0.10637666677E+04  0.13162149315E+04  0.61300000000E+03 0. -1.
<mgrwt>
<rscale>  0 0.15875558E+04</rscale>
<asrwt>0</asrwt>
<pdfrwt beam="1">  1        2 0.27958990E+00 0.15875558E+04</pdfrwt>
<pdfrwt beam="2">  1       -2 0.45991804E-01 0.15875558E+04</pdfrwt>
<totfact> 0.36387414E+01</totfact>
</mgrwt>
</event>
<event>
 8    1  0.7685004E-052  0.1332878E+04  0.7818608E-02  0.9003891E-01
          2   -1    0    0  501    0  0.00000000000E+00  0.00000000000E+00  0.28836891347E+04  0.28836891347E+04  0.25500000000E-02 0.  1.
         -2   -1    0    0    0  501 -0.00000000000E+00 -0.00000000000E+00 -0.15401837993E+03  0.15401837996E+03  0.25500000000E-02 0. -1.
     200001    2    1    2    0    0  0.10424838414E+03 -0.17564137703E+03  0.98871117628E+03  0.11807134724E+04  0.61222291281E+03 0.  0.
    5000001    2    3    3    0    0 -0.13994996052E+03 -0.12266550606E+03  0.64533541818E+02  0.21803773550E+03  0.93504322121E+02 0.  0.
        -13    1    4    4    0    0 -0.62919164612E+02 -0.32130901529E+01  0.19618824856E+02  0.65985261056E+02  0.10566000000E+00 0. -1.
     200003    1    4    4    0    0 -0.77030795909E+02 -0.11945241591E+03  0.44914716962E+02  0.15205247445E+03  0.30000000000E+02 0. -1.
     200000    1    3    3    0    0  0.24419834466E+03 -0.52975870969E+02  0.92417763446E+03  0.96267573693E+03  0.10100000000E+03 0.  1.
    -200001    1    1    2    0    0 -0.10424838414E+03  0.17564137703E+03  0.17409595785E+04  0.18569940422E+04  0.61300000000E+03 0.  1.
<mgrwt>
<rscale>  0 0.13328783E+04</rscale>
<asrwt>0</asrwt>
<pdfrwt beam="1">  1        2 0.41195557E+00 0.13328783E+04</pdfrwt>
<pdfrwt beam="2">  1       -2 0.22002627E-01 0.13328783E+04</pdfrwt>
<totfact> 0.48678807E+01</totfact>
</mgrwt>
</event>
<event>
 8    1  0.7685004E-052  0.1326678E+04  0.7818608E-02  0.9008673E-01
         -2   -1    0    0    0  501 -0.00000000000E+00  0.00000000000E+00  0.21137622643E+03  0.21137622644E+03  0.25500000000E-02 0. -1.
          2   -1    0    0  501    0  0.00000000000E+00 -0.00000000000E+00 -0.20816845258E+04  0.20816845258E+04  0.25500000000E-02 0.  1.
     200001    2    1    2    0    0 -0.22824916820E+03 -0.10681632830E+03 -0.97352681954E+03  0.11779403850E+04  0.61341802351E+03 0.  0.
    5000001    2    3    3    0    0  0.18719032857E+03 -0.93444404147E+02 -0.31448790450E+03  0.39225464928E+03  0.10577803190E+03 0.  0.
        -13    1    4    4    0    0  0.85265810780E+02 -0.37179100566E+02 -0.22158051899E+03  0.24031329877E+03  0.10566000000E+00 0. -1.
     200003    1    4    4    0    0  0.10192451779E+03 -0.56265303581E+02 -0.92907385510E+02  0.15194135051E+03  0.30000000000E+02 0. -1.
     200000    1    3    3    0    0 -0.41543949676E+03 -0.13371924158E+02 -0.65903891505E+03  0.78568573576E+03  0.10100000000E+03 0.  1.
    -200001    1    1    2    0    0  0.22824916820E+03  0.10681632830E+03 -0.89678147978E+03  0.11151203672E+04  0.61300000000E+03 0.  1.
<mgrwt>
<rscale>  0 0.13266780E+04</rscale>
<asrwt>0</asrwt>
<pdfrwt beam="1">  1        2 0.29738349E+00 0.13266780E+04</pdfrwt>
<pdfrwt beam="2">  1       -2 0.30196605E-01 0.13266780E+04</pdfrwt>
<totfact> 0.72238380E+01</totfact>
</mgrwt>
</event>
<event>
 8    1  0.7685004E-052  0.1370147E+04  0.7818608E-02  0.8975715E-01
          2   -1    0    0  501    0  0.00000000000E+00  0.00000000000E+00  0.11128762542E+04  0.11128762542E+04  0.25500000000E-02 0.  1.
         -2   -1    0    0    0  501 -0.00000000000E+00 -0.00000000000E+00 -0.42172334657E+03  0.42172334658E+03  0.25500000000E-02 0. -1.
     200001    2    1    2    0    0 -0.35868494235E+02  0.13030135029E+03  0.65162900866E+03  0.90563527005E+03  0.61423927475E+03 0.  0.
    5000001    2    3    3    0    0 -0.75999511613E+01 -0.22179378945E+03  0.39595467024E+03  0.45804118464E+03  0.61411575850E+02 0.  0.
        -13    1    4    4    0    0 -0.16073917026E+02 -0.37304788303E+02  0.47251329931E+02  0.62311454670E+02  0.10566000000E+00 0. -1.
     200003    1    4    4    0    0  0.84739658647E+01 -0.18448900115E+03  0.34870334031E+03  0.39572972997E+03  0.30000000000E+02 0.  1.
     200000    1    3    3    0    0 -0.28268543074E+02  0.35209513974E+03  0.25567433843E+03  0.44759408540E+03  0.10100000000E+03 0.  1.
    -200001    1    1    2    0    0  0.35868494235E+02 -0.13030135029E+03  0.39523898979E+02  0.62896433075E+03  0.61300000000E+03 0. -1.
<mgrwt>
<rscale>  0 0.13701473E+04</rscale>
<asrwt>0</asrwt>
<pdfrwt beam="1">  1        2 0.15898232E+00 0.13701473E+04</pdfrwt>
<pdfrwt beam="2">  1       -2 0.60246193E-01 0.13701473E+04</pdfrwt>
<totfact> 0.60192668E+01</totfact>
</mgrwt>
</event>
<event>
 8    1  0.7685004E-052  0.1668898E+04  0.7818608E-02  0.8779305E-01
         -2   -1    0    0    0  501 -0.00000000000E+00  0.00000000000E+00  0.24223041556E+03  0.24223041557E+03  0.25500000000E-02 0. -1.
          2   -1    0    0  501    0  0.00000000000E+00 -0.00000000000E+00 -0.28745567499E+04  0.28745567499E+04  0.25500000000E-02 0.  1.
     200001    2    1    2    0    0  0.13607832955E+03  0.48221775635E+03 -0.18093188694E+04  0.19747882322E+04  0.61245613268E+03 0.  0.
    5000001    2    3    3    0    0 -0.75589193212E+02  0.10846025600E+02 -0.23534074248E+02  0.11300876528E+03  0.79910987844E+02 0.  0.
        -13    1    4    4    0    0 -0.34170707845E+02  0.39232768505E+02 -0.10255506534E+02  0.53028614705E+02  0.10566000000E+00 0. -1.
     200003    1    4    4    0    0 -0.41418485367E+02 -0.28386742905E+02 -0.13278567713E+02  0.59980150578E+02  0.30000000000E+02 0. -1.
     200000    1    3    3    0    0  0.21166752276E+03  0.47137173075E+03 -0.17857847951E+04  0.18617794669E+04  0.10100000000E+03 0.  1.
    -200001    1    1    2    0    0 -0.13607832955E+03 -0.48221775635E+03 -0.82300746497E+03  0.11419989333E+04  0.61300000000E+03 0.  1.
<mgrwt>
<rscale>  0 0.16688979E+04</rscale>
<asrwt>0</asrwt>
<pdfrwt beam="1">  1        2 0.41065094E+00 0.16688979E+04</pdfrwt>
<pdfrwt beam="2">  1       -2 0.34604347E-01 0.16688979E+04</pdfrwt>
<totfact> 0.20779102E+01</totfact>
</mgrwt>
</event>
<event>
 8    1  0.7685004E-052  0.1502301E+04  0.7818608E-02  0.8882924E-01
          2   -1    0    0  501    0  0.00000000000E+00  0.00000000000E+00  0.51753789596E+03  0.51753789597E+03  0.25500000000E-02 0.  1.
         -2   -1    0    0    0  501 -0.00000000000E+00 -0.00000000000E+00 -0.10902144366E+04  0.10902144366E+04  0.25500000000E-02 0. -1.
     200001    2    1    2    0    0 -0.29700358120E+03 -0.92907755658E+01  0.52411738780E+02  0.68319741111E+03  0.61295535435E+03 0.  0.
    5000001    2    3    3    0    0  0.12199997857E+03 -0.26753529294E+02  0.17464685788E+03  0.23485451197E+03  0.95159711681E+02 0.  0.
        -13    1    4    4    0    0  0.15867858498E+02 -0.16699548380E+02 -0.52258545543E+01  0.23621697002E+02  0.10566000000E+00 0. -1.
     200003    1    4    4    0    0  0.10613212007E+03 -0.10053980914E+02  0.17987271243E+03  0.21123281497E+03  0.30000000000E+02 0. -1.
     200000    1    3    3    0    0 -0.41900355977E+03  0.17462753729E+02 -0.12223511910E+03  0.44834289914E+03  0.10100000000E+03 0. -1.
    -200001    1    1    2    0    0  0.29700358120E+03  0.92907755658E+01 -0.62508827944E+03  0.92455492149E+03  0.61300000000E+03 0. -1.
<mgrwt>
<rscale>  0 0.15023013E+04</rscale>
<asrwt>0</asrwt>
<pdfrwt beam="1">  1        2 0.73933986E-01 0.15023013E+04</pdfrwt>
<pdfrwt beam="2">  1       -2 0.15574492E+00 0.15023013E+04</pdfrwt>
<totfact> 0.16912431E+01</totfact>
</mgrwt>
</event>
<event>
 8    1  0.7685004E-052  0.1695675E+04  0.7818608E-02  0.8763835E-01
         -2   -1    0    0    0  501 -0.00000000000E+00  0.00000000000E+00  0.18856603857E+04  0.18856603857E+04  0.25500000000E-02 0. -1.
          2   -1    0    0  501    0  0.00000000000E+00 -0.00000000000E+00 -0.38120763536E+03  0.38120763537E+03  0.25500000000E-02 0.  1.
     200001    2    1    2    0    0  0.48369376780E+03 -0.98116374154E+01  0.30662465099E+03  0.83696694589E+03  0.61027785694E+03 0.  0.
    5000001    2    3    3    0    0  0.25252959377E+03 -0.21042943052E+03 -0.78521373295E+01  0.38665480452E+03  0.20344173819E+03 0.  0.
        -13    1    4    4    0    0  0.15595492939E+03 -0.47778399178E+01 -0.19189662107E+02  0.15720375966E+03  0.10566000000E+00 0. -1.
     200003    1    4    4    0    0  0.96574664377E+02 -0.20565159061E+03  0.11337524777E+02  0.22945104486E+03  0.30000000000E+02 0. -1.
     200000    1    3    3    0    0  0.23116417404E+03  0.20061779311E+03  0.31447678832E+03  0.45031214137E+03  0.10100000000E+03 0. -1.
    -200001    1    1    2    0    0 -0.48369376780E+03  0.98116374154E+01  0.11978280994E+04  0.14299010752E+04  0.61300000000E+03 0. -1.
<mgrwt>
<rscale>  0 0.16956747E+04</rscale>
<asrwt>0</asrwt>
<pdfrwt beam="1">  1        2 0.54458234E-01 0.16956747E+04</pdfrwt>
<pdfrwt beam="2">  1       -2 0.26938006E+00 0.16956747E+04</pdfrwt>
<totfact> 0.42621157E+00</totfact>
</mgrwt>
</event>
<event>
 8    1  0.7685004E-052  0.1661650E+04  0.7818608E-02  0.8783544E-01
         -2   -1    0    0    0  501 -0.00000000000E+00  0.00000000000E+00  0.10560898541E+04  0.10560898541E+04  0.25500000000E-02 0. -1.
          2   -1    0    0  501    0  0.00000000000E+00 -0.00000000000E+00 -0.65360910333E+03  0.65360910334E+03  0.25500000000E-02 0.  1.
     200001    2    1    2    0    0  0.47160287808E+02  0.48091679024E+03 -0.83255657033E+02  0.79034379771E+03  0.61984414352E+03 0.  0.
    5000001    2    3    3    0    0  0.26959014325E+03  0.74938981572E+02  0.48648106558E+02  0.29851799056E+03  0.91932889205E+02 0.  0.
        -13    1    4    4    0    0  0.64685514602E+02  0.53903123974E+02 -0.22495305607E+01  0.84230838327E+02  0.10566000000E+00 0. -1.
     200003    1    4    4    0    0  0.20490462865E+03  0.21035857598E+02  0.50897637119E+02  0.21428715223E+03  0.30000000000E+02 0. -1.
     200000    1    3    3    0    0 -0.22242985544E+03  0.40597780867E+03 -0.13190376359E+03  0.49182580715E+03  0.10100000000E+03 0.  1.
    -200001    1    1    2    0    0 -0.47160287808E+02 -0.48091679024E+03  0.48573640781E+03  0.91935515975E+03  0.61300000000E+03 0. -1.
<mgrwt>
<rscale>  0 0.16616497E+04</rscale>
<asrwt>0</asrwt>
<pdfrwt beam="1">  1        2 0.93372729E-01 0.16616497E+04</pdfrwt>
<pdfrwt beam="2">  1       -2 0.15086998E+00 0.16616497E+04</pdfrwt>
<totfact> 0.13813731E+01</totfact>
</mgrwt>
</event>
<event>
 8    1  0.7685004E-052  0.1582284E+04  0.7818608E-02  0.8831506E-01
          2   -1    0    0  501    0  0.00000000000E+00  0.00000000000E+00  0.24874216472E+04  0.24874216472E+04  0.25500000000E-02 0.  1.
         -2   -1    0    0    0  501 -0.00000000000E+00 -0.00000000000E+00 -0.25162817810E+03  0.25162817811E+03  0.25500000000E-02 0. -1.
     200001    2    1    2    0    0  0.18882963624E+03  0.39841816476E+03  0.15261927292E+04  0.17028568531E+04  0.61324020583E+03 0.  0.
    5000001    2    3    3    0    0 -0.24023879172E+02  0.23753734487E+03  0.13969689344E+03  0.28731421519E+03  0.77673027736E+02 0.  0.
        -13    1    4    4    0    0 -0.52465998308E+01  0.14335629155E+03  0.48236985976E+02  0.15134520513E+03  0.10566000000E+00 0. -1.
     200003    1    4    4    0    0 -0.18777279342E+02  0.94181053322E+02  0.91459907461E+02  0.13596901006E+03  0.30000000000E+02 0. -1.
     200000    1    3    3    0    0  0.21285351541E+03  0.16088081989E+03  0.13864958357E+04  0.14155426379E+04  0.10100000000E+03 0.  1.
    -200001    1    1    2    0    0 -0.18882963624E+03 -0.39841816476E+03  0.70960073990E+03  0.10361929722E+04  0.61300000000E+03 0. -1.
<mgrwt>
<rscale>  0 0.15822836E+04</rscale>
<asrwt>0</asrwt>
<pdfrwt beam="1">  1        2 0.35534596E+00 0.15822836E+04</pdfrwt>
<pdfrwt beam="2">  1       -2 0.35946882E-01 0.15822836E+04</pdfrwt>
<totfact> 0.31372796E+01</totfact>
</mgrwt>
</event>
<event>
 8    1  0.7685004E-052  0.1334498E+04  0.7818608E-02  0.9002646E-01
         -2   -1    0    0    0  501 -0.00000000000E+00  0.00000000000E+00  0.48897994420E+03  0.48897994421E+03  0.25500000000E-02 0. -1.
          2   -1    0    0  501    0  0.00000000000E+00 -0.00000000000E+00 -0.91051086671E+03  0.91051086671E+03  0.25500000000E-02 0.  1.
     200001    2    1    2    0    0  0.20889880196E+03  0.12002715593E+02 -0.38698066306E+02  0.64708615223E+03  0.61109751548E+03 0.  0.
    5000001    2    3    3    0    0  0.37490728849E+03  0.12739886640E+03  0.45820992411E+02  0.40579885354E+03  0.76073648967E+02 0.  0.
        -13    1    4    4    0    0  0.82233336363E+02  0.50209842818E+02  0.31227060933E+02  0.10128420619E+03  0.10566000000E+00 0. -1.
     200003    1    4    4    0    0  0.29267395212E+03  0.77189023585E+02  0.14593931478E+02  0.30451464735E+03  0.30000000000E+02 0. -1.
     200000    1    3    3    0    0 -0.16600848653E+03 -0.11539615081E+03 -0.84519058717E+02  0.24128729869E+03  0.10100000000E+03 0.  1.
    -200001    1    1    2    0    0 -0.20889880196E+03 -0.12002715593E+02 -0.38283285620E+03  0.75240465870E+03  0.61300000000E+03 0.  1.
<mgrwt>
<rscale>  0 0.13344985E+04</rscale>
<asrwt>0</asrwt>
<pdfrwt beam="1">  1        2 0.13007298E+00 0.13344985E+04</pdfrwt>
<pdfrwt beam="2">  1       -2 0.69854278E-01 0.13344985E+04</pdfrwt>
<totfact> 0.58530463E+01</totfact>
</mgrwt>
</event>
<event>
 8    1  0.7685004E-052  0.1569138E+04  0.7818608E-02  0.8839735E-01
          2   -1    0    0  501    0  0.00000000000E+00  0.00000000000E+00  0.26408223913E+04  0.26408223913E+04  0.25500000000E-02 0.  1.
         -2   -1    0    0    0  501 -0.00000000000E+00 -0.00000000000E+00 -0.23308960851E+03  0.23308960853E+03  0.25500000000E-02 0. -1.
     200001    2    1    2    0    0 -0.23070381949E+03  0.40682699753E+03  0.93416197819E+03  0.12108087636E+04  0.61210032040E+03 0.  0.
    5000001    2    3    3    0    0 -0.61165072374E+02 -0.56614282954E+02 -0.34305007681E+02  0.11918130426E+03  0.77980809304E+02 0.  0.
        -13    1    4    4    0    0 -0.32504602707E+02  0.10303171799E+02 -0.22583365761E+01  0.34173319921E+02  0.10566000000E+00 0. -1.
     200003    1    4    4    0    0 -0.28660469667E+02 -0.66917454754E+02 -0.32046671105E+02  0.85007984337E+02  0.30000000000E+02 0. -1.
     200000    1    3    3    0    0 -0.16953874712E+03  0.46344128049E+03  0.96846698587E+03  0.10916274593E+04  0.10100000000E+03 0.  1.
    -200001    1    1    2    0    0  0.23070381949E+03 -0.40682699753E+03  0.14735708046E+04  0.16631032362E+04  0.61300000000E+03 0. -1.
<mgrwt>
<rscale>  0 0.15691377E+04</rscale>
<asrwt>0</asrwt>
<pdfrwt beam="1">  1        2 0.37726030E+00 0.15691377E+04</pdfrwt>
<pdfrwt beam="2">  1       -2 0.33298519E-01 0.15691377E+04</pdfrwt>
<totfact> 0.30149965E+01</totfact>
</mgrwt>
</event>
<event>
 8    1  0.7685004E-052  0.1672081E+04  0.7818608E-02  0.8777449E-01
          2   -1    0    0  501    0  0.00000000000E+00  0.00000000000E+00  0.38315731196E+03  0.38315731197E+03  0.25500000000E-02 0.  1.
         -2   -1    0    0    0  501 -0.00000000000E+00 -0.00000000000E+00 -0.18242222422E+04  0.18242222422E+04  0.25500000000E-02 0. -1.
     200001    2    1    2    0    0  0.65229786517E+02  0.51799573059E+03 -0.10160159686E+04  0.12968796246E+04  0.61403078938E+03 0.  0.
    5000001    2    3    3    0    0 -0.14976454662E+03  0.21803348533E+03 -0.81509190788E+03  0.86470906793E+03  0.11566734078E+03 0.  0.
        -13    1    4    4    0    0 -0.55038612696E+02  0.10627272208E+03 -0.52350027240E+03  0.53700622595E+03  0.10566000000E+00 0. -1.
     200003    1    4    4    0    0 -0.94725933924E+02  0.11176076324E+03 -0.29159163549E+03  0.32770284198E+03  0.30000000000E+02 0. -1.
     200000    1    3    3    0    0  0.21499433314E+03  0.29996224526E+03 -0.20092406067E+03  0.43217055663E+03  0.10100000000E+03 0.  1.
    -200001    1    1    2    0    0 -0.65229786517E+02 -0.51799573059E+03 -0.42504896164E+03  0.91049992957E+03  0.61300000000E+03 0.  1.
<mgrwt>
<rscale>  0 0.16720814E+04</rscale>
<asrwt>0</asrwt>
<pdfrwt beam="1">  1        2 0.54736760E-01 0.16720814E+04</pdfrwt>
<pdfrwt beam="2">  1       -2 0.26060317E+00 0.16720814E+04</pdfrwt>
<totfact> 0.48022294E+00</totfact>
</mgrwt>
</event>
<event>
 8    1  0.7685004E-052  0.1814053E+04  0.7818608E-02  0.8698862E-01
          2   -1    0    0  501    0  0.00000000000E+00  0.00000000000E+00  0.92487086718E+03  0.92487086719E+03  0.25500000000E-02 0.  1.
         -2   -1    0    0    0  501 -0.00000000000E+00 -0.00000000000E+00 -0.88952613253E+03  0.88952613253E+03  0.25500000000E-02 0. -1.
     200001    2    1    2    0    0  0.27499720102E+03  0.11362003697E+03  0.61625631949E+03  0.91898634378E+03  0.61337678092E+03 0.  0.
    5000001    2    3    3    0    0 -0.83970389932E+01  0.16903175640E+03 -0.14377373802E+02  0.21807079320E+03  0.13676957642E+03 0.  0.
        -13    1    4    4    0    0 -0.16697975600E+02  0.15717871914E+03  0.31704816493E+02  0.16121159603E+03  0.10566000000E+00 0. -1.
     200003    1    4    4    0    0  0.83009366072E+01  0.11853037260E+02 -0.46082190295E+02  0.56859197174E+02  0.30000000000E+02 0. -1.
     200000    1    3    3    0    0  0.28339424001E+03 -0.55411719434E+02  0.63063369329E+03  0.70091555058E+03  0.10100000000E+03 0. -1.
    -200001    1    1    2    0    0 -0.27499720102E+03 -0.11362003697E+03 -0.58091158484E+03  0.89541065594E+03  0.61300000000E+03 0. -1.
<mgrwt>
<rscale>  0 0.18140527E+04</rscale>
<asrwt>0</asrwt>
<pdfrwt beam="1">  1        2 0.13212441E+00 0.18140527E+04</pdfrwt>
<pdfrwt beam="2">  1       -2 0.12707516E+00 0.18140527E+04</pdfrwt>
<totfact> 0.13633715E+01</totfact>
</mgrwt>
</event>
<event>
 8    1  0.7685004E-052  0.1409544E+04  0.7818608E-02  0.8946939E-01
         -2   -1    0    0    0  501 -0.00000000000E+00  0.00000000000E+00  0.11692630885E+03  0.11692630888E+03  0.25500000000E-02 0. -1.
          2   -1    0    0  501    0  0.00000000000E+00 -0.00000000000E+00 -0.42480024198E+04  0.42480024198E+04  0.25500000000E-02 0.  1.
     200001    2    1    2    0    0  0.10135354318E+03 -0.31040101041E+03 -0.16943419907E+04  0.18311443059E+04  0.61292198511E+03 0.  0.
    5000001    2    3    3    0    0 -0.18312391609E+02 -0.38335114917E+03 -0.56735467893E+03  0.69099385116E+03  0.91036934185E+02 0.  0.
        -13    1    4    4    0    0  0.84984050059E+01 -0.18993792262E+02 -0.70764974952E+02  0.73760964447E+02  0.10566000000E+00 0. -1.
     200003    1    4    4    0    0 -0.26810796615E+02 -0.36435735690E+03 -0.49658970398E+03  0.61723288671E+03  0.30000000000E+02 0. -1.
     200000    1    3    3    0    0  0.11966593479E+03  0.72950138759E+02 -0.11269873117E+04  0.11401504548E+04  0.10100000000E+03 0.  1.
    -200001    1    1    2    0    0 -0.10135354318E+03  0.31040101041E+03 -0.24367341203E+04  0.25337844227E+04  0.61300000000E+03 0.  1.
<mgrwt>
<rscale>  0 0.14095435E+04</rscale>
<asrwt>0</asrwt>
<pdfrwt beam="1">  1        2 0.60685739E+00 0.14095435E+04</pdfrwt>
<pdfrwt beam="2">  1       -2 0.16703761E-01 0.14095435E+04</pdfrwt>
<totfact> 0.11082743E+01</totfact>
</mgrwt>
</event>
<event>
 8    1  0.7685004E-052  0.2411369E+04  0.7818608E-02  0.8435259E-01
         -2   -1    0    0    0  501 -0.00000000000E+00  0.00000000000E+00  0.17837398472E+04  0.17837398472E+04  0.25500000000E-02 0. -1.
          2   -1    0    0  501    0  0.00000000000E+00 -0.00000000000E+00 -0.81495933541E+03  0.81495933542E+03  0.25500000000E-02 0.  1.
     200001    2    1    2    0    0 -0.56867102185E+02  0.40050069531E+03 -0.54352275840E+03  0.91748983954E+03  0.61865656264E+03 0.  0.
    5000001    2    3    3    0    0  0.10750988065E+03  0.18413579332E+03  0.59013608945E+02  0.24884596027E+03  0.11391813325E+03 0.  0.
        -13    1    4    4    0    0  0.17343031949E+02  0.31127853237E+02  0.58772085617E+02  0.68730584285E+02  0.10566000000E+00 0. -1.
     200003    1    4    4    0    0  0.90166848702E+02  0.15300794009E+03  0.24152332785E+00  0.18011537599E+03  0.30000000000E+02 0. -1.
     200000    1    3    3    0    0 -0.16437698284E+03  0.21636490199E+03 -0.60253636735E+03  0.66864387926E+03  0.10100000000E+03 0.  1.
    -200001    1    1    2    0    0  0.56867102185E+02 -0.40050069531E+03  0.15123032702E+04  0.16812093431E+04  0.61300000000E+03 0. -1.
<mgrwt>
<rscale>  0 0.24113693E+04</rscale>
<asrwt>0</asrwt>
<pdfrwt beam="1">  1        2 0.11642276E+00 0.24113693E+04</pdfrwt>
<pdfrwt beam="2">  1       -2 0.25481998E+00 0.24113693E+04</pdfrwt>
<totfact> 0.20102338E+00</totfact>
</mgrwt>
</event>
<event>
 8    1  0.7685004E-052  0.2055594E+04  0.7818608E-02  0.8581061E-01
          2   -1    0    0  501    0  0.00000000000E+00  0.00000000000E+00  0.11129171572E+04  0.11129171572E+04  0.25500000000E-02 0.  1.
         -2   -1    0    0    0  501 -0.00000000000E+00 -0.00000000000E+00 -0.94918761469E+03  0.94918761469E+03  0.25500000000E-02 0. -1.
     200001    2    1    2    0    0  0.79563157361E+03  0.20948041777E+03  0.71945716197E+02  0.10320053024E+04  0.61882720665E+03 0.  0.
    5000001    2    3    3    0    0  0.19811316845E+03  0.32923890542E+03 -0.72553370725E+02  0.39761478700E+03  0.72016962467E+02 0.  0.
        -13    1    4    4    0    0  0.41940074345E+02  0.10756626022E+03 -0.54262850894E+00  0.11545464817E+03  0.10566000000E+00 0. -1.
     200003    1    4    4    0    0  0.15617309410E+03  0.22167264521E+03 -0.72010742216E+02  0.28216013884E+03  0.30000000000E+02 0. -1.
     200000    1    3    3    0    0  0.59751840516E+03 -0.11975848765E+03  0.14449908692E+03  0.63439051537E+03  0.10100000000E+03 0. -1.
    -200001    1    1    2    0    0 -0.79563157361E+03 -0.20948041777E+03  0.91783826325E+02  0.10300994695E+04  0.61300000000E+03 0.  1.
<mgrwt>
<rscale>  0 0.20555945E+04</rscale>
<asrwt>0</asrwt>
<pdfrwt beam="1">  1        2 0.15898817E+00 0.20555945E+04</pdfrwt>
<pdfrwt beam="2">  1       -2 0.13559823E+00 0.20555945E+04</pdfrwt>
<totfact> 0.86973224E+00</totfact>
</mgrwt>
</event>
<event>
 8    1  0.7685004E-052  0.1593106E+04  0.7818608E-02  0.8824795E-01
         -2   -1    0    0    0  501 -0.00000000000E+00  0.00000000000E+00  0.21341208801E+03  0.21341208803E+03  0.25500000000E-02 0. -1.
          2   -1    0    0  501    0  0.00000000000E+00 -0.00000000000E+00 -0.29731043043E+04  0.29731043043E+04  0.25500000000E-02 0.  1.
     200001    2    1    2    0    0 -0.32321561450E+03  0.21988948650E+03 -0.73053702594E+03  0.10310444008E+04  0.61363547031E+03 0.  0.
    5000001    2    3    3    0    0  0.12980277354E+03  0.15424771057E+03 -0.88190383861E+02  0.23584334997E+03  0.84872997393E+02 0.  0.
        -13    1    4    4    0    0  0.11156447255E+03  0.94281276906E+02 -0.78071260993E+02  0.16562223180E+03  0.10566000000E+00 0. -1.
     200003    1    4    4    0    0  0.18238300987E+02  0.59966433662E+02 -0.10119122868E+02  0.70221118167E+02  0.30000000000E+02 0. -1.
     200000    1    3    3    0    0 -0.45301838804E+03  0.65641775931E+02 -0.64234664208E+03  0.79520105083E+03  0.10100000000E+03 0.  1.
    -200001    1    1    2    0    0  0.32321561450E+03 -0.21988948650E+03 -0.20291551904E+04  0.21554719915E+04  0.61300000000E+03 0.  1.
<mgrwt>
<rscale>  0 0.15931056E+04</rscale>
<asrwt>0</asrwt>
<pdfrwt beam="1">  1        2 0.42472916E+00 0.15931056E+04</pdfrwt>
<pdfrwt beam="2">  1       -2 0.30487443E-01 0.15931056E+04</pdfrwt>
<totfact> 0.23440451E+01</totfact>
</mgrwt>
</event>
<event>
 8    1  0.7685004E-052  0.1407638E+04  0.7818608E-02  0.8948308E-01
          2   -1    0    0  501    0  0.00000000000E+00  0.00000000000E+00  0.90761395268E+03  0.90761395268E+03  0.25500000000E-02 0. -1.
         -2   -1    0    0    0  501 -0.00000000000E+00 -0.00000000000E+00 -0.54578387058E+03  0.54578387059E+03  0.25500000000E-02 0.  1.
     200001    2    1    2    0    0  0.21108982387E+03  0.35969607212E+02 -0.99724002964E+02  0.65674614291E+03  0.61279514772E+03 0.  0.
    5000001    2    3    3    0    0  0.47316284622E+02 -0.26995542742E+03 -0.82518709725E+02  0.29493276410E+03  0.71142352376E+02 0.  0.
        -13    1    4    4    0    0  0.46697000891E+02 -0.15081188805E+03 -0.27251736687E+02  0.16021081045E+03  0.10566000000E+00 0. -1.
     200003    1    4    4    0    0  0.61928373043E+00 -0.11914353937E+03 -0.55266973038E+02  0.13472195365E+03  0.30000000000E+02 0. -1.
     200000    1    3    3    0    0  0.16377353925E+03  0.30592503463E+03 -0.17205293239E+02  0.36181337881E+03  0.10100000000E+03 0. -1.
    -200001    1    1    2    0    0 -0.21108982387E+03 -0.35969607212E+02  0.46155408506E+03  0.79665168036E+03  0.61300000000E+03 0. -1.
<mgrwt>
<rscale>  0 0.14076378E+04</rscale>
<asrwt>0</asrwt>
<pdfrwt beam="1">  1        2 0.12965914E+00 0.14076378E+04</pdfrwt>
<pdfrwt beam="2">  1       -2 0.77969123E-01 0.14076378E+04</pdfrwt>
<totfact> 0.45877857E+01</totfact>
</mgrwt>
</event>
<event>
 8    1  0.7685004E-052  0.1863053E+04  0.7818608E-02  0.8673469E-01
         -2   -1    0    0    0  501 -0.00000000000E+00  0.00000000000E+00  0.58529788461E+03  0.58529788462E+03  0.25500000000E-02 0. -1.
          2   -1    0    0  501    0  0.00000000000E+00 -0.00000000000E+00 -0.14825641568E+04  0.14825641568E+04  0.25500000000E-02 0.  1.
     200001    2    1    2    0    0 -0.22810154428E+03 -0.19373926590E+03  0.25266754011E+03  0.73081978692E+03  0.61700199147E+03 0.  0.
    5000001    2    3    3    0    0 -0.33182879226E+03 -0.11561021627E+03 -0.71908982742E+02  0.36693187896E+03  0.77408219986E+02 0.  0.
        -13    1    4    4    0    0 -0.11109528277E+02 -0.20242570009E+02 -0.10746843616E+02  0.25469375156E+02  0.10566000000E+00 0. -1.
     200003    1    4    4    0    0 -0.32071926399E+03 -0.95367646259E+02 -0.61162139126E+02  0.34146250381E+03  0.30000000000E+02 0. -1.
     200000    1    3    3    0    0  0.10372724799E+03 -0.78129049632E+02  0.32457652285E+03  0.36388790795E+03  0.10100000000E+03 0.  1.
    -200001    1    1    2    0    0  0.22810154428E+03  0.19373926590E+03 -0.11499338123E+04  0.13370422545E+04  0.61300000000E+03 0.  1.
<mgrwt>
<rscale>  0 0.18630530E+04</rscale>
<asrwt>0</asrwt>
<pdfrwt beam="1">  1        2 0.21179488E+00 0.18630530E+04</pdfrwt>
<pdfrwt beam="2">  1       -2 0.83613984E-01 0.18630530E+04</pdfrwt>
<totfact> 0.17608423E+01</totfact>
</mgrwt>
</event>
<event>
 8    1  0.7685004E-052  0.1264814E+04  0.7818608E-02  0.9057943E-01
         -2   -1    0    0    0  501 -0.00000000000E+00  0.00000000000E+00  0.12049867022E+03  0.12049867025E+03  0.25500000000E-02 0. -1.
          2   -1    0    0  501    0  0.00000000000E+00 -0.00000000000E+00 -0.33190316223E+04  0.33190316223E+04  0.25500000000E-02 0.  1.
     200001    2    1    2    0    0  0.71244540865E+02 -0.11963168259E+03 -0.17875630986E+04  0.18948644868E+04  0.61297803200E+03 0.  0.
    5000001    2    3    3    0    0 -0.19535804446E+03  0.58679149777E+02 -0.34161714305E+03  0.41033345046E+03  0.10031580128E+03 0.  0.
        -13    1    4    4    0    0 -0.17159198947E+03  0.63917473858E+02 -0.31157166058E+03  0.36139474976E+03  0.10566000000E+00 0. -1.
     200003    1    4    4    0    0 -0.23766054997E+02 -0.52383240815E+01 -0.30045482469E+02  0.48938700699E+02  0.30000000000E+02 0. -1.
     200000    1    3    3    0    0  0.26660258533E+03 -0.17831083237E+03 -0.14459459555E+04  0.14845310363E+04  0.10100000000E+03 0.  1.
    -200001    1    1    2    0    0 -0.71244540865E+02  0.11963168259E+03 -0.14109698535E+04  0.15446658057E+04  0.61300000000E+03 0. -1.
<mgrwt>
<rscale>  0 0.12648144E+04</rscale>
<asrwt>0</asrwt>
<pdfrwt beam="1">  1        2 0.47414732E+00 0.12648144E+04</pdfrwt>
<pdfrwt beam="2">  1       -2 0.17214098E-01 0.12648144E+04</pdfrwt>
<totfact> 0.42773318E+01</totfact>
</mgrwt>
</event>
<event>
 8    1  0.7685004E-052  0.1547620E+04  0.7818608E-02  0.8853389E-01
         -2   -1    0    0    0  501 -0.00000000000E+00  0.00000000000E+00  0.48351804610E+03  0.48351804610E+03  0.25500000000E-02 0. -1.
          2   -1    0    0  501    0  0.00000000000E+00 -0.00000000000E+00 -0.12383856915E+04  0.12383856915E+04  0.25500000000E-02 0.  1.
     200001    2    1    2    0    0 -0.33326536624E+03  0.32951869958E+03 -0.44311705772E+03  0.88967431811E+03  0.61279628569E+03 0.  0.
    5000001    2    3    3    0    0  0.96861631619E+02  0.18751928491E+03 -0.34708900549E+03  0.41575928895E+03  0.88540107974E+02 0.  0.
        -13    1    4    4    0    0  0.60157416283E+02  0.14558442773E+03 -0.19263812794E+03  0.24884372573E+03  0.10566000000E+00 0. -1.
     200003    1    4    4    0    0  0.36704215336E+02  0.41934857178E+02 -0.15445087755E+03  0.16691556322E+03  0.30000000000E+02 0. -1.
     200000    1    3    3    0    0 -0.43012699786E+03  0.14199941467E+03 -0.96028052232E+02  0.47391502917E+03  0.10100000000E+03 0.  1.
    -200001    1    1    2    0    0  0.33326536624E+03 -0.32951869958E+03 -0.31175058764E+03  0.83222941945E+03  0.61300000000E+03 0. -1.
<mgrwt>
<rscale>  0 0.15476199E+04</rscale>
<asrwt>0</asrwt>
<pdfrwt beam="1">  1        2 0.17691224E+00 0.15476199E+04</pdfrwt>
<pdfrwt beam="2">  1       -2 0.69074007E-01 0.15476199E+04</pdfrwt>
<totfact> 0.37522463E+01</totfact>
</mgrwt>
</event>
<event>
 8    1  0.7685004E-052  0.1923392E+04  0.7818608E-02  0.8643299E-01
         -2   -1    0    0    0  501 -0.00000000000E+00  0.00000000000E+00  0.51303181277E+03  0.51303181278E+03  0.25500000000E-02 0. -1.
          2   -1    0    0  501    0  0.00000000000E+00 -0.00000000000E+00 -0.18027334352E+04  0.18027334352E+04  0.25500000000E-02 0.  1.
     200001    2    1    2    0    0 -0.14984737602E+03  0.62568572967E+03 -0.20248524959E+03  0.91157675999E+03  0.61321696376E+03 0.  0.
    5000001    2    3    3    0    0 -0.27913508270E+03  0.60775553893E+03 -0.27971101773E+03  0.72936363724E+03  0.80311097506E+02 0.  0.
        -13    1    4    4    0    0 -0.99006801810E+02  0.15784716889E+03 -0.10118043040E+03  0.21202727700E+03  0.10566000000E+00 0. -1.
     200003    1    4    4    0    0 -0.18012828089E+03  0.44990837004E+03 -0.17853058733E+03  0.51733636023E+03  0.30000000000E+02 0. -1.
     200000    1    3    3    0    0  0.12928770668E+03  0.17930190736E+02  0.77225768145E+02  0.18221312276E+03  0.10100000000E+03 0. -1.
    -200001    1    1    2    0    0  0.14984737602E+03 -0.62568572967E+03 -0.10872163728E+04  0.14041884880E+04  0.61300000000E+03 0.  1.
<mgrwt>
<rscale>  0 0.19233924E+04</rscale>
<asrwt>0</asrwt>
<pdfrwt beam="1">  1        2 0.25753334E+00 0.19233924E+04</pdfrwt>
<pdfrwt beam="2">  1       -2 0.73290260E-01 0.19233924E+04</pdfrwt>
<totfact> 0.15990610E+01</totfact>
</mgrwt>
</event>
<event>
 8    1  0.7685004E-052  0.1442485E+04  0.7818608E-02  0.8923627E-01
         -2   -1    0    0    0  501 -0.00000000000E+00  0.00000000000E+00  0.24856214477E+03  0.24856214478E+03  0.25500000000E-02 0. -1.
          2   -1    0    0  501    0  0.00000000000E+00 -0.00000000000E+00 -0.20927984815E+04  0.20927984815E+04  0.25500000000E-02 0.  1.
     200001    2    1    2    0    0 -0.33349163232E+03 -0.10782664438E+03 -0.68257340762E+03  0.98192213377E+03  0.61271638294E+03 0.  0.
    5000001    2    3    3    0    0 -0.33049155653E+03 -0.21168249438E+03 -0.72598208276E+03  0.83065960995E+03  0.94399447871E+02 0.  0.
        -13    1    4    4    0    0 -0.18658113599E+03 -0.16384823195E+03 -0.47192460063E+03  0.53326504035E+03  0.10566000000E+00 0. -1.
     200003    1    4    4    0    0 -0.14391042054E+03 -0.47834262431E+02 -0.25405748213E+03  0.29739456960E+03  0.30000000000E+02 0. -1.
     200000    1    3    3    0    0 -0.30000757955E+01  0.10385585000E+03  0.43408675139E+02  0.15126252381E+03  0.10100000000E+03 0. -1.
    -200001    1    1    2    0    0  0.33349163232E+03  0.10782664438E+03 -0.11616629292E+04  0.13594384926E+04  0.61300000000E+03 0.  1.
<mgrwt>
<rscale>  0 0.14424846E+04</rscale>
<asrwt>0</asrwt>
<pdfrwt beam="1">  1        2 0.29897120E+00 0.14424846E+04</pdfrwt>
<pdfrwt beam="2">  1       -2 0.35508879E-01 0.14424846E+04</pdfrwt>
<totfact> 0.52026498E+01</totfact>
</mgrwt>
</event>
<event>
 8    1  0.7685004E-052  0.1455326E+04  0.7818608E-02  0.8914716E-01
         -2   -1    0    0    0  501 -0.00000000000E+00  0.00000000000E+00  0.38963082606E+03  0.38963082607E+03  0.25500000000E-02 0. -1.
          2   -1    0    0  501    0  0.00000000000E+00 -0.00000000000E+00 -0.13589617010E+04  0.13589617010E+04  0.25500000000E-02 0.  1.
     200001    2    1    2    0    0 -0.30211456754E+03 -0.18282035067E+03 -0.68359560244E+03  0.98563110046E+03  0.61601073529E+03 0.  0.
    5000001    2    3    3    0    0 -0.48589826236E+02 -0.51731758143E+02 -0.63752720822E+03  0.67939212435E+03  0.22382039987E+03 0.  0.
        -13    1    4    4    0    0 -0.39641610701E+02 -0.13102349592E+03 -0.49245620910E+03  0.51112791239E+03  0.10566000000E+00 0. -1.
     200003    1    4    4    0    0 -0.89482155351E+01  0.79291737775E+02 -0.14507099912E+03  0.16826421196E+03  0.30000000000E+02 0. -1.
     200000    1    3    3    0    0 -0.25352474130E+03 -0.13108859253E+03 -0.46068394217E+02  0.30623897611E+03  0.10100000000E+03 0. -1.
    -200001    1    1    2    0    0  0.30211456754E+03  0.18282035067E+03 -0.28573527249E+03  0.76296142660E+03  0.61300000000E+03 0.  1.
<mgrwt>
<rscale>  0 0.14553259E+04</rscale>
<asrwt>0</asrwt>
<pdfrwt beam="1">  1        2 0.19413738E+00 0.14553259E+04</pdfrwt>
<pdfrwt beam="2">  1       -2 0.55661547E-01 0.14553259E+04</pdfrwt>
<totfact> 0.51271556E+01</totfact>
</mgrwt>
</event>
<event>
 8    1  0.7685004E-052  0.2760590E+04  0.7818608E-02  0.8315609E-01
         -2   -1    0    0    0  501 -0.00000000000E+00  0.00000000000E+00  0.11289339844E+04  0.11289339844E+04  0.25500000000E-02 0. -1.
          2   -1    0    0  501    0  0.00000000000E+00 -0.00000000000E+00 -0.16876230025E+04  0.16876230025E+04  0.25500000000E-02 0.  1.
     200001    2    1    2    0    0 -0.59736549267E+03 -0.98769661546E+03  0.17562221927E+03  0.13174331998E+04  0.61024334154E+03 0.  0.
    5000001    2    3    3    0    0 -0.33626777330E+03 -0.94891609005E+03  0.97513817382E+02  0.10242133664E+04  0.16120271110E+03 0.  0.
        -13    1    4    4    0    0 -0.25336476700E+03 -0.48600739797E+03  0.63655820412E+02  0.55176894682E+03  0.10566000000E+00 0. -1.
     200003    1    4    4    0    0 -0.82903006299E+02 -0.46290869209E+03  0.33857996970E+02  0.47244441961E+03  0.30000000000E+02 0. -1.
     200000    1    3    3    0    0 -0.26109771937E+03 -0.38780525407E+02  0.78108401889E+02  0.29321983333E+03  0.10100000000E+03 0. -1.
    -200001    1    1    2    0    0  0.59736549267E+03  0.98769661546E+03 -0.73431123734E+03  0.14991237872E+04  0.61300000000E+03 0.  1.
<mgrwt>
<rscale>  0 0.27605905E+04</rscale>
<asrwt>0</asrwt>
<pdfrwt beam="1">  1        2 0.24108900E+00 0.27605905E+04</pdfrwt>
<pdfrwt beam="2">  1       -2 0.16127628E+00 0.27605905E+04</pdfrwt>
<totfact> 0.25232491E+00</totfact>
</mgrwt>
</event>
<event>
 8    1  0.7685004E-052  0.1748414E+04  0.7818608E-02  0.8734224E-01
         -2   -1    0    0    0  501 -0.00000000000E+00  0.00000000000E+00  0.12117541912E+04  0.12117541912E+04  0.25500000000E-02 0. -1.
          2   -1    0    0  501    0  0.00000000000E+00 -0.00000000000E+00 -0.63068690667E+03  0.63068690667E+03  0.25500000000E-02 0.  1.
     200001    2    1    2    0    0 -0.61513754169E+03  0.54885966148E+01  0.18781767338E+03  0.88911084214E+03  0.61385526901E+03 0.  0.
    5000001    2    3    3    0    0 -0.68268590536E+03  0.56540759257E+00  0.27382244067E+03  0.74016508282E+03  0.82493973944E+02 0.  0.
        -13    1    4    4    0    0 -0.61929884499E+02  0.20413557253E+02  0.35625964444E+02  0.74305076680E+02  0.10566000000E+00 0. -1.
     200003    1    4    4    0    0 -0.62075602087E+03 -0.19848149661E+02  0.23819647622E+03  0.66586000614E+03  0.30000000000E+02 0. -1.
     200000    1    3    3    0    0  0.67548363678E+02  0.49231890222E+01 -0.86004767284E+02  0.14894575933E+03  0.10100000000E+03 0.  1.
    -200001    1    1    2    0    0  0.61513754169E+03 -0.54885966148E+01  0.39324961120E+03  0.95333025578E+03  0.61300000000E+03 0.  1.
<mgrwt>
<rscale>  0 0.17484136E+04</rscale>
<asrwt>0</asrwt>
<pdfrwt beam="1">  1        2 0.90098131E-01 0.17484136E+04</pdfrwt>
<pdfrwt beam="2">  1       -2 0.17310774E+00 0.17484136E+04</pdfrwt>
<totfact> 0.98375454E+00</totfact>
</mgrwt>
</event>
<event>
 8    1  0.7685004E-052  0.1384378E+04  0.7818608E-02  0.8965205E-01
          2   -1    0    0  501    0  0.00000000000E+00  0.00000000000E+00  0.16070708819E+04  0.16070708819E+04  0.25500000000E-02 0.  1.
         -2   -1    0    0    0  501 -0.00000000000E+00 -0.00000000000E+00 -0.29813586456E+03  0.29813586457E+03  0.25500000000E-02 0. -1.
     200001    2    1    2    0    0 -0.44264151541E+02 -0.31658812897E+03  0.61084501522E+03  0.92271704701E+03  0.61325994301E+03 0.  0.
    5000001    2    3    3    0    0  0.13090637318E+03  0.99265981447E+02  0.32897024371E+03  0.38116950459E+03  0.10039201348E+03 0.  0.
        -13    1    4    4    0    0  0.76718047161E+02  0.20771390959E+02  0.21676581232E+03  0.23087775552E+03  0.10566000000E+00 0. -1.
     200003    1    4    4    0    0  0.54188326022E+02  0.78494590489E+02  0.11220443139E+03  0.15029174907E+03  0.30000000000E+02 0. -1.
     200000    1    3    3    0    0 -0.17517052472E+03 -0.41585411041E+03  0.28187477152E+03  0.54154754242E+03  0.10100000000E+03 0. -1.
    -200001    1    1    2    0    0  0.44264151541E+02  0.31658812897E+03  0.69809000212E+03  0.98248969948E+03  0.61300000000E+03 0. -1.
<mgrwt>
<rscale>  0 0.13843778E+04</rscale>
<asrwt>0</asrwt>
<pdfrwt beam="1">  1        2 0.22958155E+00 0.13843778E+04</pdfrwt>
<pdfrwt beam="2">  1       -2 0.42590839E-01 0.13843778E+04</pdfrwt>
<totfact> 0.65364358E+01</totfact>
</mgrwt>
</event>
<event>
 8    1  0.7685004E-052  0.1374833E+04  0.7818608E-02  0.8972240E-01
          2   -1    0    0  501    0  0.00000000000E+00  0.00000000000E+00  0.17345688219E+04  0.17345688219E+04  0.25500000000E-02 0.  1.
         -2   -1    0    0    0  501 -0.00000000000E+00 -0.00000000000E+00 -0.27242603903E+03  0.27242603904E+03  0.25500000000E-02 0. -1.
     200001    2    1    2    0    0  0.88787213923E+02  0.42234306557E+02  0.11670217998E+04  0.13195850118E+04  0.60802780868E+03 0.  0.
    5000001    2    3    3    0    0  0.14851994392E+03 -0.13957620068E+03  0.10501719893E+04  0.10736623862E+04  0.91378459387E+02 0.  0.
        -13    1    4    4    0    0  0.11763968553E+03 -0.67727574470E+02  0.54857746679E+03  0.56512243646E+03  0.10566000000E+00 0. -1.
     200003    1    4    4    0    0  0.30880258396E+02 -0.71848626215E+02  0.50159452254E+03  0.50853994975E+03  0.30000000000E+02 0. -1.
     200000    1    3    3    0    0 -0.59732730000E+02  0.18181050724E+03  0.11684981051E+03  0.24592262562E+03  0.10100000000E+03 0. -1.
    -200001    1    1    2    0    0 -0.88787213923E+02 -0.42234306557E+02  0.29512098300E+03  0.68740984908E+03  0.61300000000E+03 0. -1.
<mgrwt>
<rscale>  0 0.13748334E+04</rscale>
<asrwt>0</asrwt>
<pdfrwt beam="1">  1        2 0.24779555E+00 0.13748334E+04</pdfrwt>
<pdfrwt beam="2">  1       -2 0.38918005E-01 0.13748334E+04</pdfrwt>
<totfact> 0.66990408E+01</totfact>
</mgrwt>
</event>
<event>
 8    1  0.7685004E-052  0.1459520E+04  0.7818608E-02  0.8911827E-01
          2   -1    0    0  501    0  0.00000000000E+00  0.00000000000E+00  0.15108789149E+04  0.15108789149E+04  0.25500000000E-02 0.  1.
         -2   -1    0    0    0  501 -0.00000000000E+00 -0.00000000000E+00 -0.35247668940E+03  0.35247668941E+03  0.25500000000E-02 0. -1.
     200001    2    1    2    0    0 -0.37354245501E+03  0.41310140303E+00  0.77137866116E+03  0.10478248718E+04  0.60280825033E+03 0.  0.
    5000001    2    3    3    0    0 -0.33117545719E+03 -0.19578100166E+03  0.21527773064E+03  0.44804463410E+03  0.79950664656E+02 0.  0.
        -13    1    4    4    0    0 -0.18093192311E+03 -0.93764986341E+02  0.14885227619E+03  0.25235935638E+03  0.10566000000E+00 0. -1.
     200003    1    4    4    0    0 -0.15024353409E+03 -0.10201601532E+03  0.66425454445E+02  0.19568527772E+03  0.30000000000E+02 0. -1.
     200000    1    3    3    0    0 -0.42366997822E+02  0.19619410307E+03  0.55610093052E+03  0.59978023767E+03  0.10100000000E+03 0.  1.
    -200001    1    1    2    0    0  0.37354245501E+03 -0.41310140303E+00  0.38702356435E+03  0.81553073254E+03  0.61300000000E+03 0. -1.
<mgrwt>
<rscale>  0 0.14595199E+04</rscale>
<asrwt>0</asrwt>
<pdfrwt beam="1">  1        2 0.21583985E+00 0.14595199E+04</pdfrwt>
<pdfrwt beam="2">  1       -2 0.50353812E-01 0.14595199E+04</pdfrwt>
<totfact> 0.52198639E+01</totfact>
</mgrwt>
</event>
<event>
 8    1  0.7685004E-052  0.2011024E+04  0.7818608E-02  0.8601484E-01
          2   -1    0    0  501    0  0.00000000000E+00  0.00000000000E+00  0.25879216475E+04  0.25879216475E+04  0.25500000000E-02 0.  1.
         -2   -1    0    0    0  501 -0.00000000000E+00 -0.00000000000E+00 -0.39068213670E+03  0.39068213671E+03  0.25500000000E-02 0. -1.
     200001    2    1    2    0    0  0.45930686946E+03  0.51716420600E+03  0.16851826548E+04  0.19220088570E+04  0.61307083633E+03 0.  0.
    5000001    2    3    3    0    0 -0.96719474007E+02  0.11141739750E+03  0.14718699930E+03  0.23398415241E+03  0.10637705438E+03 0.  0.
        -13    1    4    4    0    0 -0.33472060617E+02  0.41778575601E+01 -0.60593577004E+01  0.34271858944E+02  0.10566000000E+00 0. -1.
     200003    1    4    4    0    0 -0.63247413390E+02  0.10723953994E+03  0.15324635700E+03  0.19971229346E+03  0.30000000000E+02 0. -1.
     200000    1    3    3    0    0  0.55602634347E+03  0.40574680849E+03  0.15379956555E+04  0.16880247046E+04  0.10100000000E+03 0.  1.
    -200001    1    1    2    0    0 -0.45930686946E+03 -0.51716420600E+03  0.51205685605E+03  0.10565949272E+04  0.61300000000E+03 0.  1.
<mgrwt>
<rscale>  0 0.20110244E+04</rscale>
<asrwt>0</asrwt>
<pdfrwt beam="1">  1        2 0.36970309E+00 0.20110244E+04</pdfrwt>
<pdfrwt beam="2">  1       -2 0.55811735E-01 0.20110244E+04</pdfrwt>
<totfact> 0.11124581E+01</totfact>
</mgrwt>
</event>
<event>
 8    1  0.7685004E-052  0.1542201E+04  0.7818608E-02  0.8856865E-01
          2   -1    0    0  501    0  0.00000000000E+00  0.00000000000E+00  0.14552410144E+04  0.14552410144E+04  0.25500000000E-02 0.  1.
         -2   -1    0    0    0  501 -0.00000000000E+00 -0.00000000000E+00 -0.40858914039E+03  0.40858914040E+03  0.25500000000E-02 0. -1.
     200001    2    1    2    0    0  0.18903611085E+03  0.30627399191E+03  0.88417030982E+03  0.11346472778E+04  0.61329348523E+03 0.  0.
    5000001    2    3    3    0    0  0.65761346316E+02  0.24349127456E+03  0.47136526953E+02  0.28026744965E+03  0.11276274076E+03 0.  0.
        -13    1    4    4    0    0  0.12066338470E+02 -0.95065812549E+01 -0.13615876408E+01  0.15421955005E+02  0.10566000000E+00 0. -1.
     200003    1    4    4    0    0  0.53695007846E+02  0.25299785581E+03  0.48498114594E+02  0.26484549464E+03  0.30000000000E+02 0. -1.
     200000    1    3    3    0    0  0.12327476453E+03  0.62782717356E+02  0.83703378286E+03  0.85437982819E+03  0.10100000000E+03 0.  1.
    -200001    1    1    2    0    0 -0.18903611085E+03 -0.30627399191E+03  0.16248156418E+03  0.72918287694E+03  0.61300000000E+03 0. -1.
<mgrwt>
<rscale>  0 0.15422006E+04</rscale>
<asrwt>0</asrwt>
<pdfrwt beam="1">  1        2 0.20789157E+00 0.15422006E+04</pdfrwt>
<pdfrwt beam="2">  1       -2 0.58369878E-01 0.15422006E+04</pdfrwt>
<totfact> 0.40908327E+01</totfact>
</mgrwt>
</event>
<event>
 8    1  0.7685004E-052  0.1302967E+04  0.7818608E-02  0.9027216E-01
          2   -1    0    0  501    0  0.00000000000E+00  0.00000000000E+00  0.15997410579E+04  0.15997410579E+04  0.25500000000E-02 0.  1.
         -2   -1    0    0    0  501 -0.00000000000E+00 -0.00000000000E+00 -0.26531199561E+03  0.26531199562E+03  0.25500000000E-02 0. -1.
     200001    2    1    2    0    0 -0.10946090813E+03  0.17023692082E+03  0.64947880472E+03  0.92383673673E+03  0.62505143687E+03 0.  0.
    5000001    2    3    3    0    0  0.94779028860E+02  0.28912434837E+03  0.47971743792E+03  0.61583009078E+03  0.23778546493E+03 0.  0.
        -13    1    4    4    0    0  0.64082682017E+02  0.62428330960E+00  0.20635850395E+03  0.21608059417E+03  0.10566000000E+00 0. -1.
     200003    1    4    4    0    0  0.30696346842E+02  0.28850006506E+03  0.27335893397E+03  0.39974949660E+03  0.30000000000E+02 0. -1.
     200000    1    3    3    0    0 -0.20423993699E+03 -0.11888742755E+03  0.16976136680E+03  0.30800664595E+03  0.10100000000E+03 0. -1.
    -200001    1    1    2    0    0  0.10946090813E+03 -0.17023692082E+03  0.68495025753E+03  0.94121631675E+03  0.61300000000E+03 0. -1.
<mgrwt>
<rscale>  0 0.13029666E+04</rscale>
<asrwt>0</asrwt>
<pdfrwt beam="1">  1        2 0.22853444E+00 0.13029666E+04</pdfrwt>
<pdfrwt beam="2">  1       -2 0.37901714E-01 0.13029666E+04</pdfrwt>
<totfact> 0.83333285E+01</totfact>
</mgrwt>
</event>
<event>
 8    1  0.7685004E-052  0.1567351E+04  0.7818608E-02  0.8840861E-01
         -2   -1    0    0    0  501 -0.00000000000E+00  0.00000000000E+00  0.38364916468E+03  0.38364916469E+03  0.25500000000E-02 0. -1.
          2   -1    0    0  501    0  0.00000000000E+00 -0.00000000000E+00 -0.16008035629E+04  0.16008035629E+04  0.25500000000E-02 0.  1.
     200001    2    1    2    0    0  0.34021341979E+03  0.23966379323E+03 -0.93066433626E+03  0.11900790999E+04  0.61397740381E+03 0.  0.
    5000001    2    3    3    0    0  0.69736236146E+02 -0.13642884012E+03 -0.55988549473E+03  0.58818083185E+03  0.94915502916E+02 0.  0.
        -13    1    4    4    0    0  0.53724926163E+02 -0.10779151960E+03 -0.49557281199E+03  0.50999784562E+03  0.10566000000E+00 0. -1.
     200003    1    4    4    0    0  0.16011309983E+02 -0.28637320522E+02 -0.64312682735E+02  0.78182986222E+02  0.30000000000E+02 0. -1.
     200000    1    3    3    0    0  0.27047718364E+03  0.37609263335E+03 -0.37077884153E+03  0.60189826803E+03  0.10100000000E+03 0. -1.
    -200001    1    1    2    0    0 -0.34021341979E+03 -0.23966379323E+03 -0.28649006195E+03  0.79437362770E+03  0.61300000000E+03 0. -1.
<mgrwt>
<rscale>  0 0.15673506E+04</rscale>
<asrwt>0</asrwt>
<pdfrwt beam="1">  1        2 0.22868622E+00 0.15673506E+04</pdfrwt>
<pdfrwt beam="2">  1       -2 0.54807024E-01 0.15673506E+04</pdfrwt>
<totfact> 0.38985985E+01</totfact>
</mgrwt>
</event>
<event>
 8    1  0.7685004E-052  0.1345770E+04  0.7818608E-02  0.8994037E-01
         -2   -1    0    0    0  501 -0.00000000000E+00  0.00000000000E+00  0.44173852187E+03  0.44173852187E+03  0.25500000000E-02 0. -1.
          2   -1    0    0  501    0  0.00000000000E+00 -0.00000000000E+00 -0.10249820966E+04  0.10249820966E+04  0.25500000000E-02 0.  1.
     200001    2    1    2    0    0  0.19909592038E+03 -0.13744701525E+03 -0.14338572446E+03  0.67439821188E+03  0.61296216416E+03 0.  0.
    5000001    2    3    3    0    0 -0.84589941712E+02 -0.12320486762E+03  0.14683611524E+03  0.25593647724E+03  0.14699570742E+03 0.  0.
        -13    1    4    4    0    0  0.35903900762E+02 -0.43654295010E+02  0.68971692420E+02  0.89173387746E+02  0.10566000000E+00 0. -1.
     200003    1    4    4    0    0 -0.12049384247E+03 -0.79550572606E+02  0.77864422818E+02  0.16676308949E+03  0.30000000000E+02 0. -1.
     200000    1    3    3    0    0  0.28368586210E+03 -0.14242147637E+02 -0.29022183970E+03  0.41846173464E+03  0.10100000000E+03 0.  1.
    -200001    1    1    2    0    0 -0.19909592038E+03  0.13744701525E+03 -0.43985785023E+03  0.79232240655E+03  0.61300000000E+03 0.  1.
<mgrwt>
<rscale>  0 0.13457698E+04</rscale>
<asrwt>0</asrwt>
<pdfrwt beam="1">  1        2 0.14642601E+00 0.13457698E+04</pdfrwt>
<pdfrwt beam="2">  1       -2 0.63105503E-01 0.13457698E+04</pdfrwt>
<totfact> 0.61686518E+01</totfact>
</mgrwt>
</event>
<event>
 8    1  0.7685004E-052  0.1522112E+04  0.7818608E-02  0.8869881E-01
         -2   -1    0    0    0  501 -0.00000000000E+00  0.00000000000E+00  0.11064209056E+04  0.11064209056E+04  0.25500000000E-02 0. -1.
          2   -1    0    0  501    0  0.00000000000E+00 -0.00000000000E+00 -0.52349513703E+03  0.52349513703E+03  0.25500000000E-02 0.  1.
     200001    2    1    2    0    0 -0.75319913166E+02  0.82510780421E+02  0.75969685059E+03  0.98222928682E+03  0.61249812154E+03 0.  0.
    5000001    2    3    3    0    0  0.15215046053E+03  0.26289356484E+03  0.39507373346E+03  0.50533125016E+03  0.83747408587E+02 0.  0.
        -13    1    4    4    0    0  0.93327282692E+02  0.18052910705E+03  0.30530255225E+03  0.36675659471E+03  0.10566000000E+00 0. -1.
     200003    1    4    4    0    0  0.58823177834E+02  0.82364457797E+02  0.89771181209E+02  0.13857465545E+03  0.30000000000E+02 0. -1.
     200000    1    3    3    0    0 -0.22747037369E+03 -0.18038278442E+03  0.36462311713E+03  0.47689803666E+03  0.10100000000E+03 0.  1.
    -200001    1    1    2    0    0  0.75319913166E+02 -0.82510780421E+02 -0.17677108203E+03  0.64768675581E+03  0.61300000000E+03 0.  1.
<mgrwt>
<rscale>  0 0.15221116E+04</rscale>
<asrwt>0</asrwt>
<pdfrwt beam="1">  1        2 0.74785020E-01 0.15221116E+04</pdfrwt>
<pdfrwt beam="2">  1       -2 0.15806013E+00 0.15221116E+04</pdfrwt>
<totfact> 0.16013508E+01</totfact>
</mgrwt>
</event>
<event>
 8    1  0.7685004E-052  0.1527434E+04  0.7818608E-02  0.8866412E-01
         -2   -1    0    0    0  501 -0.00000000000E+00  0.00000000000E+00  0.20220120578E+03  0.20220120580E+03  0.25500000000E-02 0. -1.
          2   -1    0    0  501    0  0.00000000000E+00 -0.00000000000E+00 -0.28845687418E+04  0.28845687418E+04  0.25500000000E-02 0.  1.
     200001    2    1    2    0    0  0.23391800579E+03  0.70784912055E+02 -0.56414168683E+03  0.86812669432E+03  0.61291106806E+03 0.  0.
    5000001    2    3    3    0    0  0.87443762002E+02  0.32320980284E+03 -0.25689952771E+03  0.43249867189E+03  0.94587238452E+02 0.  0.
        -13    1    4    4    0    0  0.53332746679E+02  0.73762882789E+02 -0.95537429125E+02  0.13195740325E+03  0.10566000000E+00 0. -1.
     200003    1    4    4    0    0  0.34111015323E+02  0.24944692006E+03 -0.16136209859E+03  0.30054126863E+03  0.30000000000E+02 0. -1.
     200000    1    3    3    0    0  0.14647424379E+03 -0.25242489079E+03 -0.30724215912E+03  0.43562802243E+03  0.10100000000E+03 0. -1.
    -200001    1    1    2    0    0 -0.23391800579E+03 -0.70784912055E+02 -0.21182258492E+04  0.22186432533E+04  0.61300000000E+03 0.  1.
<mgrwt>
<rscale>  0 0.15274335E+04</rscale>
<asrwt>0</asrwt>
<pdfrwt beam="1">  1        2 0.41208122E+00 0.15274335E+04</pdfrwt>
<pdfrwt beam="2">  1       -2 0.28885888E-01 0.15274335E+04</pdfrwt>
<totfact> 0.29165319E+01</totfact>
</mgrwt>
</event>
<event>
 8    1  0.7685004E-052  0.1577514E+04  0.7818608E-02  0.8834483E-01
          2   -1    0    0  501    0  0.00000000000E+00  0.00000000000E+00  0.70790420634E+03  0.70790420635E+03  0.25500000000E-02 0.  1.
         -2   -1    0    0    0  501 -0.00000000000E+00 -0.00000000000E+00 -0.87884398596E+03  0.87884398597E+03  0.25500000000E-02 0. -1.
     200001    2    1    2    0    0  0.26123132371E+03 -0.41915124299E+03 -0.48693074246E+02  0.79010346224E+03  0.61478687086E+03 0.  0.
    5000001    2    3    3    0    0  0.90705274392E+02 -0.11330033197E+03 -0.30276634050E+03  0.34583086812E+03  0.82868090235E+02 0.  0.
        -13    1    4    4    0    0  0.28903738885E+02 -0.59047290622E+02 -0.20160504891E+03  0.21205333188E+03  0.10566000000E+00 0. -1.
     200003    1    4    4    0    0  0.61801535507E+02 -0.54253041347E+02 -0.10116129158E+03  0.13377753623E+03  0.30000000000E+02 0. -1.
     200000    1    3    3    0    0  0.17052604932E+03 -0.30585091102E+03  0.25407326625E+03  0.44427259412E+03  0.10100000000E+03 0.  1.
    -200001    1    1    2    0    0 -0.26123132371E+03  0.41915124299E+03 -0.12224670537E+03  0.79664473008E+03  0.61300000000E+03 0. -1.
<mgrwt>
<rscale>  0 0.15775137E+04</rscale>
<asrwt>0</asrwt>
<pdfrwt beam="1">  1        2 0.10112917E+00 0.15775137E+04</pdfrwt>
<pdfrwt beam="2">  1       -2 0.12554914E+00 0.15775137E+04</pdfrwt>
<totfact> 0.20261990E+01</totfact>
</mgrwt>
</event>
<event>
 8    1  0.7685004E-052  0.1312878E+04  0.7818608E-02  0.9019415E-01
          2   -1    0    0  501    0  0.00000000000E+00  0.00000000000E+00  0.20657683123E+04  0.20657683123E+04  0.25500000000E-02 0.  1.
         -2   -1    0    0    0  501 -0.00000000000E+00 -0.00000000000E+00 -0.20859658431E+03  0.20859658433E+03  0.25500000000E-02 0. -1.
     200001    2    1    2    0    0 -0.12089630621E+03 -0.19706530318E+03  0.99557718906E+03  0.11919764266E+04  0.61333776307E+03 0.  0.
    5000001    2    3    3    0    0 -0.27658630718E+03  0.29909406129E+02  0.76111021223E+03  0.81656643966E+03  0.10048600561E+03 0.  0.
        -13    1    4    4    0    0 -0.15973365161E+02 -0.12008944029E+02  0.16278170161E+02  0.25775048381E+02  0.10566000000E+00 0. -1.
     200003    1    4    4    0    0 -0.26061294202E+03  0.41918350158E+02  0.74483204207E+03  0.79079139128E+03  0.30000000000E+02 0. -1.
     200000    1    3    3    0    0  0.15569000097E+03 -0.22697470931E+03  0.23446697683E+03  0.37540998693E+03  0.10100000000E+03 0.  1.
    -200001    1    1    2    0    0  0.12089630621E+03  0.19706530318E+03  0.86159453896E+03  0.10823884701E+04  0.61300000000E+03 0. -1.
<mgrwt>
<rscale>  0 0.13128781E+04</rscale>
<asrwt>0</asrwt>
<pdfrwt beam="1">  1        2 0.29510975E+00 0.13128781E+04</pdfrwt>
<pdfrwt beam="2">  1       -2 0.29799513E-01 0.13128781E+04</pdfrwt>
<totfact> 0.75526120E+01</totfact>
</mgrwt>
</event>
<event>
 8    1  0.7685004E-052  0.1576162E+04  0.7818608E-02  0.8835328E-01
          2   -1    0    0  501    0  0.00000000000E+00  0.00000000000E+00  0.95243819976E+03  0.95243819977E+03  0.25500000000E-02 0.  1.
         -2   -1    0    0    0  501 -0.00000000000E+00 -0.00000000000E+00 -0.65208604816E+03  0.65208604817E+03  0.25500000000E-02 0. -1.
     200001    2    1    2    0    0  0.45554919149E+03  0.54350551353E+02  0.34232649196E+03  0.83770621636E+03  0.61162507268E+03 0.  0.
    5000001    2    3    3    0    0  0.13367271009E+03  0.29409552945E+03  0.63957177350E+02  0.33893512747E+03  0.80161875167E+02 0.  0.
        -13    1    4    4    0    0  0.26439136405E+02  0.16196039827E+02  0.18556029823E+02  0.36134153467E+02  0.10566000000E+00 0. -1.
     200003    1    4    4    0    0  0.10723357369E+03  0.27789948963E+03  0.45401147527E+02  0.30280097400E+03  0.30000000000E+02 0. -1.
     200000    1    3    3    0    0  0.32187648139E+03 -0.23974497810E+03  0.27836931461E+03  0.49877108889E+03  0.10100000000E+03 0.  1.
    -200001    1    1    2    0    0 -0.45554919149E+03 -0.54350551353E+02 -0.41974340356E+02  0.76681803157E+03  0.61300000000E+03 0. -1.
<mgrwt>
<rscale>  0 0.15761620E+04</rscale>
<asrwt>0</asrwt>
<pdfrwt beam="1">  1        2 0.13606260E+00 0.15761620E+04</pdfrwt>
<pdfrwt beam="2">  1       -2 0.93155150E-01 0.15761620E+04</pdfrwt>
<totfact> 0.28264175E+01</totfact>
</mgrwt>
</event>
<event>
 8    1  0.7685004E-052  0.1390669E+04  0.7818608E-02  0.8960601E-01
          2   -1    0    0  501    0  0.00000000000E+00  0.00000000000E+00  0.11779240047E+04  0.11779240047E+04  0.25500000000E-02 0.  1.
         -2   -1    0    0    0  501 -0.00000000000E+00 -0.00000000000E+00 -0.41045943849E+03  0.41045943850E+03  0.25500000000E-02 0. -1.
     200001    2    1    2    0    0  0.27148424326E+03 -0.18312751035E+03  0.36135723714E+03  0.78344149366E+03  0.61315751791E+03 0.  0.
    5000001    2    3    3    0    0  0.55403969593E+02  0.16379054374E+02 -0.15053895109E+03  0.18449887408E+03  0.89665966080E+02 0.  0.
        -13    1    4    4    0    0  0.27849065587E+02  0.46965564535E+02 -0.91187788966E+02  0.10628527051E+03  0.10566000000E+00 0. -1.
     200003    1    4    4    0    0  0.27554904006E+02 -0.30586510161E+02 -0.59351162120E+02  0.78213603571E+02  0.30000000000E+02 0. -1.
     200000    1    3    3    0    0  0.21608027367E+03 -0.19950656473E+03  0.51189618822E+03  0.59894261958E+03  0.10100000000E+03 0.  1.
    -200001    1    1    2    0    0 -0.27148424326E+03  0.18312751035E+03  0.40610732905E+03  0.80494194952E+03  0.61300000000E+03 0.  1.
<mgrwt>
<rscale>  0 0.13906689E+04</rscale>
<asrwt>0</asrwt>
<pdfrwt beam="1">  1        2 0.16827485E+00 0.13906689E+04</pdfrwt>
<pdfrwt beam="2">  1       -2 0.58637064E-01 0.13906689E+04</pdfrwt>
<totfact> 0.58328678E+01</totfact>
</mgrwt>
</event>
<event>
 8    1  0.7685004E-052  0.1295582E+04  0.7818608E-02  0.9033076E-01
         -2   -1    0    0    0  501 -0.00000000000E+00  0.00000000000E+00  0.19944180804E+03  0.19944180806E+03  0.25500000000E-02 0.  1.
          2   -1    0    0  501    0  0.00000000000E+00 -0.00000000000E+00 -0.21040397618E+04  0.21040397618E+04  0.25500000000E-02 0. -1.
     200001    2    1    2    0    0 -0.42671833612E+02 -0.55166313939E+02 -0.13036614350E+04  0.14422278864E+04  0.61288166216E+03 0.  0.
    5000001    2    3    3    0    0  0.39264250122E+02 -0.20202313420E+03 -0.12000082921E+04  0.12203598592E+04  0.83085839872E+02 0.  0.
        -13    1    4    4    0    0  0.98512691813E+01 -0.95386569166E+02 -0.35937020296E+03  0.37194434936E+03  0.10566000000E+00 0. -1.
     200003    1    4    4    0    0  0.29412980941E+02 -0.10663656503E+03 -0.84063808913E+03  0.84841550985E+03  0.30000000000E+02 0. -1.
     200000    1    3    3    0    0 -0.81936083734E+02  0.14685682026E+03 -0.10365314286E+03  0.22186802721E+03  0.10100000000E+03 0.  1.
    -200001    1    1    2    0    0  0.42671833612E+02  0.55166313939E+02 -0.60093651877E+03  0.86125368340E+03  0.61300000000E+03 0.  1.
<mgrwt>
<rscale>  0 0.12955825E+04</rscale>
<asrwt>0</asrwt>
<pdfrwt beam="1">  1        2 0.30057710E+00 0.12955825E+04</pdfrwt>
<pdfrwt beam="2">  1       -2 0.28491688E-01 0.12955825E+04</pdfrwt>
<totfact> 0.78553291E+01</totfact>
</mgrwt>
</event>
<event>
 8    1  0.7685004E-052  0.1530551E+04  0.7818608E-02  0.8864387E-01
         -2   -1    0    0    0  501 -0.00000000000E+00  0.00000000000E+00  0.17735984295E+03  0.17735984297E+03  0.25500000000E-02 0. -1.
          2   -1    0    0  501    0  0.00000000000E+00 -0.00000000000E+00 -0.33020258273E+04  0.33020258273E+04  0.25500000000E-02 0.  1.
     200001    2    1    2    0    0 -0.30155832435E+03 -0.87089444896E+02 -0.23212516895E+04  0.24211959314E+04  0.61274655243E+03 0.  0.
    5000001    2    3    3    0    0 -0.21844157726E+03  0.65486096746E+02 -0.21298914800E+04  0.21436938245E+04  0.83548457637E+02 0.  0.
        -13    1    4    4    0    0 -0.17319888580E+03  0.24838208879E+02 -0.15595421306E+04  0.15693267534E+04  0.10566000000E+00 0. -1.
     200003    1    4    4    0    0 -0.45242691456E+02  0.40647887867E+02 -0.57034934949E+03  0.57436707111E+03  0.30000000000E+02 0.  1.
     200000    1    3    3    0    0 -0.83116747092E+02 -0.15257554164E+03 -0.19136020948E+03  0.27750210688E+03  0.10100000000E+03 0. -1.
    -200001    1    1    2    0    0  0.30155832435E+03  0.87089444896E+02 -0.80341429482E+03  0.10581897389E+04  0.61300000000E+03 0. -1.
<mgrwt>
<rscale>  0 0.15305512E+04</rscale>
<asrwt>0</asrwt>
<pdfrwt beam="1">  1        2 0.47171794E+00 0.15305512E+04</pdfrwt>
<pdfrwt beam="2">  1       -2 0.25337122E-01 0.15305512E+04</pdfrwt>
<totfact> 0.21534921E+01</totfact>
</mgrwt>
</event>
<event>
 8    1  0.7685004E-052  0.1276182E+04  0.7818608E-02  0.9048669E-01
          2   -1    0    0  501    0  0.00000000000E+00  0.00000000000E+00  0.36770211767E+04  0.36770211767E+04  0.25500000000E-02 0.  1.
         -2   -1    0    0    0  501 -0.00000000000E+00 -0.00000000000E+00 -0.11073092280E+03  0.11073092283E+03  0.25500000000E-02 0. -1.
     200001    2    1    2    0    0  0.12682337138E+03  0.72278124737E+02  0.14627941043E+04  0.15918984281E+04  0.61079106007E+03 0.  0.
    5000001    2    3    3    0    0  0.15856889040E+02 -0.25430298347E+03  0.57056322825E+03  0.63000149154E+03  0.80237357751E+02 0.  0.
        -13    1    4    4    0    0 -0.12871940687E+02 -0.19080389749E+03  0.40533447582E+03  0.44818284506E+03  0.10566000000E+00 0. -1.
     200003    1    4    4    0    0  0.28728829728E+02 -0.63499085986E+02  0.16522875243E+03  0.18181864648E+03  0.30000000000E+02 0. -1.
     200000    1    3    3    0    0  0.11096648234E+03  0.32658110821E+03  0.89223087601E+03  0.96189693656E+03  0.10100000000E+03 0.  1.
    -200001    1    1    2    0    0 -0.12682337138E+03 -0.72278124737E+02  0.21034961496E+04  0.21958536714E+04  0.61300000000E+03 0.  1.
<mgrwt>
<rscale>  0 0.12761817E+04</rscale>
<asrwt>0</asrwt>
<pdfrwt beam="1">  1        2 0.52528876E+00 0.12761817E+04</pdfrwt>
<pdfrwt beam="2">  1       -2 0.15818703E-01 0.12761817E+04</pdfrwt>
<totfact> 0.29992728E+01</totfact>
</mgrwt>
</event>
<event>
 8    1  0.7685004E-052  0.2016268E+04  0.7818608E-02  0.8599052E-01
         -2   -1    0    0    0  501 -0.00000000000E+00  0.00000000000E+00  0.62111419473E+03  0.62111419473E+03  0.25500000000E-02 0. -1.
          2   -1    0    0  501    0  0.00000000000E+00 -0.00000000000E+00 -0.16363086342E+04  0.16363086342E+04  0.25500000000E-02 0.  1.
     200001    2    1    2    0    0  0.72038756855E+03  0.20932750596E+03 -0.19854988441E+03  0.99035788072E+03  0.61531327114E+03 0.  0.
    5000001    2    3    3    0    0  0.77717735504E+03  0.16377618454E+03 -0.54456309117E+02  0.79992689276E+03  0.78040145754E+02 0.  0.
        -13    1    4    4    0    0  0.12184759272E+02 -0.96701750366E-01  0.79040637568E+01  0.14524568760E+02  0.10566000000E+00 0. -1.
     200003    1    4    4    0    0  0.76499259577E+03  0.16387288629E+03 -0.62360372874E+02  0.78540232400E+03  0.30000000000E+02 0. -1.
     200000    1    3    3    0    0 -0.56789786494E+02  0.45551321428E+02 -0.14409357530E+03  0.19043098796E+03  0.10100000000E+03 0.  1.
    -200001    1    1    2    0    0 -0.72038756855E+03 -0.20932750596E+03 -0.81664455503E+03  0.12670649482E+04  0.61300000000E+03 0. -1.
<mgrwt>
<rscale>  0 0.20162684E+04</rscale>
<asrwt>0</asrwt>
<pdfrwt beam="1">  1        2 0.23375837E+00 0.20162684E+04</pdfrwt>
<pdfrwt beam="2">  1       -2 0.88730600E-01 0.20162684E+04</pdfrwt>
<totfact> 0.12599236E+01</totfact>
</mgrwt>
</event>
<event>
 8    1  0.7685004E-052  0.1346174E+04  0.7818608E-02  0.8993729E-01
         -2   -1    0    0    0  501 -0.00000000000E+00  0.00000000000E+00  0.74192084825E+03  0.74192084826E+03  0.25500000000E-02 0. -1.
          2   -1    0    0  501    0  0.00000000000E+00 -0.00000000000E+00 -0.61063966923E+03  0.61063966924E+03  0.25500000000E-02 0.  1.
     200001    2    1    2    0    0  0.16443204900E+02 -0.27671075962E+03  0.44157518848E+02  0.67418101040E+03  0.61296894280E+03 0.  0.
    5000001    2    3    3    0    0  0.12721527765E+03 -0.67460807489E+02  0.28091718625E+03  0.32444949241E+03  0.74955454673E+02 0.  0.
        -13    1    4    4    0    0  0.29220261400E+02 -0.33755955893E+02  0.14018763654E+03  0.14712536436E+03  0.10566000000E+00 0. -1.
     200003    1    4    4    0    0  0.97995016247E+02 -0.33704851596E+02  0.14072954970E+03  0.17732412805E+03  0.30000000000E+02 0. -1.
     200000    1    3    3    0    0 -0.11077207275E+03 -0.20924995213E+03 -0.23675966740E+03  0.34973151799E+03  0.10100000000E+03 0.  1.
    -200001    1    1    2    0    0 -0.16443204900E+02  0.27671075962E+03  0.87123660176E+02  0.67837950709E+03  0.61300000000E+03 0.  1.
<mgrwt>
<rscale>  0 0.13461743E+04</rscale>
<asrwt>0</asrwt>
<pdfrwt beam="1">  1        2 0.87234238E-01 0.13461743E+04</pdfrwt>
<pdfrwt beam="2">  1       -2 0.10598869E+00 0.13461743E+04</pdfrwt>
<totfact> 0.37372405E+01</totfact>
</mgrwt>
</event>
<event>
 8    1  0.7685004E-052  0.1266359E+04  0.7818608E-02  0.9056677E-01
          2   -1    0    0  501    0  0.00000000000E+00  0.00000000000E+00  0.16538458470E+04  0.16538458470E+04  0.25500000000E-02 0.  1.
         -2   -1    0    0    0  501 -0.00000000000E+00 -0.00000000000E+00 -0.24241438623E+03  0.24241438624E+03  0.25500000000E-02 0. -1.
     200001    2    1    2    0    0 -0.35841709677E+02  0.15208794839E+03  0.76467772263E+03  0.99156427880E+03  0.61159817470E+03 0.  0.
    5000001    2    3    3    0    0  0.17252974717E+03  0.14953004060E+03  0.24845203422E+03  0.42577706765E+03  0.25967662838E+03 0.  0.
        -13    1    4    4    0    0  0.11403894908E+03  0.17753684667E+03  0.52839653362E+02  0.21752299640E+03  0.10566000000E+00 0. -1.
     200003    1    4    4    0    0  0.58490798087E+02 -0.28006806061E+02  0.19561238086E+03  0.20825407125E+03  0.30000000000E+02 0. -1.
     200000    1    3    3    0    0 -0.20837145685E+03  0.25579077825E+01  0.51622568841E+03  0.56578721115E+03  0.10100000000E+03 0. -1.
    -200001    1    1    2    0    0  0.35841709677E+02 -0.15208794839E+03  0.64675373815E+03  0.90469595446E+03  0.61300000000E+03 0. -1.
<mgrwt>
<rscale>  0 0.12663586E+04</rscale>
<asrwt>0</asrwt>
<pdfrwt beam="1">  1        2 0.23626369E+00 0.12663586E+04</pdfrwt>
<pdfrwt beam="2">  1       -2 0.34630626E-01 0.12663586E+04</pdfrwt>
<totfact> 0.93097787E+01</totfact>
</mgrwt>
</event>
<event>
 8    1  0.7685004E-052  0.1655099E+04  0.7818608E-02  0.8787395E-01
          2   -1    0    0  501    0  0.00000000000E+00  0.00000000000E+00  0.64567489145E+03  0.64567489145E+03  0.25500000000E-02 0.  1.
         -2   -1    0    0    0  501 -0.00000000000E+00 -0.00000000000E+00 -0.10606552328E+04  0.10606552328E+04  0.25500000000E-02 0. -1.
     200001    2    1    2    0    0 -0.61693657522E+02 -0.34145438767E+03  0.24020970509E+03  0.74433209765E+03  0.61313323424E+03 0.  0.
    5000001    2    3    3    0    0  0.21164649191E+03 -0.22929711779E+03  0.27523478093E+03  0.43013176917E+03  0.10903095180E+03 0.  0.
        -13    1    4    4    0    0  0.13953074377E+03 -0.11765199495E+03  0.21252579348E+03  0.28013933039E+03  0.10566000000E+00 0. -1.
     200003    1    4    4    0    0  0.72115748142E+02 -0.11164512284E+03  0.62708987448E+02  0.14999243878E+03  0.30000000000E+02 0. -1.
     200000    1    3    3    0    0 -0.27334014944E+03 -0.11215726988E+03 -0.35025075835E+02  0.31420032848E+03  0.10100000000E+03 0. -1.
    -200001    1    1    2    0    0  0.61693657522E+02  0.34145438767E+03 -0.65519004646E+03  0.96199802662E+03  0.61300000000E+03 0.  1.
<mgrwt>
<rscale>  0 0.16550993E+04</rscale>
<asrwt>0</asrwt>
<pdfrwt beam="1">  1        2 0.92239271E-01 0.16550993E+04</pdfrwt>
<pdfrwt beam="2">  1       -2 0.15152217E+00 0.16550993E+04</pdfrwt>
<totfact> 0.13866365E+01</totfact>
</mgrwt>
</event>
<event>
 8    1  0.7685004E-052  0.2120270E+04  0.7818608E-02  0.8552366E-01
         -2   -1    0    0    0  501 -0.00000000000E+00  0.00000000000E+00  0.26930801998E+03  0.26930801999E+03  0.25500000000E-02 0. -1.
          2   -1    0    0  501    0  0.00000000000E+00 -0.00000000000E+00 -0.41732383429E+04  0.41732383429E+04  0.25500000000E-02 0.  1.
     200001    2    1    2    0    0 -0.65959300508E+03  0.55355142144E+03 -0.21206653770E+04  0.23695569814E+04  0.61326710189E+03 0.  0.
    5000001    2    3    3    0    0 -0.17192453700E+03  0.44907795345E+03 -0.64928490179E+03  0.81267010588E+03  0.87365683196E+02 0.  0.
        -13    1    4    4    0    0 -0.35960669664E+02  0.33793725503E+02 -0.48683599727E+02  0.69320196858E+02  0.10566000000E+00 0. -1.
     200003    1    4    4    0    0 -0.13596386734E+03  0.41528422794E+03 -0.60060130207E+03  0.74334990902E+03  0.30000000000E+02 0. -1.
     200000    1    3    3    0    0 -0.48766846808E+03  0.10447346799E+03 -0.14713804752E+04  0.15568868755E+04  0.10100000000E+03 0. -1.
    -200001    1    1    2    0    0  0.65959300508E+03 -0.55355142144E+03 -0.17832649459E+04  0.20729893815E+04  0.61300000000E+03 0. -1.
<mgrwt>
<rscale>  0 0.21202703E+04</rscale>
<asrwt>0</asrwt>
<pdfrwt beam="1">  1        2 0.59617687E+00 0.21202703E+04</pdfrwt>
<pdfrwt beam="2">  1       -2 0.38472577E-01 0.21202703E+04</pdfrwt>
<totfact> 0.25498219E+00</totfact>
</mgrwt>
</event>
<event>
 8    1  0.7685004E-052  0.1729737E+04  0.7818608E-02  0.8744584E-01
         -2   -1    0    0    0  501 -0.00000000000E+00  0.00000000000E+00  0.41650067263E+03  0.41650067264E+03  0.25500000000E-02 0. -1.
          2   -1    0    0  501    0  0.00000000000E+00 -0.00000000000E+00 -0.17959092968E+04  0.17959092968E+04  0.25500000000E-02 0.  1.
     200001    2    1    2    0    0  0.43804329973E+03 -0.19709291481E+03 -0.20804800342E+03  0.80578910604E+03  0.61260473568E+03 0.  0.
    5000001    2    3    3    0    0  0.12599108326E+03 -0.31402242830E+03 -0.28839573680E+03  0.44842954595E+03  0.58592816458E+02 0.  0.
        -13    1    4    4    0    0  0.44849806810E+02 -0.14655180890E+03 -0.10773785439E+03  0.18734031678E+03  0.10566000000E+00 0. -1.
     200003    1    4    4    0    0  0.81141276450E+02 -0.16747061940E+03 -0.18065788241E+03  0.26108922916E+03  0.30000000000E+02 0. -1.
     200000    1    3    3    0    0  0.31205221647E+03  0.11692951349E+03  0.80347733378E+02  0.35735956009E+03  0.10100000000E+03 0. -1.
    -200001    1    1    2    0    0 -0.43804329973E+03  0.19709291481E+03 -0.11713606207E+04  0.14066208634E+04  0.61300000000E+03 0.  1.
<mgrwt>
<rscale>  0 0.17297369E+04</rscale>
<asrwt>0</asrwt>
<pdfrwt beam="1">  1        2 0.25655847E+00 0.17297369E+04</pdfrwt>
<pdfrwt beam="2">  1       -2 0.59500097E-01 0.17297369E+04</pdfrwt>
<totfact> 0.25657606E+01</totfact>
</mgrwt>
</event>
<event>
 8    1  0.7685004E-052  0.1728722E+04  0.7818608E-02  0.8745151E-01
          2   -1    0    0  501    0  0.00000000000E+00  0.00000000000E+00  0.25888554041E+04  0.25888554041E+04  0.25500000000E-02 0.  1.
         -2   -1    0    0    0  501 -0.00000000000E+00 -0.00000000000E+00 -0.28859080417E+03  0.28859080418E+03  0.25500000000E-02 0. -1.
     200001    2    1    2    0    0  0.49597859675E+03  0.22436068498E+03  0.69383854326E+03  0.10739201727E+04  0.61282960751E+03 0.  0.
    5000001    2    3    3    0    0  0.12126577383E+02  0.26870766932E+03  0.11264838245E+03  0.30968039706E+03  0.10421815976E+03 0.  0.
        -13    1    4    4    0    0  0.24891813046E+02  0.18018250992E+03  0.11520457240E+03  0.21530778877E+03  0.10566000000E+00 0. -1.
     200003    1    4    4    0    0 -0.12765235663E+02  0.88525159397E+02 -0.25561899541E+01  0.94372608286E+02  0.30000000000E+02 0.  1.
     200000    1    3    3    0    0  0.48385201936E+03 -0.44346984341E+02  0.58119016081E+03  0.76423977565E+03  0.10100000000E+03 0.  1.
    -200001    1    1    2    0    0 -0.49597859675E+03 -0.22436068498E+03  0.16064260567E+04  0.18035260355E+04  0.61300000000E+03 0.  1.
<mgrwt>
<rscale>  0 0.17287219E+04</rscale>
<asrwt>0</asrwt>
<pdfrwt beam="1">  1        2 0.36983648E+00 0.17287219E+04</pdfrwt>
<pdfrwt beam="2">  1       -2 0.41227258E-01 0.17287219E+04</pdfrwt>
<totfact> 0.20995497E+01</totfact>
</mgrwt>
</event>
<event>
 8    1  0.7685004E-052  0.1554587E+04  0.7818608E-02  0.8848943E-01
         -2   -1    0    0    0  501 -0.00000000000E+00  0.00000000000E+00  0.27363569718E+03  0.27363569719E+03  0.25500000000E-02 0. -1.
          2   -1    0    0  501    0  0.00000000000E+00 -0.00000000000E+00 -0.22079904756E+04  0.22079904756E+04  0.25500000000E-02 0.  1.
     200001    2    1    2    0    0  0.44006849708E+03 -0.17068360642E+03 -0.10950766062E+04  0.13401578088E+04  0.61158564683E+03 0.  0.
    5000001    2    3    3    0    0 -0.34238599966E+02  0.15758520855E+02 -0.64723982605E+03  0.65423749945E+03  0.87673830487E+02 0.  0.
        -13    1    4    4    0    0 -0.12116814098E+01  0.32859929033E+02 -0.10825804558E+03  0.11314176375E+03  0.10566000000E+00 0. -1.
     200003    1    4    4    0    0 -0.33026918556E+02 -0.17101408178E+02 -0.53898178047E+03  0.54109573570E+03  0.30000000000E+02 0. -1.
     200000    1    3    3    0    0  0.47430709705E+03 -0.18644212727E+03 -0.44783678019E+03  0.68592030939E+03  0.10100000000E+03 0. -1.
    -200001    1    1    2    0    0 -0.44006849708E+03  0.17068360642E+03 -0.83927817216E+03  0.11414683639E+04  0.61300000000E+03 0. -1.
<mgrwt>
<rscale>  0 0.15545868E+04</rscale>
<asrwt>0</asrwt>
<pdfrwt beam="1">  1        2 0.31542720E+00 0.15545868E+04</pdfrwt>
<pdfrwt beam="2">  1       -2 0.39090815E-01 0.15545868E+04</pdfrwt>
<totfact> 0.37365962E+01</totfact>
</mgrwt>
</event>
<event>
 8    1  0.7685004E-052  0.1710139E+04  0.7818608E-02  0.8755603E-01
          2   -1    0    0  501    0  0.00000000000E+00  0.00000000000E+00  0.44032167064E+03  0.44032167065E+03  0.25500000000E-02 0.  1.
         -2   -1    0    0    0  501 -0.00000000000E+00 -0.00000000000E+00 -0.16604760954E+04  0.16604760954E+04  0.25500000000E-02 0. -1.
     200001    2    1    2    0    0 -0.36103351466E+03  0.44281244264E+03 -0.81129956603E+03  0.11684033465E+04  0.61687222032E+03 0.  0.
    5000001    2    3    3    0    0  0.13873277493E+03  0.23574428855E+03 -0.31895065578E+03  0.42999152774E+03  0.91329298080E+02 0.  0.
        -13    1    4    4    0    0  0.73923738889E+02  0.18921234326E+03 -0.22546523213E+03  0.30348082654E+03  0.10566000000E+00 0. -1.
     200003    1    4    4    0    0  0.64809036036E+02  0.46531945286E+02 -0.93485423643E+02  0.12651070120E+03  0.30000000000E+02 0. -1.
     200000    1    3    3    0    0 -0.49976628959E+03  0.20706815409E+03 -0.49234891026E+03  0.73841181876E+03  0.10100000000E+03 0. -1.
    -200001    1    1    2    0    0  0.36103351466E+03 -0.44281244264E+03 -0.40885485868E+03  0.93239441951E+03  0.61300000000E+03 0.  1.
<mgrwt>
<rscale>  0 0.17101387E+04</rscale>
<asrwt>0</asrwt>
<pdfrwt beam="1">  1        2 0.62903096E-01 0.17101387E+04</pdfrwt>
<pdfrwt beam="2">  1       -2 0.23721087E+00 0.17101387E+04</pdfrwt>
<totfact> 0.57012589E+00</totfact>
</mgrwt>
</event>
<event>
 8    1  0.7685004E-052  0.1786356E+04  0.7818608E-02  0.8713589E-01
         -2   -1    0    0    0  501 -0.00000000000E+00  0.00000000000E+00  0.66723792821E+03  0.66723792822E+03  0.25500000000E-02 0. -1.
          2   -1    0    0  501    0  0.00000000000E+00 -0.00000000000E+00 -0.11956263015E+04  0.11956263015E+04  0.25500000000E-02 0.  1.
     200001    2    1    2    0    0  0.31237296369E+02 -0.32221501229E+03 -0.85207654732E+03  0.10977882095E+04  0.61180571060E+03 0.  0.
    5000001    2    3    3    0    0 -0.49663164994E+02 -0.70927399089E+02 -0.20712044592E+03  0.39361513278E+03  0.32332161656E+03 0.  0.
        -13    1    4    4    0    0 -0.19948909371E+02  0.10334517835E+03  0.16970453781E+02  0.10661234609E+03  0.10566000000E+00 0. -1.
     200003    1    4    4    0    0 -0.29714255623E+02 -0.17427257744E+03 -0.22409089970E+03  0.28700278668E+03  0.30000000000E+02 0. -1.
     200000    1    3    3    0    0  0.80900461363E+02 -0.25128761320E+03 -0.64495610141E+03  0.70417307669E+03  0.10100000000E+03 0.  1.
    -200001    1    1    2    0    0 -0.31237296369E+02  0.32221501229E+03  0.32368817400E+03  0.76507602029E+03  0.61300000000E+03 0. -1.
<mgrwt>
<rscale>  0 0.17863563E+04</rscale>
<asrwt>0</asrwt>
<pdfrwt beam="1">  1        2 0.17080376E+00 0.17863563E+04</pdfrwt>
<pdfrwt beam="2">  1       -2 0.95319704E-01 0.17863563E+04</pdfrwt>
<totfact> 0.18845840E+01</totfact>
</mgrwt>
</event>
<event>
 8    1  0.7685004E-052  0.1347587E+04  0.7818608E-02  0.8992656E-01
         -2   -1    0    0    0  501 -0.00000000000E+00  0.00000000000E+00  0.11728387164E+03  0.11728387167E+03  0.25500000000E-02 0. -1.
          2   -1    0    0  501    0  0.00000000000E+00 -0.00000000000E+00 -0.38709323697E+04  0.38709323697E+04  0.25500000000E-02 0.  1.
     200001    2    1    2    0    0 -0.23934244543E+03 -0.13821967397E+03 -0.17576527953E+04  0.18819975134E+04  0.61333661828E+03 0.  0.
    5000001    2    3    3    0    0 -0.31894462975E+03  0.10366171114E+03 -0.61638562076E+03  0.70831319648E+03  0.96462032027E+02 0.  0.
        -13    1    4    4    0    0 -0.19734067358E+03  0.10236175891E+03 -0.42399425771E+03  0.47874044416E+03  0.10566000000E+00 0. -1.
     200003    1    4    4    0    0 -0.12160395617E+03  0.12999522259E+01 -0.19239136305E+03  0.22957275232E+03  0.30000000000E+02 0. -1.
     200000    1    3    3    0    0  0.79602184319E+02 -0.24188138511E+03 -0.11412671745E+04  0.11736843169E+04  0.10100000000E+03 0.  1.
    -200001    1    1    2    0    0  0.23934244543E+03  0.13821967397E+03 -0.19959957028E+04  0.21062187280E+04  0.61300000000E+03 0.  1.
<mgrwt>
<rscale>  0 0.13475874E+04</rscale>
<asrwt>0</asrwt>
<pdfrwt beam="1">  1        2 0.55299026E+00 0.13475874E+04</pdfrwt>
<pdfrwt beam="2">  1       -2 0.16754841E-01 0.13475874E+04</pdfrwt>
<totfact> 0.20243206E+01</totfact>
</mgrwt>
</event>
<event>
 8    1  0.7685004E-052  0.1823927E+04  0.7818608E-02  0.8693678E-01
         -2   -1    0    0    0  501 -0.00000000000E+00  0.00000000000E+00  0.83463841536E+03  0.83463841537E+03  0.25500000000E-02 0. -1.
          2   -1    0    0  501    0  0.00000000000E+00 -0.00000000000E+00 -0.99645246049E+03  0.99645246049E+03  0.25500000000E-02 0.  1.
     200001    2    1    2    0    0  0.12175859053E+03  0.54100680025E+03 -0.46814254141E+03  0.94954696889E+03  0.61234671124E+03 0.  0.
    5000001    2    3    3    0    0 -0.14588971045E+03  0.10957106324E+03 -0.36651149831E+03  0.42200334310E+03  0.10230600023E+03 0.  0.
        -13    1    4    4    0    0 -0.48263117350E+02  0.46196624622E+02 -0.23285551482E+03  0.24225019828E+03  0.10566000000E+00 0. -1.
     200003    1    4    4    0    0 -0.97626593098E+02  0.63374438613E+02 -0.13365598349E+03  0.17975314482E+03  0.30000000000E+02 0. -1.
     200000    1    3    3    0    0  0.26764830097E+03  0.43143573701E+03 -0.10163104311E+03  0.52754362579E+03  0.10100000000E+03 0. -1.
    -200001    1    1    2    0    0 -0.12175859053E+03 -0.54100680025E+03  0.30632849629E+03  0.88154390697E+03  0.61300000000E+03 0. -1.
<mgrwt>
<rscale>  0 0.18239271E+04</rscale>
<asrwt>0</asrwt>
<pdfrwt beam="1">  1        2 0.14235035E+00 0.18239271E+04</pdfrwt>
<pdfrwt beam="2">  1       -2 0.11923406E+00 0.18239271E+04</pdfrwt>
<totfact> 0.14397774E+01</totfact>
</mgrwt>
</event>
<event>
 8    1  0.7685004E-052  0.1509896E+04  0.7818608E-02  0.8877899E-01
         -2   -1    0    0    0  501 -0.00000000000E+00  0.00000000000E+00  0.11628972694E+04  0.11628972694E+04  0.25500000000E-02 0. -1.
          2   -1    0    0  501    0  0.00000000000E+00 -0.00000000000E+00 -0.49010900983E+03  0.49010900984E+03  0.25500000000E-02 0.  1.
     200001    2    1    2    0    0  0.33162911040E+03  0.28866605992E+03  0.31421155686E+03  0.81775050243E+03  0.61374344864E+03 0.  0.
    5000001    2    3    3    0    0  0.10877522542E+03 -0.39763021466E+02 -0.10854802939E+03  0.22914521591E+03  0.16526254188E+03 0.  0.
        -13    1    4    4    0    0  0.47294578113E+02 -0.54632227205E+02 -0.13595476009E+03  0.15396481846E+03  0.10566000000E+00 0. -1.
     200003    1    4    4    0    0  0.61480647302E+02  0.14869205739E+02  0.27406730703E+02  0.75180397444E+02  0.30000000000E+02 0. -1.
     200000    1    3    3    0    0  0.22285388498E+03  0.32842908138E+03  0.42275958626E+03  0.58860528652E+03  0.10100000000E+03 0. -1.
    -200001    1    1    2    0    0 -0.33162911040E+03 -0.28866605992E+03  0.35857670275E+03  0.83525577685E+03  0.61300000000E+03 0. -1.
<mgrwt>
<rscale>  0 0.15098959E+04</rscale>
<asrwt>0</asrwt>
<pdfrwt beam="1">  1        2 0.70015573E-01 0.15098959E+04</pdfrwt>
<pdfrwt beam="2">  1       -2 0.16612818E+00 0.15098959E+04</pdfrwt>
<totfact> 0.15086267E+01</totfact>
</mgrwt>
</event>
<event>
 8    1  0.7685004E-052  0.1966156E+04  0.7818608E-02  0.8622609E-01
         -2   -1    0    0    0  501 -0.00000000000E+00  0.00000000000E+00  0.37817283671E+03  0.37817283672E+03  0.25500000000E-02 0. -1.
          2   -1    0    0  501    0  0.00000000000E+00 -0.00000000000E+00 -0.25555574796E+04  0.25555574796E+04  0.25500000000E-02 0.  1.
     200001    2    1    2    0    0 -0.22124611567E+03  0.33031369244E+03 -0.10694645284E+03  0.73815743484E+03  0.61268415658E+03 0.  0.
    5000001    2    3    3    0    0 -0.29983888882E+03  0.22894183605E+03  0.16549263350E+03  0.42054582764E+03  0.84576934585E+02 0.  0.
        -13    1    4    4    0    0 -0.13531290770E+03  0.14506413239E+03  0.10131171276E+03  0.22274932054E+03  0.10566000000E+00 0. -1.
     200003    1    4    4    0    0 -0.16452598112E+03  0.83877703658E+02  0.64180920749E+02  0.19779650710E+03  0.30000000000E+02 0. -1.
     200000    1    3    3    0    0  0.78592773147E+02  0.10137185639E+03 -0.27243908635E+03  0.31761160720E+03  0.10100000000E+03 0.  1.
    -200001    1    1    2    0    0  0.22124611567E+03 -0.33031369244E+03 -0.20704381900E+04  0.21955728815E+04  0.61300000000E+03 0.  1.
<mgrwt>
<rscale>  0 0.19661561E+04</rscale>
<asrwt>0</asrwt>
<pdfrwt beam="1">  1        2 0.36507963E+00 0.19661561E+04</pdfrwt>
<pdfrwt beam="2">  1       -2 0.54024692E-01 0.19661561E+04</pdfrwt>
<totfact> 0.12428566E+01</totfact>
</mgrwt>
</event>
<event>
 8    1  0.7685004E-052  0.1280175E+04  0.7818608E-02  0.9045436E-01
          2   -1    0    0  501    0  0.00000000000E+00  0.00000000000E+00  0.15776619661E+04  0.15776619661E+04  0.25500000000E-02 0.  1.
         -2   -1    0    0    0  501 -0.00000000000E+00 -0.00000000000E+00 -0.25969559382E+03  0.25969559384E+03  0.25500000000E-02 0. -1.
     200001    2    1    2    0    0  0.42123720764E+01 -0.18265935833E+03  0.62112451666E+03  0.89145071622E+03  0.61278587532E+03 0.  0.
    5000001    2    3    3    0    0 -0.26858640965E+03 -0.21035843694E+01  0.38289115520E+03  0.47434677554E+03  0.79095778763E+02 0.  0.
        -13    1    4    4    0    0 -0.16684598620E+03  0.26560468482E+02  0.21044189840E+03  0.26986819998E+03  0.10566000000E+00 0. -1.
     200003    1    4    4    0    0 -0.10174042345E+03 -0.28664052851E+02  0.17244925680E+03  0.20447857555E+03  0.30000000000E+02 0. -1.
     200000    1    3    3    0    0  0.27279878172E+03 -0.18055577396E+03  0.23823336146E+03  0.41710394068E+03  0.10100000000E+03 0. -1.
    -200001    1    1    2    0    0 -0.42123720764E+01  0.18265935833E+03  0.69684185562E+03  0.94590684372E+03  0.61300000000E+03 0. -1.
<mgrwt>
<rscale>  0 0.12801748E+04</rscale>
<asrwt>0</asrwt>
<pdfrwt beam="1">  1        2 0.22538027E+00 0.12801748E+04</pdfrwt>
<pdfrwt beam="2">  1       -2 0.37099372E-01 0.12801748E+04</pdfrwt>
<totfact> 0.89343570E+01</totfact>
</mgrwt>
</event>
<event>
 8    1  0.7685004E-052  0.1379997E+04  0.7818608E-02  0.8968426E-01
         -2   -1    0    0    0  501 -0.00000000000E+00  0.00000000000E+00  0.36585224537E+03  0.36585224538E+03  0.25500000000E-02 0. -1.
          2   -1    0    0  501    0  0.00000000000E+00 -0.00000000000E+00 -0.13013399244E+04  0.13013399244E+04  0.25500000000E-02 0.  1.
     200001    2    1    2    0    0  0.22464280101E+02  0.20005078295E+03 -0.17102999896E+03  0.66684747707E+03  0.61229840559E+03 0.  0.
    5000001    2    3    3    0    0  0.28030085084E+03  0.85041699648E+02  0.74560757519E+01  0.31789896322E+03  0.12330247400E+03 0.  0.
        -13    1    4    4    0    0 -0.63627246330E+01 -0.45895718221E+01  0.13927713756E+02  0.15985643833E+02  0.10566000000E+00 0. -1.
     200003    1    4    4    0    0  0.28666357547E+03  0.89631271471E+02 -0.64716380037E+01  0.30191331939E+03  0.30000000000E+02 0. -1.
     200000    1    3    3    0    0 -0.25783657074E+03  0.11500908330E+03 -0.17848607471E+03  0.34894851385E+03  0.10100000000E+03 0.  1.
    -200001    1    1    2    0    0 -0.22464280101E+02 -0.20005078295E+03 -0.76445768008E+03  0.10003446927E+04  0.61300000000E+03 0.  1.
<mgrwt>
<rscale>  0 0.13799973E+04</rscale>
<asrwt>0</asrwt>
<pdfrwt beam="1">  1        2 0.18590570E+00 0.13799973E+04</pdfrwt>
<pdfrwt beam="2">  1       -2 0.52264607E-01 0.13799973E+04</pdfrwt>
<totfact> 0.63171658E+01</totfact>
</mgrwt>
</event>
<event>
 8    1  0.7685004E-052  0.1360721E+04  0.7818608E-02  0.8982752E-01
         -2   -1    0    0    0  501 -0.00000000000E+00  0.00000000000E+00  0.30664167770E+03  0.30664167771E+03  0.25500000000E-02 0. -1.
          2   -1    0    0  501    0  0.00000000000E+00 -0.00000000000E+00 -0.15095477830E+04  0.15095477830E+04  0.25500000000E-02 0.  1.
     200001    2    1    2    0    0 -0.13372891420E+03 -0.19877586767E+03 -0.83502900486E+03  0.10622015105E+04  0.61123100535E+03 0.  0.
    5000001    2    3    3    0    0 -0.62642594511E+02 -0.29170653236E+03 -0.84572679977E+03  0.90726663353E+03  0.13733946552E+03 0.  0.
        -13    1    4    4    0    0 -0.24826713570E+02 -0.93976571303E+02 -0.12496101698E+03  0.15831370310E+03  0.10566000000E+00 0. -1.
     200003    1    4    4    0    0 -0.37815880941E+02 -0.19772996106E+03 -0.72076578279E+03  0.74895293043E+03  0.30000000000E+02 0. -1.
     200000    1    3    3    0    0 -0.71086319684E+02  0.92930664691E+02  0.10697794916E+02  0.15493487697E+03  0.10100000000E+03 0. -1.
    -200001    1    1    2    0    0  0.13372891420E+03  0.19877586767E+03 -0.36787710049E+03  0.75398795025E+03  0.61300000000E+03 0. -1.
<mgrwt>
<rscale>  0 0.13607208E+04</rscale>
<asrwt>0</asrwt>
<pdfrwt beam="1">  1        2 0.21564968E+00 0.13607208E+04</pdfrwt>
<pdfrwt beam="2">  1       -2 0.43805955E-01 0.13607208E+04</pdfrwt>
<totfact> 0.69714176E+01</totfact>
</mgrwt>
</event>
<event>
 8    1  0.7685004E-052  0.1283500E+04  0.7818608E-02  0.9042753E-01
         -2   -1    0    0    0  501 -0.00000000000E+00  0.00000000000E+00  0.11275964569E+03  0.11275964572E+03  0.25500000000E-02 0. -1.
          2   -1    0    0  501    0  0.00000000000E+00 -0.00000000000E+00 -0.36523984847E+04  0.36523984847E+04  0.25500000000E-02 0.  1.
     200001    2    1    2    0    0 -0.40059504173E+02 -0.15793875335E+03 -0.20694416354E+04  0.21639716231E+04  0.61125697510E+03 0.  0.
    5000001    2    3    3    0    0 -0.15246637383E+03  0.16763041145E+03 -0.59207271882E+03  0.64362610281E+03  0.11116881692E+03 0.  0.
        -13    1    4    4    0    0 -0.18062168778E+02  0.46960606214E+02 -0.25613363579E+03  0.26102871685E+03  0.10566000000E+00 0. -1.
     200003    1    4    4    0    0 -0.13440420505E+03  0.12066980523E+03 -0.33593908303E+03  0.38259738595E+03  0.30000000000E+02 0. -1.
     200000    1    3    3    0    0  0.11240686966E+03 -0.32556916480E+03 -0.14773689166E+04  0.15203455203E+04  0.10100000000E+03 0. -1.
    -200001    1    1    2    0    0  0.40059504173E+02  0.15793875335E+03 -0.14701972036E+04  0.16011865073E+04  0.61300000000E+03 0. -1.
<mgrwt>
<rscale>  0 0.12835002E+04</rscale>
<asrwt>0</asrwt>
<pdfrwt beam="1">  1        2 0.52177114E+00 0.12835002E+04</pdfrwt>
<pdfrwt beam="2">  1       -2 0.16108523E-01 0.12835002E+04</pdfrwt>
<totfact> 0.30104072E+01</totfact>
</mgrwt>
</event>
<event>
 8    1  0.7685004E-052  0.1468592E+04  0.7818608E-02  0.8905612E-01
         -2   -1    0    0    0  501 -0.00000000000E+00  0.00000000000E+00  0.20790854452E+03  0.20790854454E+03  0.25500000000E-02 0. -1.
          2   -1    0    0  501    0  0.00000000000E+00 -0.00000000000E+00 -0.25934029126E+04  0.25934029126E+04  0.25500000000E-02 0.  1.
     200001    2    1    2    0    0  0.19396903621E+03  0.25183809406E+02 -0.51742079593E+03  0.82552652900E+03  0.61278997933E+03 0.  0.
    5000001    2    3    3    0    0  0.18179651107E+03 -0.13368299791E+03 -0.55333767241E+03  0.63349045205E+03  0.21025331810E+03 0.  0.
        -13    1    4    4    0    0  0.18865476084E+03 -0.74682290377E+02 -0.52178229968E+03  0.55984358772E+03  0.10566000000E+00 0. -1.
     200003    1    4    4    0    0 -0.68582497690E+01 -0.59000707530E+02 -0.31555372727E+02  0.73646864338E+02  0.30000000000E+02 0. -1.
     200000    1    3    3    0    0  0.12172525145E+02  0.15886680731E+03  0.35916876479E+02  0.19203607695E+03  0.10100000000E+03 0.  1.
    -200001    1    1    2    0    0 -0.19396903621E+03 -0.25183809406E+02 -0.18680735721E+04  0.19757849281E+04  0.61300000000E+03 0.  1.
<mgrwt>
<rscale>  0 0.14685920E+04</rscale>
<asrwt>0</asrwt>
<pdfrwt beam="1">  1        2 0.37048611E+00 0.14685920E+04</pdfrwt>
<pdfrwt beam="2">  1       -2 0.29701222E-01 0.14685920E+04</pdfrwt>
<totfact> 0.39934770E+01</totfact>
</mgrwt>
</event>
<event>
 8    1  0.7685004E-052  0.1904846E+04  0.7818608E-02  0.8652448E-01
          2   -1    0    0  501    0  0.00000000000E+00  0.00000000000E+00  0.20982592742E+04  0.20982592742E+04  0.25500000000E-02 0.  1.
         -2   -1    0    0    0  501 -0.00000000000E+00 -0.00000000000E+00 -0.43231548161E+03  0.43231548162E+03  0.25500000000E-02 0. -1.
     200001    2    1    2    0    0 -0.71301768960E+03  0.14965103736E+03  0.82259859001E+03  0.12586510988E+04  0.61379515273E+03 0.  0.
    5000001    2    3    3    0    0 -0.27572899510E+03 -0.20692776262E+03  0.45998431949E+03  0.58037390462E+03  0.80016981398E+02 0.  0.
        -13    1    4    4    0    0 -0.12593783978E+03 -0.53222707189E+02  0.19269627234E+03  0.23627285199E+03  0.10566000000E+00 0. -1.
     200003    1    4    4    0    0 -0.14979115532E+03 -0.15370505543E+03  0.26728804715E+03  0.34410105263E+03  0.30000000000E+02 0. -1.
     200000    1    3    3    0    0 -0.43728869450E+03  0.35657879997E+03  0.36261427052E+03  0.67827719416E+03  0.10100000000E+03 0. -1.
    -200001    1    1    2    0    0  0.71301768960E+03 -0.14965103736E+03  0.84334520261E+03  0.12719236571E+04  0.61300000000E+03 0. -1.
<mgrwt>
<rscale>  0 0.19048464E+04</rscale>
<asrwt>0</asrwt>
<pdfrwt beam="1">  1        2 0.29975132E+00 0.19048464E+04</pdfrwt>
<pdfrwt beam="2">  1       -2 0.61759355E-01 0.19048464E+04</pdfrwt>
<totfact> 0.16332169E+01</totfact>
</mgrwt>
</event>
<event>
 8    1  0.7685004E-052  0.1343984E+04  0.7818608E-02  0.8995395E-01
          2   -1    0    0  501    0  0.00000000000E+00  0.00000000000E+00  0.23563080920E+04  0.23563080920E+04  0.25500000000E-02 0.  1.
         -2   -1    0    0    0  501 -0.00000000000E+00 -0.00000000000E+00 -0.19164433729E+03  0.19164433730E+03  0.25500000000E-02 0. -1.
     200001    2    1    2    0    0  0.33471704152E+02 -0.24502855564E+03  0.85357760613E+03  0.10796625270E+04  0.61312078301E+03 0.  0.
    5000001    2    3    3    0    0 -0.10557790421E+03 -0.39530649696E+03  0.65560961603E+03  0.77748612436E+03  0.85128047935E+02 0.  0.
        -13    1    4    4    0    0 -0.87260333253E+02 -0.18696126144E+03  0.30888356470E+03  0.37145382855E+03  0.10566000000E+00 0. -1.
     200003    1    4    4    0    0 -0.18317570954E+02 -0.20834523553E+03  0.34672605133E+03  0.40603229581E+03  0.30000000000E+02 0. -1.
     200000    1    3    3    0    0  0.13904960836E+03  0.15027794133E+03  0.19796799010E+03  0.30217640268E+03  0.10100000000E+03 0.  1.
    -200001    1    1    2    0    0 -0.33471704152E+02  0.24502855564E+03  0.13110861486E+04  0.14682899022E+04  0.61300000000E+03 0. -1.
<mgrwt>
<rscale>  0 0.13439838E+04</rscale>
<asrwt>0</asrwt>
<pdfrwt beam="1">  1        2 0.33661541E+00 0.13439838E+04</pdfrwt>
<pdfrwt beam="2">  1       -2 0.27377765E-01 0.13439838E+04</pdfrwt>
<totfact> 0.62428268E+01</totfact>
</mgrwt>
</event>
<event>
 8    1  0.7685004E-052  0.1249245E+04  0.7818608E-02  0.9070811E-01
          2   -1    0    0  501    0  0.00000000000E+00  0.00000000000E+00  0.22254090901E+04  0.22254090901E+04  0.25500000000E-02 0.  1.
         -2   -1    0    0    0  501 -0.00000000000E+00 -0.00000000000E+00 -0.17531768304E+03  0.17531768306E+03  0.25500000000E-02 0. -1.
     200001    2    1    2    0    0 -0.29079376239E+02  0.11459686669E+03  0.10579776599E+04  0.12285336409E+04  0.61318849143E+03 0.  0.
    5000001    2    3    3    0    0 -0.20988329225E+03 -0.12227912061E+03  0.21797400263E+03  0.33153451403E+03  0.58303417273E+02 0.  0.
        -13    1    4    4    0    0 -0.43791123800E+02 -0.19940032773E+02  0.69556697283E+02  0.84577850124E+02  0.10566000000E+00 0. -1.
     200003    1    4    4    0    0 -0.16609216845E+03 -0.10233908784E+03  0.14841730535E+03  0.24695666390E+03  0.30000000000E+02 0. -1.
     200000    1    3    3    0    0  0.18080391601E+03  0.23687598730E+03  0.84000365729E+03  0.89699912690E+03  0.10100000000E+03 0.  1.
    -200001    1    1    2    0    0  0.29079376239E+02 -0.11459686669E+03  0.99211374710E+03  0.11721931322E+04  0.61300000000E+03 0. -1.
<mgrwt>
<rscale>  0 0.12492455E+04</rscale>
<asrwt>0</asrwt>
<pdfrwt beam="1">  1        2 0.31791557E+00 0.12492455E+04</pdfrwt>
<pdfrwt beam="2">  1       -2 0.25045385E-01 0.12492455E+04</pdfrwt>
<totfact> 0.86449104E+01</totfact>
</mgrwt>
</event>
<event>
 8    1  0.7685004E-052  0.1556175E+04  0.7818608E-02  0.8847933E-01
          2   -1    0    0  501    0  0.00000000000E+00  0.00000000000E+00  0.26721402489E+04  0.26721402489E+04  0.25500000000E-02 0.  1.
         -2   -1    0    0    0  501 -0.00000000000E+00 -0.00000000000E+00 -0.22656739164E+03  0.22656739166E+03  0.25500000000E-02 0. -1.
     200001    2    1    2    0    0 -0.76962895894E+02 -0.27412435708E+02  0.21019160425E+04  0.21912164850E+04  0.61376209162E+03 0.  0.
    5000001    2    3    3    0    0 -0.19364898582E+03 -0.11000254904E+03  0.30217683596E+03  0.38298558651E+03  0.75938322221E+02 0.  0.
        -13    1    4    4    0    0 -0.10638256891E+03 -0.46582562847E+02  0.10668973773E+03  0.15770192589E+03  0.10566000000E+00 0. -1.
     200003    1    4    4    0    0 -0.87266416915E+02 -0.63419986189E+02  0.19548709823E+03  0.22528366062E+03  0.30000000000E+02 0. -1.
     200000    1    3    3    0    0  0.11668608993E+03  0.82590113328E+02  0.17997392066E+04  0.18082308985E+04  0.10100000000E+03 0.  1.
    -200001    1    1    2    0    0  0.76962895894E+02  0.27412435708E+02  0.34365681475E+03  0.70749115563E+03  0.61300000000E+03 0. -1.
<mgrwt>
<rscale>  0 0.15561746E+04</rscale>
<asrwt>0</asrwt>
<pdfrwt beam="1">  1        2 0.38173432E+00 0.15561746E+04</pdfrwt>
<pdfrwt beam="2">  1       -2 0.32366770E-01 0.15561746E+04</pdfrwt>
<totfact> 0.30644336E+01</totfact>
</mgrwt>
</event>
<event>
 8    1  0.7685004E-052  0.1338081E+04  0.7818608E-02  0.8999900E-01
         -2   -1    0    0    0  501 -0.00000000000E+00  0.00000000000E+00  0.31811451238E+03  0.31811451240E+03  0.25500000000E-02 0. -1.
          2   -1    0    0  501    0  0.00000000000E+00 -0.00000000000E+00 -0.14070872835E+04  0.14070872835E+04  0.25500000000E-02 0.  1.
     200001    2    1    2    0    0  0.67264301152E+02  0.24580465040E+03 -0.43994149822E+03  0.79678647635E+03  0.61349470631E+03 0.  0.
    5000001    2    3    3    0    0 -0.19014860572E+03  0.96977466198E+02 -0.42465790726E+03  0.48238939695E+03  0.82486792179E+02 0.  0.
        -13    1    4    4    0    0 -0.12254771483E+03  0.83816919330E+02 -0.23019559693E+03  0.27392196405E+03  0.10566000000E+00 0. -1.
     200003    1    4    4    0    0 -0.67600890883E+02  0.13160546867E+02 -0.19446231033E+03  0.20846743290E+03  0.30000000000E+02 0. -1.
     200000    1    3    3    0    0  0.25741290687E+03  0.14882718420E+03 -0.15283590957E+02  0.31439707940E+03  0.10100000000E+03 0. -1.
    -200001    1    1    2    0    0 -0.67264301152E+02 -0.24580465040E+03 -0.64903127288E+03  0.92841531953E+03  0.61300000000E+03 0. -1.
<mgrwt>
<rscale>  0 0.13380805E+04</rscale>
<asrwt>0</asrwt>
<pdfrwt beam="1">  1        2 0.20101247E+00 0.13380805E+04</pdfrwt>
<pdfrwt beam="2">  1       -2 0.45444931E-01 0.13380805E+04</pdfrwt>
<totfact> 0.73637811E+01</totfact>
</mgrwt>
</event>
<event>
 8    1  0.7685004E-052  0.1464185E+04  0.7818608E-02  0.8908625E-01
         -2   -1    0    0    0  501 -0.00000000000E+00  0.00000000000E+00  0.30832895082E+03  0.30832895083E+03  0.25500000000E-02 0. -1.
          2   -1    0    0  501    0  0.00000000000E+00 -0.00000000000E+00 -0.17382721404E+04  0.17382721404E+04  0.25500000000E-02 0.  1.
     200001    2    1    2    0    0  0.30205006003E+03 -0.26088207071E+03 -0.75728563886E+03  0.10528552112E+04  0.61296726119E+03 0.  0.
    5000001    2    3    3    0    0 -0.70748216842E+02 -0.10162391581E+03 -0.34238585518E+03  0.46405597066E+03  0.28772754408E+03 0.  0.
        -13    1    4    4    0    0 -0.14617166341E+03 -0.15721255308E+03 -0.24226820403E+03  0.32369095736E+03  0.10566000000E+00 0. -1.
     200003    1    4    4    0    0  0.75423446565E+02  0.55588637270E+02 -0.10011765116E+03  0.14036501330E+03  0.30000000000E+02 0. -1.
     200000    1    3    3    0    0  0.37279827687E+03 -0.15925815490E+03 -0.41489978368E+03  0.58879924052E+03  0.10100000000E+03 0.  1.
    -200001    1    1    2    0    0 -0.30205006003E+03  0.26088207071E+03 -0.67265755072E+03  0.99374588005E+03  0.61300000000E+03 0.  1.
<mgrwt>
<rscale>  0 0.14641853E+04</rscale>
<asrwt>0</asrwt>
<pdfrwt beam="1">  1        2 0.24832458E+00 0.14641853E+04</pdfrwt>
<pdfrwt beam="2">  1       -2 0.44046994E-01 0.14641853E+04</pdfrwt>
<totfact> 0.51932659E+01</totfact>
</mgrwt>
</event>
<event>
 8    1  0.7685004E-052  0.3468331E+04  0.7818608E-02  0.8121336E-01
          2   -1    0    0  501    0  0.00000000000E+00  0.00000000000E+00  0.11738990969E+04  0.11738990969E+04  0.25500000000E-02 0.  1.
         -2   -1    0    0    0  501 -0.00000000000E+00 -0.00000000000E+00 -0.25618295002E+04  0.25618295002E+04  0.25500000000E-02 0. -1.
     200001    2    1    2    0    0 -0.59719060977E+03  0.67629270706E+03 -0.21461896245E+04  0.24072954988E+04  0.61231794366E+03 0.  0.
    5000001    2    3    3    0    0 -0.57557814262E+03  0.48828029503E+03 -0.10800347034E+04  0.13197739672E+04  0.74970122356E+02 0.  0.
        -13    1    4    4    0    0 -0.13391970168E+03  0.13558598487E+03 -0.31430687031E+03  0.36756885842E+03  0.10566000000E+00 0. -1.
     200003    1    4    4    0    0 -0.44165844094E+03  0.35269431016E+03 -0.76572783309E+03  0.95220510881E+03  0.30000000000E+02 0.  1.
     200000    1    3    3    0    0 -0.21612467151E+02  0.18801241203E+03 -0.10661549211E+04  0.10875215315E+04  0.10100000000E+03 0.  1.
    -200001    1    1    2    0    0  0.59719060977E+03 -0.67629270706E+03  0.75825922121E+03  0.13284330983E+04  0.61300000000E+03 0.  1.
<mgrwt>
<rscale>  0 0.34683306E+04</rscale>
<asrwt>0</asrwt>
<pdfrwt beam="1">  1        2 0.16769987E+00 0.34683306E+04</pdfrwt>
<pdfrwt beam="2">  1       -2 0.36597564E+00 0.34683306E+04</pdfrwt>
<totfact> 0.22614184E-01</totfact>
</mgrwt>
</event>
<event>
 8    1  0.7685004E-052  0.2302424E+04  0.7818608E-02  0.8476966E-01
         -2   -1    0    0    0  501 -0.00000000000E+00  0.00000000000E+00  0.19858824694E+04  0.19858824694E+04  0.25500000000E-02 0. -1.
          2   -1    0    0  501    0  0.00000000000E+00 -0.00000000000E+00 -0.66735521224E+03  0.66735521224E+03  0.25500000000E-02 0.  1.
     200001    2    1    2    0    0 -0.16634468457E+03 -0.94832657723E+03  0.48554436240E+03  0.12402184482E+04  0.61269455699E+03 0.  0.
    5000001    2    3    3    0    0 -0.12227616665E+03 -0.90883073101E+03  0.22117759718E+03  0.95109435251E+03  0.12139266590E+03 0.  0.
        -13    1    4    4    0    0 -0.31199568311E+02 -0.51697289823E+03  0.16630798274E+03  0.54396024382E+03  0.10566000000E+00 0. -1.
     200003    1    4    4    0    0 -0.91076598339E+02 -0.39185783278E+03  0.54869614436E+02  0.40713410869E+03  0.30000000000E+02 0. -1.
     200000    1    3    3    0    0 -0.44068517917E+02 -0.39495846229E+02  0.26436676522E+03  0.28912409566E+03  0.10100000000E+03 0. -1.
    -200001    1    1    2    0    0  0.16634468457E+03  0.94832657723E+03  0.83298289476E+03  0.14130192335E+04  0.61300000000E+03 0. -1.
<mgrwt>
<rscale>  0 0.23024240E+04</rscale>
<asrwt>0</asrwt>
<pdfrwt beam="1">  1        2 0.95336460E-01 0.23024240E+04</pdfrwt>
<pdfrwt beam="2">  1       -2 0.28369749E+00 0.23024240E+04</pdfrwt>
<totfact> 0.17374640E+00</totfact>
</mgrwt>
</event>
<event>
 8    1  0.7685004E-052  0.1396410E+04  0.7818608E-02  0.8956421E-01
         -2   -1    0    0    0  501 -0.00000000000E+00  0.00000000000E+00  0.18528371385E+03  0.18528371387E+03  0.25500000000E-02 0. -1.
          2   -1    0    0  501    0  0.00000000000E+00 -0.00000000000E+00 -0.26310486074E+04  0.26310486074E+04  0.25500000000E-02 0.  1.
     200001    2    1    2    0    0  0.22825263532E+03 -0.22990793599E+03 -0.10459407443E+04  0.12542076228E+04  0.61162717081E+03 0.  0.
    5000001    2    3    3    0    0 -0.12012209975E+03 -0.16625890334E+03 -0.64090424909E+03  0.70678482661E+03  0.21613697702E+03 0.  0.
        -13    1    4    4    0    0 -0.14109978707E+03 -0.20201667490E+03 -0.51661240611E+03  0.57237075061E+03  0.10566000000E+00 0. -1.
     200003    1    4    4    0    0  0.20977687322E+02  0.35757771567E+02 -0.12429184299E+03  0.13441407600E+03  0.30000000000E+02 0. -1.
     200000    1    3    3    0    0  0.34837473507E+03 -0.63649032654E+02 -0.40503649517E+03  0.54742279621E+03  0.10100000000E+03 0. -1.
    -200001    1    1    2    0    0 -0.22825263532E+03  0.22990793599E+03 -0.13998241493E+04  0.15621246984E+04  0.61300000000E+03 0. -1.
<mgrwt>
<rscale>  0 0.13964103E+04</rscale>
<asrwt>0</asrwt>
<pdfrwt beam="1">  1        2 0.37586407E+00 0.13964103E+04</pdfrwt>
<pdfrwt beam="2">  1       -2 0.26469103E-01 0.13964103E+04</pdfrwt>
<totfact> 0.47453678E+01</totfact>
</mgrwt>
</event>
<event>
 8    1  0.7685004E-052  0.1404665E+04  0.7818608E-02  0.8950448E-01
          2   -1    0    0  501    0  0.00000000000E+00  0.00000000000E+00  0.79869710522E+03  0.79869710522E+03  0.25500000000E-02 0.  1.
         -2   -1    0    0    0  501 -0.00000000000E+00 -0.00000000000E+00 -0.61759487814E+03  0.61759487814E+03  0.25500000000E-02 0. -1.
     200001    2    1    2    0    0  0.15537575339E+03  0.12599247965E+03 -0.19002715609E+03  0.67230156090E+03  0.61307694384E+03 0.  0.
    5000001    2    3    3    0    0  0.25641744271E+03  0.28170793726E+03 -0.22305160546E+03  0.45841294274E+03  0.12361691038E+03 0.  0.
        -13    1    4    4    0    0  0.11261603768E+03  0.20358499331E+03 -0.11068694516E+03  0.25764477957E+03  0.10566000000E+00 0. -1.
     200003    1    4    4    0    0  0.14380140503E+03  0.78122943949E+02 -0.11236466031E+03  0.20076816318E+03  0.30000000000E+02 0. -1.
     200000    1    3    3    0    0 -0.10104168932E+03 -0.15571545762E+03  0.33024449369E+02  0.21388861816E+03  0.10100000000E+03 0. -1.
    -200001    1    1    2    0    0 -0.15537575339E+03 -0.12599247965E+03  0.37112938318E+03  0.74399042247E+03  0.61300000000E+03 0.  1.
<mgrwt>
<rscale>  0 0.14046654E+04</rscale>
<asrwt>0</asrwt>
<pdfrwt beam="1">  1        2 0.11409959E+00 0.14046654E+04</pdfrwt>
<pdfrwt beam="2">  1       -2 0.88227840E-01 0.14046654E+04</pdfrwt>
<totfact> 0.41081907E+01</totfact>
</mgrwt>
</event>
<event>
 8    1  0.7685004E-052  0.1337683E+04  0.7818608E-02  0.9000205E-01
          2   -1    0    0  501    0  0.00000000000E+00  0.00000000000E+00  0.92861137309E+03  0.92861137310E+03  0.25500000000E-02 0.  1.
         -2   -1    0    0    0  501 -0.00000000000E+00 -0.00000000000E+00 -0.48173952915E+03  0.48173952915E+03  0.25500000000E-02 0. -1.
     200001    2    1    2    0    0 -0.89044252937E+02 -0.20702381852E+03  0.37961124907E+03  0.75378351954E+03  0.61098048536E+03 0.  0.
    5000001    2    3    3    0    0  0.43457883526E+02  0.15019822876E+03  0.25185477567E+03  0.33943207001E+03  0.16533362199E+03 0.  0.
        -13    1    4    4    0    0 -0.60017137501E+02  0.52436785308E+02  0.66458648969E+02  0.10377107706E+03  0.10566000000E+00 0. -1.
     200003    1    4    4    0    0  0.10347502103E+03  0.97761443452E+02  0.18539612670E+03  0.23566099295E+03  0.30000000000E+02 0. -1.
     200000    1    3    3    0    0 -0.13250213646E+03 -0.35722204728E+03  0.12775647340E+03  0.41435144953E+03  0.10100000000E+03 0.  1.
    -200001    1    1    2    0    0  0.89044252937E+02  0.20702381852E+03  0.67260594876E+02  0.65656738271E+03  0.61300000000E+03 0. -1.
<mgrwt>
<rscale>  0 0.13376828E+04</rscale>
<asrwt>0</asrwt>
<pdfrwt beam="1">  1        2 0.13265877E+00 0.13376828E+04</pdfrwt>
<pdfrwt beam="2">  1       -2 0.68819932E-01 0.13376828E+04</pdfrwt>
<totfact> 0.58842852E+01</totfact>
</mgrwt>
</event>
<event>
 8    1  0.7685004E-052  0.2183213E+04  0.7818608E-02  0.8525448E-01
          2   -1    0    0  501    0  0.00000000000E+00  0.00000000000E+00  0.24887748601E+04  0.24887748601E+04  0.25500000000E-02 0. -1.
         -2   -1    0    0    0  501 -0.00000000000E+00 -0.00000000000E+00 -0.47879167161E+03  0.47879167161E+03  0.25500000000E-02 0.  1.
     200001    2    1    2    0    0  0.25654102447E+03 -0.38838288742E+03  0.20562490345E+04  0.21964867090E+04  0.61622983249E+03 0.  0.
    5000001    2    3    3    0    0  0.35119979743E+03 -0.22792413115E+02  0.10892196242E+04  0.11534317926E+04  0.14193209176E+03 0.  0.
        -13    1    4    4    0    0  0.96282560491E+02  0.43810498150E+02  0.21069540640E+03  0.23575889516E+03  0.10566000000E+00 0. -1.
     200003    1    4    4    0    0  0.25491723694E+03 -0.66602911265E+02  0.87852421781E+03  0.91767289748E+03  0.30000000000E+02 0. -1.
     200000    1    3    3    0    0 -0.94658772960E+02 -0.36559047430E+03  0.96702941028E+03  0.10430549164E+04  0.10100000000E+03 0. -1.
    -200001    1    1    2    0    0 -0.25654102447E+03  0.38838288742E+03 -0.46265846015E+02  0.77107982270E+03  0.61300000000E+03 0.  1.
<mgrwt>
<rscale>  0 0.21832129E+04</rscale>
<asrwt>0</asrwt>
<pdfrwt beam="1">  1        2 0.35553927E+00 0.21832129E+04</pdfrwt>
<pdfrwt beam="2">  1       -2 0.68398810E-01 0.21832129E+04</pdfrwt>
<totfact> 0.80310581E+00</totfact>
</mgrwt>
</event>
<event>
 8    1  0.7685004E-052  0.1713632E+04  0.7818608E-02  0.8753627E-01
         -2   -1    0    0    0  501 -0.00000000000E+00  0.00000000000E+00  0.26080885235E+03  0.26080885236E+03  0.25500000000E-02 0. -1.
          2   -1    0    0  501    0  0.00000000000E+00 -0.00000000000E+00 -0.28148356981E+04  0.28148356981E+04  0.25500000000E-02 0.  1.
     200001    2    1    2    0    0 -0.49924176630E+03 -0.31040066459E+03 -0.10121383288E+04  0.13153093231E+04  0.60001975396E+03 0.  0.
    5000001    2    3    3    0    0 -0.25108391567E+03  0.13684591399E+03 -0.27720195472E+03  0.41422980678E+03  0.11390993038E+03 0.  0.
        -13    1    4    4    0    0 -0.16419213711E+03  0.75131389094E+02 -0.10316463013E+03  0.20795849487E+03  0.10566000000E+00 0. -1.
     200003    1    4    4    0    0 -0.86891778559E+02  0.61714524899E+02 -0.17403732460E+03  0.20627131191E+03  0.30000000000E+02 0. -1.
     200000    1    3    3    0    0 -0.24815785064E+03 -0.44724657858E+03 -0.73493637406E+03  0.90107951636E+03  0.10100000000E+03 0.  1.
    -200001    1    1    2    0    0  0.49924176630E+03  0.31040066459E+03 -0.15418885170E+04  0.17603352273E+04  0.61300000000E+03 0.  1.
<mgrwt>
<rscale>  0 0.17136325E+04</rscale>
<asrwt>0</asrwt>
<pdfrwt beam="1">  1        2 0.40211937E+00 0.17136325E+04</pdfrwt>
<pdfrwt beam="2">  1       -2 0.37258409E-01 0.17136325E+04</pdfrwt>
<totfact> 0.19363066E+01</totfact>
</mgrwt>
</event>
<event>
 8    1  0.7685004E-052  0.1634753E+04  0.7818608E-02  0.8799478E-01
         -2   -1    0    0    0  501 -0.00000000000E+00  0.00000000000E+00  0.67780646791E+03  0.67780646791E+03  0.25500000000E-02 0. -1.
          2   -1    0    0  501    0  0.00000000000E+00 -0.00000000000E+00 -0.98568634505E+03  0.98568634505E+03  0.25500000000E-02 0.  1.
     200001    2    1    2    0    0  0.87676773374E+02 -0.33841330222E+03  0.26620973778E+03  0.75379029804E+03  0.61247155789E+03 0.  0.
    5000001    2    3    3    0    0  0.14564569129E+03  0.60994388229E+02  0.22379499083E+03  0.33559547574E+03  0.19392561108E+03 0.  0.
        -13    1    4    4    0    0  0.16557219353E+03  0.57674799935E+02  0.23895589504E+03  0.29637892090E+03  0.10566000000E+00 0. -1.
     200003    1    4    4    0    0 -0.19926502232E+02  0.33195882940E+01 -0.15160904207E+02  0.39216554846E+02  0.30000000000E+02 0. -1.
     200000    1    3    3    0    0 -0.57968917920E+02 -0.39940769045E+03  0.42414746951E+02  0.41819482229E+03  0.10100000000E+03 0. -1.
    -200001    1    1    2    0    0 -0.87676773374E+02  0.33841330222E+03 -0.57408961492E+03  0.90970251493E+03  0.61300000000E+03 0.  1.
<mgrwt>
<rscale>  0 0.16347533E+04</rscale>
<asrwt>0</asrwt>
<pdfrwt beam="1">  1        2 0.14081233E+00 0.16347533E+04</pdfrwt>
<pdfrwt beam="2">  1       -2 0.96829496E-01 0.16347533E+04</pdfrwt>
<totfact> 0.24499423E+01</totfact>
</mgrwt>
</event>
<event>
 8    1  0.7685004E-052  0.1288545E+04  0.7818608E-02  0.9038699E-01
         -2   -1    0    0    0  501 -0.00000000000E+00  0.00000000000E+00  0.19842270538E+03  0.19842270540E+03  0.25500000000E-02 0. -1.
          2   -1    0    0  501    0  0.00000000000E+00 -0.00000000000E+00 -0.20919316611E+04  0.20919316611E+04  0.25500000000E-02 0.  1.
     200001    2    1    2    0    0  0.19797866662E+03  0.75972906169E+01 -0.91087094281E+03  0.11153651173E+04  0.61245424256E+03 0.  0.
    5000001    2    3    3    0    0 -0.17269179712E+03  0.80623680721E+02 -0.51880933129E+03  0.56161178454E+03  0.99609435388E+02 0.  0.
        -13    1    4    4    0    0 -0.11237405888E+03  0.38143993967E+01 -0.28972294636E+03  0.31077624678E+03  0.10566000000E+00 0. -1.
     200003    1    4    4    0    0 -0.60317738241E+02  0.76809281325E+02 -0.22908638493E+03  0.25083553777E+03  0.30000000000E+02 0. -1.
     200000    1    3    3    0    0  0.37067046374E+03 -0.73026390104E+02 -0.39206161152E+03  0.55375333278E+03  0.10100000000E+03 0. -1.
    -200001    1    1    2    0    0 -0.19797866662E+03 -0.75972906169E+01 -0.98263801291E+03  0.11749892492E+04  0.61300000000E+03 0. -1.
<mgrwt>
<rscale>  0 0.12885445E+04</rscale>
<asrwt>0</asrwt>
<pdfrwt beam="1">  1        2 0.29884737E+00 0.12885445E+04</pdfrwt>
<pdfrwt beam="2">  1       -2 0.28346102E-01 0.12885445E+04</pdfrwt>
<totfact> 0.80485532E+01</totfact>
</mgrwt>
</event>
<event>
 8    1  0.7685004E-052  0.1549846E+04  0.7818608E-02  0.8851966E-01
          2   -1    0    0  501    0  0.00000000000E+00  0.00000000000E+00  0.40951923479E+04  0.40951923479E+04  0.25500000000E-02 0.  1.
         -2   -1    0    0    0  501 -0.00000000000E+00 -0.00000000000E+00 -0.14663672062E+03  0.14663672064E+03  0.25500000000E-02 0. -1.
     200001    2    1    2    0    0  0.37524747614E+03  0.17918685169E+03  0.25974702850E+04  0.27010113641E+04  0.61293711867E+03 0.  0.
    5000001    2    3    3    0    0  0.28391221310E+03 -0.17141088561E+03  0.14991213721E+04  0.15400495913E+04  0.12000007770E+03 0.  0.
        -13    1    4    4    0    0  0.12533043110E+03 -0.11279026820E+03  0.54109606352E+03  0.56675772838E+03  0.10566000000E+00 0. -1.
     200003    1    4    4    0    0  0.15858178200E+03 -0.58620617408E+02  0.95802530862E+03  0.97329186287E+03  0.30000000000E+02 0. -1.
     200000    1    3    3    0    0  0.91335263044E+02  0.35059773729E+03  0.10983489128E+04  0.11609617728E+04  0.10100000000E+03 0. -1.
    -200001    1    1    2    0    0 -0.37524747614E+03 -0.17918685169E+03  0.13510853423E+04  0.15408177044E+04  0.61300000000E+03 0. -1.
<mgrwt>
<rscale>  0 0.15498459E+04</rscale>
<asrwt>0</asrwt>
<pdfrwt beam="1">  1        2 0.58502740E+00 0.15498459E+04</pdfrwt>
<pdfrwt beam="2">  1       -2 0.20948106E-01 0.15498459E+04</pdfrwt>
<totfact> 0.94513338E+00</totfact>
</mgrwt>
</event>
<event>
 8    1  0.7685004E-052  0.1993991E+04  0.7818608E-02  0.8609435E-01
          2   -1    0    0  501    0  0.00000000000E+00  0.00000000000E+00  0.12874977524E+04  0.12874977524E+04  0.25500000000E-02 0.  1.
         -2   -1    0    0    0  501 -0.00000000000E+00 -0.00000000000E+00 -0.77204019652E+03  0.77204019652E+03  0.25500000000E-02 0. -1.
     200001    2    1    2    0    0  0.44808669075E+03 -0.61311363895E+03  0.47225418106E+02  0.97708686389E+03  0.61300773469E+03 0.  0.
    5000001    2    3    3    0    0  0.30489559741E+03 -0.70478244646E+03  0.81369942956E+02  0.77640376032E+03  0.80635657515E+02 0.  0.
        -13    1    4    4    0    0  0.23259526350E+03 -0.47547056122E+03  0.68899751005E+02  0.53377897864E+03  0.10566000000E+00 0. -1.
     200003    1    4    4    0    0  0.72300333915E+02 -0.22931188524E+03  0.12470191951E+02  0.24262478168E+03  0.30000000000E+02 0. -1.
     200000    1    3    3    0    0  0.14319109333E+03  0.91668807514E+02 -0.34144524850E+02  0.20068310357E+03  0.10100000000E+03 0. -1.
    -200001    1    1    2    0    0 -0.44808669075E+03  0.61311363895E+03  0.46823213781E+03  0.10824510851E+04  0.61300000000E+03 0.  1.
<mgrwt>
<rscale>  0 0.19939910E+04</rscale>
<asrwt>0</asrwt>
<pdfrwt beam="1">  1        2 0.18392825E+00 0.19939910E+04</pdfrwt>
<pdfrwt beam="2">  1       -2 0.11029146E+00 0.19939910E+04</pdfrwt>
<totfact> 0.11623536E+01</totfact>
</mgrwt>
</event>
<event>
 8    1  0.7685004E-052  0.1703552E+04  0.7818608E-02  0.8759341E-01
          2   -1    0    0  501    0  0.00000000000E+00  0.00000000000E+00  0.17349361323E+04  0.17349361323E+04  0.25500000000E-02 0.  1.
         -2   -1    0    0    0  501 -0.00000000000E+00 -0.00000000000E+00 -0.41818400575E+03  0.41818400576E+03  0.25500000000E-02 0. -1.
     200001    2    1    2    0    0 -0.33686622184E+03  0.32095749441E+03  0.11206469840E+04  0.13589420777E+04  0.61186709592E+03 0.  0.
    5000001    2    3    3    0    0  0.37651076676E+01 -0.13311094799E+03  0.98647239792E+02  0.18553152284E+03  0.83414432431E+02 0.  0.
        -13    1    4    4    0    0 -0.10379283050E+02 -0.97443197463E+02  0.95328229282E+02  0.13671279644E+03  0.10566000000E+00 0. -1.
     200003    1    4    4    0    0  0.14144390717E+02 -0.35667750525E+02  0.33190105098E+01  0.48818726397E+02  0.30000000000E+02 0. -1.
     200000    1    3    3    0    0 -0.34063132951E+03  0.45406844240E+03  0.10219997442E+04  0.11734105548E+04  0.10100000000E+03 0.  1.
    -200001    1    1    2    0    0  0.33686622184E+03 -0.32095749441E+03  0.19610514252E+03  0.79417806036E+03  0.61300000000E+03 0. -1.
<mgrwt>
<rscale>  0 0.17035522E+04</rscale>
<asrwt>0</asrwt>
<pdfrwt beam="1">  1        2 0.24784802E+00 0.17035522E+04</pdfrwt>
<pdfrwt beam="2">  1       -2 0.59740573E-01 0.17035522E+04</pdfrwt>
<totfact> 0.27415897E+01</totfact>
</mgrwt>
</event>
<event>
 8    1  0.7685004E-052  0.2088513E+04  0.7818608E-02  0.8566320E-01
         -2   -1    0    0    0  501 -0.00000000000E+00  0.00000000000E+00  0.34571126824E+03  0.34571126825E+03  0.25500000000E-02 0. -1.
          2   -1    0    0  501    0  0.00000000000E+00 -0.00000000000E+00 -0.31542841861E+04  0.31542841861E+04  0.25500000000E-02 0.  1.
     200001    2    1    2    0    0  0.32242716289E+03  0.77135533081E+03 -0.16148276610E+04  0.19189372455E+04  0.61294653553E+03 0.  0.
    5000001    2    3    3    0    0  0.17426719658E+03  0.72336910109E+03 -0.15491928723E+04  0.17220540838E+04  0.10881084340E+03 0.  0.
        -13    1    4    4    0    0  0.16666176798E+03  0.66689428526E+03 -0.14266066602E+04  0.15835816072E+04  0.10566000000E+00 0. -1.
     200003    1    4    4    0    0  0.76054286004E+01  0.56474815835E+02 -0.12258621207E+03  0.13847247654E+03  0.30000000000E+02 0.  1.
     200000    1    3    3    0    0  0.14815996631E+03  0.47986229717E+02 -0.65634788723E+02  0.19688316167E+03  0.10100000000E+03 0. -1.
    -200001    1    1    2    0    0 -0.32242716289E+03 -0.77135533081E+03 -0.11937452569E+04  0.15810582089E+04  0.61300000000E+03 0. -1.
<mgrwt>
<rscale>  0 0.20885130E+04</rscale>
<asrwt>0</asrwt>
<pdfrwt beam="1">  1        2 0.45061201E+00 0.20885130E+04</pdfrwt>
<pdfrwt beam="2">  1       -2 0.49387326E-01 0.20885130E+04</pdfrwt>
<totfact> 0.69352847E+00</totfact>
</mgrwt>
</event>
<event>
 8    1  0.7685004E-052  0.1391755E+04  0.7818608E-02  0.8959808E-01
         -2   -1    0    0    0  501 -0.00000000000E+00  0.00000000000E+00  0.14048172176E+04  0.14048172176E+04  0.25500000000E-02 0. -1.
          2   -1    0    0  501    0  0.00000000000E+00 -0.00000000000E+00 -0.34470366901E+03  0.34470366902E+03  0.25500000000E-02 0.  1.
     200001    2    1    2    0    0  0.11187015096E+02 -0.32873506805E+03  0.50684061905E+03  0.86066103891E+03  0.61290955002E+03 0.  0.
    5000001    2    3    3    0    0  0.29681187133E+03 -0.17184322706E+03  0.28603177570E+03  0.45426941305E+03  0.83181375761E+02 0.  0.
        -13    1    4    4    0    0  0.23176730279E+03 -0.14575790933E+03  0.24645403856E+03  0.36837624117E+03  0.10566000000E+00 0. -1.
     200003    1    4    4    0    0  0.65044568540E+02 -0.26085317731E+02  0.39577737136E+02  0.85893171873E+02  0.30000000000E+02 0. -1.
     200000    1    3    3    0    0 -0.28562485624E+03 -0.15689184100E+03  0.22080884335E+03  0.40639162587E+03  0.10100000000E+03 0. -1.
    -200001    1    1    2    0    0 -0.11187015096E+02  0.32873506805E+03  0.55327292951E+03  0.88885984768E+03  0.61300000000E+03 0.  1.
<mgrwt>
<rscale>  0 0.13917552E+04</rscale>
<asrwt>0</asrwt>
<pdfrwt beam="1">  1        2 0.49243381E-01 0.13917552E+04</pdfrwt>
<pdfrwt beam="2">  1       -2 0.20068818E+00 0.13917552E+04</pdfrwt>
<totfact> 0.13104470E+01</totfact>
</mgrwt>
</event>
<event>
 8    1  0.7685004E-052  0.2025922E+04  0.7818608E-02  0.8594596E-01
         -2   -1    0    0    0  501 -0.00000000000E+00  0.00000000000E+00  0.72138728359E+03  0.72138728359E+03  0.25500000000E-02 0. -1.
          2   -1    0    0  501    0  0.00000000000E+00 -0.00000000000E+00 -0.14223849535E+04  0.14223849535E+04  0.25500000000E-02 0.  1.
     200001    2    1    2    0    0  0.59907643630E+03  0.51230633474E+03 -0.53047745188E+03  0.11307586627E+04  0.61307297210E+03 0.  0.
    5000001    2    3    3    0    0  0.12174552882E+03 -0.11408546182E+03 -0.45105937674E+01  0.17836503929E+03  0.62898930017E+02 0.  0.
        -13    1    4    4    0    0  0.11672932079E+02 -0.54653436014E+01  0.14839139883E+02  0.19655496954E+02  0.10566000000E+00 0. -1.
     200003    1    4    4    0    0  0.11007259675E+03 -0.10862011822E+03 -0.19349733651E+02  0.15870954234E+03  0.30000000000E+02 0. -1.
     200000    1    3    3    0    0  0.47733090748E+03  0.62639179656E+03 -0.52596685811E+03  0.95239362338E+03  0.10100000000E+03 0.  1.
    -200001    1    1    2    0    0 -0.59907643630E+03 -0.51230633474E+03 -0.17052021800E+03  0.10130135744E+04  0.61300000000E+03 0. -1.
<mgrwt>
<rscale>  0 0.20259224E+04</rscale>
<asrwt>0</asrwt>
<pdfrwt beam="1">  1        2 0.20319785E+00 0.20259224E+04</pdfrwt>
<pdfrwt beam="2">  1       -2 0.10305533E+00 0.20259224E+04</pdfrwt>
<totfact> 0.11517341E+01</totfact>
</mgrwt>
</event>
<event>
 8    1  0.7685004E-052  0.1398947E+04  0.7818608E-02  0.8954581E-01
         -2   -1    0    0    0  501 -0.00000000000E+00  0.00000000000E+00  0.16492524937E+03  0.16492524939E+03  0.25500000000E-02 0. -1.
          2   -1    0    0  501    0  0.00000000000E+00 -0.00000000000E+00 -0.29665746334E+04  0.29665746334E+04  0.25500000000E-02 0.  1.
     200001    2    1    2    0    0  0.38894244345E+02  0.33071584276E+03 -0.15166706626E+04  0.16693695721E+04  0.61287775176E+03 0.  0.
    5000001    2    3    3    0    0 -0.13580167996E+03  0.14489997064E+03 -0.12819072153E+04  0.13083140632E+04  0.17018073242E+03 0.  0.
        -13    1    4    4    0    0 -0.10916810444E+03  0.64656641161E+02 -0.10793155623E+04  0.10867475560E+04  0.10566000000E+00 0. -1.
     200003    1    4    4    0    0 -0.26633575520E+02  0.80243329477E+02 -0.20259165296E+03  0.22156650721E+03  0.30000000000E+02 0. -1.
     200000    1    3    3    0    0  0.17469592430E+03  0.18581587212E+03 -0.23476344734E+03  0.36105550890E+03  0.10100000000E+03 0. -1.
    -200001    1    1    2    0    0 -0.38894244345E+02 -0.33071584276E+03 -0.12849787214E+04  0.14621303106E+04  0.61300000000E+03 0.  1.
<mgrwt>
<rscale>  0 0.13989468E+04</rscale>
<asrwt>0</asrwt>
<pdfrwt beam="1">  1        2 0.42379635E+00 0.13989468E+04</pdfrwt>
<pdfrwt beam="2">  1       -2 0.23560752E-01 0.13989468E+04</pdfrwt>
<totfact> 0.38554878E+01</totfact>
</mgrwt>
</event>
<event>
 8    1  0.7685004E-052  0.1438346E+04  0.7818608E-02  0.8926520E-01
         -2   -1    0    0    0  501 -0.00000000000E+00  0.00000000000E+00  0.72103923352E+03  0.72103923352E+03  0.25500000000E-02 0. -1.
          2   -1    0    0  501    0  0.00000000000E+00 -0.00000000000E+00 -0.71731166166E+03  0.71731166166E+03  0.25500000000E-02 0.  1.
     200001    2    1    2    0    0  0.22493672610E+03 -0.15301268743E+03  0.25980606928E+03  0.72046886441E+03  0.61446462687E+03 0.  0.
    5000001    2    3    3    0    0 -0.65545364381E+02  0.11115775067E+03  0.61971686120E+02  0.26935323796E+03  0.22816317975E+03 0.  0.
        -13    1    4    4    0    0  0.19301635660E+02 -0.16320817985E+02 -0.63997734083E+02  0.68808744870E+02  0.10566000000E+00 0. -1.
     200003    1    4    4    0    0 -0.84847000040E+02  0.12747856866E+03  0.12596942020E+03  0.20054449309E+03  0.30000000000E+02 0. -1.
     200000    1    3    3    0    0  0.29048209048E+03 -0.26417043811E+03  0.19783438316E+03  0.45111562645E+03  0.10100000000E+03 0. -1.
    -200001    1    1    2    0    0 -0.22493672610E+03  0.15301268743E+03 -0.25607849743E+03  0.71788203078E+03  0.61300000000E+03 0.  1.
<mgrwt>
<rscale>  0 0.14383461E+04</rscale>
<asrwt>0</asrwt>
<pdfrwt beam="1">  1        2 0.10247309E+00 0.14383461E+04</pdfrwt>
<pdfrwt beam="2">  1       -2 0.10300560E+00 0.14383461E+04</pdfrwt>
<totfact> 0.32681614E+01</totfact>
</mgrwt>
</event>
<event>
 8    1  0.7685004E-052  0.1501021E+04  0.7818608E-02  0.8883774E-01
         -2   -1    0    0    0  501 -0.00000000000E+00  0.00000000000E+00  0.38910463380E+03  0.38910463381E+03  0.25500000000E-02 0. -1.
          2   -1    0    0  501    0  0.00000000000E+00 -0.00000000000E+00 -0.14475951698E+04  0.14475951698E+04  0.25500000000E-02 0.  1.
     200001    2    1    2    0    0 -0.21046937960E+03 -0.77365035233E+02 -0.98162963530E+03  0.11794636919E+04  0.61421099894E+03 0.  0.
    5000001    2    3    3    0    0  0.10398870880E+02  0.23556273216E+03 -0.46981175871E+03  0.53226580064E+03  0.83581437002E+02 0.  0.
        -13    1    4    4    0    0  0.21040856458E+02  0.17304177658E+03 -0.27915586335E+03  0.32911119897E+03  0.10566000000E+00 0. -1.
     200003    1    4    4    0    0 -0.10641985578E+02  0.62520955581E+02 -0.19065589536E+03  0.20315460167E+03  0.30000000000E+02 0.  1.
     200000    1    3    3    0    0 -0.22086825048E+03 -0.31292776739E+03 -0.51181787659E+03  0.64719789127E+03  0.10100000000E+03 0.  1.
    -200001    1    1    2    0    0  0.21046937960E+03  0.77365035233E+02 -0.76860900669E+02  0.65723611167E+03  0.61300000000E+03 0. -1.
<mgrwt>
<rscale>  0 0.15010210E+04</rscale>
<asrwt>0</asrwt>
<pdfrwt beam="1">  1        2 0.20679931E+00 0.15010210E+04</pdfrwt>
<pdfrwt beam="2">  1       -2 0.55586377E-01 0.15010210E+04</pdfrwt>
<totfact> 0.45880605E+01</totfact>
</mgrwt>
</event>
<event>
 8    1  0.7685004E-052  0.1899092E+04  0.7818608E-02  0.8655309E-01
         -2   -1    0    0    0  501 -0.00000000000E+00  0.00000000000E+00  0.92752772057E+03  0.92752772058E+03  0.25500000000E-02 0. -1.
          2   -1    0    0  501    0  0.00000000000E+00 -0.00000000000E+00 -0.97208658648E+03  0.97208658649E+03  0.25500000000E-02 0.  1.
     200001    2    1    2    0    0 -0.71353641816E+03 -0.10491568095E+03  0.53385781702E+02  0.94803473911E+03  0.61300758944E+03 0.  0.
    5000001    2    3    3    0    0 -0.61695269077E+03  0.31753765304E+02  0.24883854638E+03  0.67161162655E+03  0.86617726225E+02 0.  0.
        -13    1    4    4    0    0 -0.49726194188E+03  0.28908084404E+02  0.22183188010E+03  0.54526554117E+03  0.10566000000E+00 0. -1.
     200003    1    4    4    0    0 -0.11969074889E+03  0.28456809001E+01  0.27006666275E+02  0.12634608539E+03  0.30000000000E+02 0.  1.
     200000    1    3    3    0    0 -0.96583727394E+02 -0.13666944626E+03 -0.19545276467E+03  0.27642311256E+03  0.10100000000E+03 0.  1.
    -200001    1    1    2    0    0  0.71353641816E+03  0.10491568095E+03 -0.97944647611E+02  0.95157956796E+03  0.61300000000E+03 0. -1.
<mgrwt>
<rscale>  0 0.18990916E+04</rscale>
<asrwt>0</asrwt>
<pdfrwt beam="1">  1        2 0.13886951E+00 0.18990916E+04</pdfrwt>
<pdfrwt beam="2">  1       -2 0.13250396E+00 0.18990916E+04</pdfrwt>
<totfact> 0.11368827E+01</totfact>
</mgrwt>
</event>
<event>
 8    1  0.7685004E-052  0.1589392E+04  0.7818608E-02  0.8827092E-01
         -2   -1    0    0    0  501 -0.00000000000E+00  0.00000000000E+00  0.38543891437E+03  0.38543891438E+03  0.25500000000E-02 0. -1.
          2   -1    0    0  501    0  0.00000000000E+00 -0.00000000000E+00 -0.16384996496E+04  0.16384996496E+04  0.25500000000E-02 0.  1.
     200001    2    1    2    0    0 -0.29460011439E+03  0.26089618341E+03 -0.22208491333E+03  0.76158513040E+03  0.61305314305E+03 0.  0.
    5000001    2    3    3    0    0  0.20073250911E+02  0.20837692677E+03  0.67378885210E+02  0.31912847737E+03  0.23125568509E+03 0.  0.
        -13    1    4    4    0    0 -0.24439581987E+02  0.20495027832E+03  0.12419807579E+03  0.24088811292E+03  0.10566000000E+00 0. -1.
     200003    1    4    4    0    0  0.44512832897E+02  0.34266484523E+01 -0.56819190581E+02  0.78240364457E+02  0.30000000000E+02 0. -1.
     200000    1    3    3    0    0 -0.31467336530E+03  0.52519256642E+02 -0.28946379854E+03  0.44245665303E+03  0.10100000000E+03 0.  1.
    -200001    1    1    2    0    0  0.29460011439E+03 -0.26089618341E+03 -0.10309758219E+04  0.12623534336E+04  0.61300000000E+03 0.  1.
<mgrwt>
<rscale>  0 0.15893917E+04</rscale>
<asrwt>0</asrwt>
<pdfrwt beam="1">  1        2 0.23407138E+00 0.15893917E+04</pdfrwt>
<pdfrwt beam="2">  1       -2 0.55062703E-01 0.15893917E+04</pdfrwt>
<totfact> 0.36832008E+01</totfact>
</mgrwt>
</event>
<event>
 8    1  0.7685004E-052  0.1302538E+04  0.7818608E-02  0.9027555E-01
          2   -1    0    0  501    0  0.00000000000E+00  0.00000000000E+00  0.11117733873E+04  0.11117733873E+04  0.25500000000E-02 0.  1.
         -2   -1    0    0    0  501 -0.00000000000E+00 -0.00000000000E+00 -0.38150881246E+03  0.38150881247E+03  0.25500000000E-02 0. -1.
     200001    2    1    2    0    0 -0.29896226958E+02 -0.43685390392E+02  0.12031516969E+03  0.62690498716E+03  0.61296975875E+03 0.  0.
    5000001    2    3    3    0    0  0.26460105040E+03 -0.88585842979E+02 -0.40847813720E+01  0.28864318790E+03  0.73736266761E+02 0.  0.
        -13    1    4    4    0    0  0.52127919348E+02 -0.72692809067E+01 -0.24908054279E+02  0.58228727896E+02  0.10566000000E+00 0. -1.
     200003    1    4    4    0    0  0.21247313105E+03 -0.81316562072E+02  0.20823272907E+02  0.23041446001E+03  0.30000000000E+02 0. -1.
     200000    1    3    3    0    0 -0.29449727735E+03  0.44900452587E+02  0.12439995106E+03  0.33826179926E+03  0.10100000000E+03 0.  1.
    -200001    1    1    2    0    0  0.29896226958E+02  0.43685390392E+02  0.60994940517E+03  0.86637721264E+03  0.61300000000E+03 0.  1.
<mgrwt>
<rscale>  0 0.13025381E+04</rscale>
<asrwt>0</asrwt>
<pdfrwt beam="1">  1        2 0.15882477E+00 0.13025381E+04</pdfrwt>
<pdfrwt beam="2">  1       -2 0.54501258E-01 0.13025381E+04</pdfrwt>
<totfact> 0.74706131E+01</totfact>
</mgrwt>
</event>
<event>
 8    1  0.7685004E-052  0.1317777E+04  0.7818608E-02  0.9015585E-01
          2   -1    0    0  501    0  0.00000000000E+00  0.00000000000E+00  0.10545297080E+04  0.10545297080E+04  0.25500000000E-02 0.  1.
         -2   -1    0    0    0  501 -0.00000000000E+00 -0.00000000000E+00 -0.41168511078E+03  0.41168511079E+03  0.25500000000E-02 0. -1.
     200001    2    1    2    0    0 -0.81430699715E+02  0.22105666242E+03  0.38042489868E+03  0.75901604546E+03  0.61309481068E+03 0.  0.
    5000001    2    3    3    0    0 -0.29453946637E+03  0.12741616995E+02  0.31270899344E+03  0.43715124714E+03  0.79990325943E+02 0.  0.
        -13    1    4    4    0    0 -0.56888727460E+02 -0.14021771275E+02  0.98926546032E+02  0.11497569333E+03  0.10566000000E+00 0. -1.
     200003    1    4    4    0    0 -0.23765073891E+03  0.26763388271E+02  0.21378244741E+03  0.32217555381E+03  0.30000000000E+02 0. -1.
     200000    1    3    3    0    0  0.21310876665E+03  0.20831504543E+03  0.67715905235E+02  0.32186479832E+03  0.10100000000E+03 0. -1.
    -200001    1    1    2    0    0  0.81430699715E+02 -0.22105666242E+03  0.26241969859E+03  0.70719877338E+03  0.61300000000E+03 0. -1.
<mgrwt>
<rscale>  0 0.13177772E+04</rscale>
<asrwt>0</asrwt>
<pdfrwt beam="1">  1        2 0.15064710E+00 0.13177772E+04</pdfrwt>
<pdfrwt beam="2">  1       -2 0.58812159E-01 0.13177772E+04</pdfrwt>
<totfact> 0.68857708E+01</totfact>
</mgrwt>
</event>
<event>
 8    1  0.7685004E-052  0.1530656E+04  0.7818608E-02  0.8864319E-01
         -2   -1    0    0    0  501 -0.00000000000E+00  0.00000000000E+00  0.27514123913E+03  0.27514123914E+03  0.25500000000E-02 0. -1.
          2   -1    0    0  501    0  0.00000000000E+00 -0.00000000000E+00 -0.21288228723E+04  0.21288228723E+04  0.25500000000E-02 0.  1.
     200001    2    1    2    0    0  0.40281854711E+03  0.12693981800E+03 -0.64602877112E+03  0.98531301462E+03  0.61246392904E+03 0.  0.
    5000001    2    3    3    0    0  0.53222740629E+03  0.48160882635E+02 -0.47360873000E+03  0.73454929302E+03  0.17225548504E+03 0.  0.
        -13    1    4    4    0    0  0.12049133231E+03  0.47160042454E+02 -0.39043432955E+02  0.13515410311E+03  0.10566000000E+00 0. -1.
     200003    1    4    4    0    0  0.41173607398E+03  0.10008401808E+01 -0.43456529704E+03  0.59939518991E+03  0.30000000000E+02 0. -1.
     200000    1    3    3    0    0 -0.12940885918E+03  0.78778935364E+02 -0.17242004112E+03  0.25076372160E+03  0.10100000000E+03 0.  1.
    -200001    1    1    2    0    0 -0.40281854711E+03 -0.12693981800E+03 -0.12076528621E+04  0.14186510968E+04  0.61300000000E+03 0. -1.
<mgrwt>
<rscale>  0 0.15306560E+04</rscale>
<asrwt>0</asrwt>
<pdfrwt beam="1">  1        2 0.30411755E+00 0.15306560E+04</pdfrwt>
<pdfrwt beam="2">  1       -2 0.39305892E-01 0.15306560E+04</pdfrwt>
<totfact> 0.40686994E+01</totfact>
</mgrwt>
</event>
<event>
 8    1  0.7685004E-052  0.1265364E+04  0.7818608E-02  0.9057492E-01
          2   -1    0    0  501    0  0.00000000000E+00  0.00000000000E+00  0.47484993121E+03  0.47484993122E+03  0.25500000000E-02 0.  1.
         -2   -1    0    0    0  501 -0.00000000000E+00 -0.00000000000E+00 -0.84297421197E+03  0.84297421197E+03  0.25500000000E-02 0. -1.
     200001    2    1    2    0    0 -0.11403080751E+03  0.68636109534E+02 -0.89434561696E+02  0.63141981621E+03  0.61071965981E+03 0.  0.
    5000001    2    3    3    0    0  0.14051958151E+03  0.16614072546E+03 -0.21652465211E+03  0.31415661040E+03  0.66805369877E+02 0.  0.
        -13    1    4    4    0    0  0.70358593907E+02  0.11799330975E+03 -0.12880530572E+03  0.18831773902E+03  0.10566000000E+00 0. -1.
     200003    1    4    4    0    0  0.70160987599E+02  0.48147415711E+02 -0.87719346393E+02  0.12583887139E+03  0.30000000000E+02 0.  1.
     200000    1    3    3    0    0 -0.25455038901E+03 -0.97504615930E+02  0.12709009042E+03  0.31726320580E+03  0.10100000000E+03 0.  1.
    -200001    1    1    2    0    0  0.11403080751E+03 -0.68636109534E+02 -0.27868971906E+03  0.68640432698E+03  0.61300000000E+03 0. -1.
<mgrwt>
<rscale>  0 0.12653636E+04</rscale>
<asrwt>0</asrwt>
<pdfrwt beam="1">  1        2 0.67835705E-01 0.12653636E+04</pdfrwt>
<pdfrwt beam="2">  1       -2 0.12042489E+00 0.12653636E+04</pdfrwt>
<totfact> 0.36872141E+01</totfact>
</mgrwt>
</event>
<event>
 8    1  0.7685004E-052  0.1656041E+04  0.7818608E-02  0.8786840E-01
          2   -1    0    0  501    0  0.00000000000E+00  0.00000000000E+00  0.14881422486E+04  0.14881422486E+04  0.25500000000E-02 0.  1.
         -2   -1    0    0    0  501 -0.00000000000E+00 -0.00000000000E+00 -0.46072094613E+03  0.46072094614E+03  0.25500000000E-02 0. -1.
     200001    2    1    2    0    0 -0.49032528208E+03  0.26313337060E+03  0.49840831534E+03  0.96637564084E+03  0.61303586962E+03 0.  0.
    5000001    2    3    3    0    0  0.10801295931E+03  0.38710458903E+02 -0.12598020099E+02  0.14193475802E+03  0.82592169217E+02 0.  0.
        -13    1    4    4    0    0  0.17993496634E+02 -0.12209968395E+02 -0.25460455940E+02  0.33482760192E+02  0.10566000000E+00 0. -1.
     200003    1    4    4    0    0  0.90019462678E+02  0.50920427299E+02  0.12862435842E+02  0.10845199783E+03  0.30000000000E+02 0. -1.
     200000    1    3    3    0    0 -0.59833824140E+03  0.22442291170E+03  0.51100633544E+03  0.82444088282E+03  0.10100000000E+03 0.  1.
    -200001    1    1    2    0    0  0.49032528208E+03 -0.26313337060E+03  0.52901298708E+03  0.98248755385E+03  0.61300000000E+03 0.  1.
<mgrwt>
<rscale>  0 0.16560414E+04</rscale>
<asrwt>0</asrwt>
<pdfrwt beam="1">  1        2 0.21259175E+00 0.16560414E+04</pdfrwt>
<pdfrwt beam="2">  1       -2 0.65817279E-01 0.16560414E+04</pdfrwt>
<totfact> 0.30166974E+01</totfact>
</mgrwt>
</event>
<event>
 8    1  0.7685004E-052  0.1532916E+04  0.7818608E-02  0.8862854E-01
         -2   -1    0    0    0  501 -0.00000000000E+00  0.00000000000E+00  0.21186273120E+03  0.21186273121E+03  0.25500000000E-02 0. -1.
          2   -1    0    0  501    0  0.00000000000E+00 -0.00000000000E+00 -0.27728230335E+04  0.27728230335E+04  0.25500000000E-02 0.  1.
     200001    2    1    2    0    0  0.17763451293E+03 -0.13618950526E+03 -0.20632826962E+04  0.21639826508E+04  0.61284894312E+03 0.  0.
    5000001    2    3    3    0    0  0.22512286258E+03 -0.25143040146E+03 -0.62411539443E+03  0.71590146180E+03  0.95379910931E+02 0.  0.
        -13    1    4    4    0    0  0.15259580034E+03 -0.20707800893E+03 -0.50255164813E+03  0.56455730468E+03  0.10566000000E+00 0. -1.
     200003    1    4    4    0    0  0.72527062239E+02 -0.44352392523E+02 -0.12156374630E+03  0.15134415712E+03  0.30000000000E+02 0. -1.
     200000    1    3    3    0    0 -0.47488349650E+02  0.11524089619E+03 -0.14391673018E+04  0.14480811890E+04  0.10100000000E+03 0.  1.
    -200001    1    1    2    0    0 -0.17763451293E+03  0.13618950526E+03 -0.49767760609E+03  0.82070311388E+03  0.61300000000E+03 0.  1.
<mgrwt>
<rscale>  0 0.15329160E+04</rscale>
<asrwt>0</asrwt>
<pdfrwt beam="1">  1        2 0.39611755E+00 0.15329160E+04</pdfrwt>
<pdfrwt beam="2">  1       -2 0.30266106E-01 0.15329160E+04</pdfrwt>
<totfact> 0.30745083E+01</totfact>
</mgrwt>
</event>
<event>
 8    1  0.7685004E-052  0.1453633E+04  0.7818608E-02  0.8915885E-01
          2   -1    0    0  501    0  0.00000000000E+00  0.00000000000E+00  0.93563848560E+03  0.93563848560E+03  0.25500000000E-02 0.  1.
         -2   -1    0    0    0  501 -0.00000000000E+00 -0.00000000000E+00 -0.56460113141E+03  0.56460113141E+03  0.25500000000E-02 0. -1.
     200001    2    1    2    0    0  0.35185565547E+03 -0.85497979827E+02  0.34333594580E+02  0.71267963290E+03  0.61287939809E+03 0.  0.
    5000001    2    3    3    0    0  0.35572374536E+03  0.16934861780E+03  0.12948075099E+03  0.42248016390E+03  0.80659076671E+02 0.  0.
        -13    1    4    4    0    0  0.20006155845E+03  0.10539249406E+03  0.40347570749E+02  0.22969576096E+03  0.10566000000E+00 0. -1.
     200003    1    4    4    0    0  0.15566218690E+03  0.63956123735E+02  0.89133180237E+02  0.19278440293E+03  0.30000000000E+02 0. -1.
     200000    1    3    3    0    0 -0.38680898897E+01 -0.25484659762E+03 -0.95147156407E+02  0.29019946901E+03  0.10100000000E+03 0.  1.
    -200001    1    1    2    0    0 -0.35185565547E+03  0.85497979827E+02  0.33670375961E+03  0.78755998411E+03  0.61300000000E+03 0.  1.
<mgrwt>
<rscale>  0 0.14536334E+04</rscale>
<asrwt>0</asrwt>
<pdfrwt beam="1">  1        2 0.13366264E+00 0.14536334E+04</pdfrwt>
<pdfrwt beam="2">  1       -2 0.80657305E-01 0.14536334E+04</pdfrwt>
<totfact> 0.40646652E+01</totfact>
</mgrwt>
</event>
<event>
 8    1  0.7685004E-052  0.1574682E+04  0.7818608E-02  0.8836254E-01
         -2   -1    0    0    0  501 -0.00000000000E+00  0.00000000000E+00  0.12593328690E+04  0.12593328690E+04  0.25500000000E-02 0. -1.
          2   -1    0    0  501    0  0.00000000000E+00 -0.00000000000E+00 -0.49224947873E+03  0.49224947874E+03  0.25500000000E-02 0.  1.
     200001    2    1    2    0    0  0.29250829217E+03 -0.37386058807E+03  0.53506752797E+03  0.94230291472E+03  0.61343678020E+03 0.  0.
    5000001    2    3    3    0    0  0.41881954030E+03 -0.40149746254E+03  0.50923432466E+03  0.77621052289E+03  0.81075018776E+02 0.  0.
        -13    1    4    4    0    0  0.21633316187E+03 -0.22841208106E+03  0.31482592067E+03  0.44507020478E+03  0.10566000000E+00 0. -1.
     200003    1    4    4    0    0  0.20248637843E+03 -0.17308538147E+03  0.19440840399E+03  0.33114031810E+03  0.30000000000E+02 0.  1.
     200000    1    3    3    0    0 -0.12631124812E+03  0.27636874463E+02  0.25833203311E+02  0.16609239184E+03  0.10100000000E+03 0.  1.
    -200001    1    1    2    0    0 -0.29250829217E+03  0.37386058807E+03  0.23201586225E+03  0.80927943298E+03  0.61300000000E+03 0. -1.
<mgrwt>
<rscale>  0 0.15746821E+04</rscale>
<asrwt>0</asrwt>
<pdfrwt beam="1">  1        2 0.70321355E-01 0.15746821E+04</pdfrwt>
<pdfrwt beam="2">  1       -2 0.17990469E+00 0.15746821E+04</pdfrwt>
<totfact> 0.11941646E+01</totfact>
</mgrwt>
</event>
<event>
 8    1  0.7685004E-052  0.2450440E+04  0.7818608E-02  0.8420857E-01
          2   -1    0    0  501    0  0.00000000000E+00  0.00000000000E+00  0.16939764970E+04  0.16939764970E+04  0.25500000000E-02 0.  1.
         -2   -1    0    0    0  501 -0.00000000000E+00 -0.00000000000E+00 -0.88617793638E+03  0.88617793638E+03  0.25500000000E-02 0. -1.
     200001    2    1    2    0    0  0.48489374977E+03  0.29224980593E+03 -0.54074894860E+03  0.99431671083E+03  0.61296361914E+03 0.  0.
    5000001    2    3    3    0    0  0.17205522618E+03  0.39508693497E+03 -0.41719496442E+03  0.62837955235E+03  0.18738339424E+03 0.  0.
        -13    1    4    4    0    0  0.14136821537E+03  0.13486618764E+03 -0.24517042707E+03  0.31350025576E+03  0.10566000000E+00 0. -1.
     200003    1    4    4    0    0  0.30687010809E+02  0.26022074733E+03 -0.17202453734E+03  0.31487929659E+03  0.30000000000E+02 0. -1.
     200000    1    3    3    0    0  0.31283852358E+03 -0.10283712904E+03 -0.12355398418E+03  0.36593715848E+03  0.10100000000E+03 0.  1.
    -200001    1    1    2    0    0 -0.48489374977E+03 -0.29224980593E+03  0.13485475092E+04  0.15858377225E+04  0.61300000000E+03 0.  1.
<mgrwt>
<rscale>  0 0.24504404E+04</rscale>
<asrwt>0</asrwt>
<pdfrwt beam="1">  1        2 0.24199664E+00 0.24504404E+04</pdfrwt>
<pdfrwt beam="2">  1       -2 0.12659685E+00 0.24504404E+04</pdfrwt>
<totfact> 0.48341928E+00</totfact>
</mgrwt>
</event>
<event>
 8    1  0.7685004E-052  0.1524100E+04  0.7818608E-02  0.8868583E-01
         -2   -1    0    0    0  501 -0.00000000000E+00  0.00000000000E+00  0.40769101005E+03  0.40769101005E+03  0.25500000000E-02 0.  1.
          2   -1    0    0  501    0  0.00000000000E+00 -0.00000000000E+00 -0.14244127152E+04  0.14244127152E+04  0.25500000000E-02 0. -1.
     200001    2    1    2    0    0 -0.42771940530E+02  0.15145832880E+03 -0.10184134097E+04  0.11992206981E+04  0.61334765457E+03 0.  0.
    5000001    2    3    3    0    0 -0.30082741410E+03  0.16851654883E+03 -0.55061279398E+03  0.65523354163E+03  0.85214933362E+02 0.  0.
        -13    1    4    4    0    0 -0.13444687289E+03  0.96256938061E+02 -0.20144760527E+03  0.26061947085E+03  0.10566000000E+00 0. -1.
     200003    1    4    4    0    0 -0.16638054122E+03  0.72259610767E+02 -0.34916518871E+03  0.39461407077E+03  0.30000000000E+02 0. -1.
     200000    1    3    3    0    0  0.25805547357E+03 -0.17058220027E+02 -0.46780061575E+03  0.54398715647E+03  0.10100000000E+03 0.  1.
    -200001    1    1    2    0    0  0.42771940530E+02 -0.15145832880E+03  0.16917045318E+01  0.63288302721E+03  0.61300000000E+03 0.  1.
<mgrwt>
<rscale>  0 0.15241001E+04</rscale>
<asrwt>0</asrwt>
<pdfrwt beam="1">  1        2 0.20348753E+00 0.15241001E+04</pdfrwt>
<pdfrwt beam="2">  1       -2 0.58241573E-01 0.15241001E+04</pdfrwt>
<totfact> 0.42754872E+01</totfact>
</mgrwt>
</event>
<event>
 8    1  0.7685004E-052  0.1359555E+04  0.7818608E-02  0.8983626E-01
          2   -1    0    0  501    0  0.00000000000E+00  0.00000000000E+00  0.23115163199E+04  0.23115163199E+04  0.25500000000E-02 0.  1.
         -2   -1    0    0    0  501 -0.00000000000E+00 -0.00000000000E+00 -0.19991105192E+03  0.19991105194E+03  0.25500000000E-02 0. -1.
     200001    2    1    2    0    0  0.25055602021E+03 -0.11588746314E+03  0.12536732642E+04  0.14214619841E+04  0.61045007616E+03 0.  0.
    5000001    2    3    3    0    0 -0.25217325525E+02 -0.27983047294E+03  0.33946884698E+03  0.44734753233E+03  0.77069510914E+02 0.  0.
        -13    1    4    4    0    0 -0.44405689042E+02 -0.16665456844E+03  0.20974874707E+03  0.27155139194E+03  0.10566000000E+00 0. -1.
     200003    1    4    4    0    0  0.19188363517E+02 -0.11317590450E+03  0.12972009991E+03  0.17579614039E+03  0.30000000000E+02 0. -1.
     200000    1    3    3    0    0  0.27577334574E+03  0.16394300981E+03  0.91420441722E+03  0.97411445177E+03  0.10100000000E+03 0.  1.
    -200001    1    1    2    0    0 -0.25055602021E+03  0.11588746314E+03  0.85793200378E+03  0.10899653877E+04  0.61300000000E+03 0.  1.
<mgrwt>
<rscale>  0 0.13595553E+04</rscale>
<asrwt>0</asrwt>
<pdfrwt beam="1">  1        2 0.33021662E+00 0.13595553E+04</pdfrwt>
<pdfrwt beam="2">  1       -2 0.28558722E-01 0.13595553E+04</pdfrwt>
<totfact> 0.60849788E+01</totfact>
</mgrwt>
</event>
<event>
 8    1  0.7685004E-052  0.1703631E+04  0.7818608E-02  0.8759296E-01
         -2   -1    0    0    0  501 -0.00000000000E+00  0.00000000000E+00  0.30660034626E+03  0.30660034627E+03  0.25500000000E-02 0. -1.
          2   -1    0    0  501    0  0.00000000000E+00 -0.00000000000E+00 -0.23665654912E+04  0.23665654912E+04  0.25500000000E-02 0.  1.
     200001    2    1    2    0    0  0.13834086068E+03 -0.31258813454E+03 -0.27349344259E+03  0.75376497291E+03  0.61360690646E+03 0.  0.
    5000001    2    3    3    0    0  0.25555540402E+03 -0.38219483990E+03 -0.23645644297E+03  0.58010702768E+03  0.26311794688E+03 0.  0.
        -13    1    4    4    0    0  0.12187526461E+03 -0.45724749044E+02 -0.16447085714E+03  0.20974986725E+03  0.10566000000E+00 0. -1.
     200003    1    4    4    0    0  0.13368013941E+03 -0.33647009086E+03 -0.71985585829E+02  0.37035716043E+03  0.30000000000E+02 0. -1.
     200000    1    3    3    0    0 -0.11721454334E+03  0.69606705359E+02 -0.37036999618E+02  0.17365794523E+03  0.10100000000E+03 0. -1.
    -200001    1    1    2    0    0 -0.13834086068E+03  0.31258813454E+03 -0.17864717024E+04  0.19194008646E+04  0.61300000000E+03 0.  1.
<mgrwt>
<rscale>  0 0.17036312E+04</rscale>
<asrwt>0</asrwt>
<pdfrwt beam="1">  1        2 0.33808077E+00 0.17036312E+04</pdfrwt>
<pdfrwt beam="2">  1       -2 0.43800051E-01 0.17036312E+04</pdfrwt>
<totfact> 0.24426916E+01</totfact>
</mgrwt>
</event>
<event>
 8    1  0.7685004E-052  0.1300958E+04  0.7818608E-02  0.9028806E-01
         -2   -1    0    0    0  501 -0.00000000000E+00  0.00000000000E+00  0.70401218068E+03  0.70401218068E+03  0.25500000000E-02 0. -1.
          2   -1    0    0  501    0  0.00000000000E+00 -0.00000000000E+00 -0.60101607381E+03  0.60101607381E+03  0.25500000000E-02 0.  1.
     200001    2    1    2    0    0  0.79685189421E+02  0.15189556040E+03  0.18713643353E+03  0.66294524954E+03  0.61241682574E+03 0.  0.
    5000001    2    3    3    0    0 -0.13918619609E+03 -0.15507629945E+03 -0.14209089222E+02  0.22376712433E+03  0.80301755165E+02 0.  0.
        -13    1    4    4    0    0 -0.12442447561E+03 -0.11105294522E+03 -0.35314916015E+00  0.16677632521E+03  0.10566000000E+00 0. -1.
     200003    1    4    4    0    0 -0.14761720475E+02 -0.44023354230E+02 -0.13855940062E+02  0.56990799117E+02  0.30000000000E+02 0.  1.
     200000    1    3    3    0    0  0.21887138551E+03  0.30697185985E+03  0.20134552275E+03  0.43917812521E+03  0.10100000000E+03 0. -1.
    -200001    1    1    2    0    0 -0.79685189421E+02 -0.15189556040E+03 -0.84140326662E+02  0.64208300496E+03  0.61300000000E+03 0.  1.
<mgrwt>
<rscale>  0 0.13009576E+04</rscale>
<asrwt>0</asrwt>
<pdfrwt beam="1">  1        2 0.85859439E-01 0.13009576E+04</pdfrwt>
<pdfrwt beam="2">  1       -2 0.10057317E+00 0.13009576E+04</pdfrwt>
<totfact> 0.43315901E+01</totfact>
</mgrwt>
</event>
<event>
 8    1  0.7685004E-052  0.1524660E+04  0.7818608E-02  0.8868218E-01
         -2   -1    0    0    0  501 -0.00000000000E+00  0.00000000000E+00  0.86452546139E+03  0.86452546139E+03  0.25500000000E-02 0. -1.
          2   -1    0    0  501    0  0.00000000000E+00 -0.00000000000E+00 -0.67221515307E+03  0.67221515307E+03  0.25500000000E-02 0.  1.
     200001    2    1    2    0    0 -0.34460941955E+03  0.25155910610E+03  0.24894112197E+03  0.78773214658E+03  0.61360623909E+03 0.  0.
    5000001    2    3    3    0    0 -0.10994554998E+03  0.33304322636E+03 -0.70790350752E+02  0.37043607880E+03  0.95946861005E+02 0.  0.
        -13    1    4    4    0    0 -0.82302811112E+02  0.18279228231E+03 -0.76687852687E+02  0.21463412846E+03  0.10566000000E+00 0. -1.
     200003    1    4    4    0    0 -0.27642738864E+02  0.15025094405E+03  0.58975019355E+01  0.15580195034E+03  0.30000000000E+02 0. -1.
     200000    1    3    3    0    0 -0.23466386957E+03 -0.81484120256E+02  0.31973147272E+03  0.41729606778E+03  0.10100000000E+03 0. -1.
    -200001    1    1    2    0    0  0.34460941955E+03 -0.25155910610E+03 -0.56630813644E+02  0.74900846788E+03  0.61300000000E+03 0.  1.
<mgrwt>
<rscale>  0 0.15246601E+04</rscale>
<asrwt>0</asrwt>
<pdfrwt beam="1">  1        2 0.96030737E-01 0.15246601E+04</pdfrwt>
<pdfrwt beam="2">  1       -2 0.12350364E+00 0.15246601E+04</pdfrwt>
<totfact> 0.22591746E+01</totfact>
</mgrwt>
</event>
<event>
 8    1  0.7685004E-052  0.1778579E+04  0.7818608E-02  0.8717775E-01
         -2   -1    0    0    0  501 -0.00000000000E+00  0.00000000000E+00  0.69643451729E+03  0.69643451730E+03  0.25500000000E-02 0. -1.
          2   -1    0    0  501    0  0.00000000000E+00 -0.00000000000E+00 -0.11355488328E+04  0.11355488328E+04  0.25500000000E-02 0.  1.
     200001    2    1    2    0    0 -0.34893026739E+03  0.50624542297E+03 -0.21814793512E+02  0.86868451236E+03  0.61327003597E+03 0.  0.
    5000001    2    3    3    0    0  0.13827440206E+03  0.28380677662E+02 -0.58511129955E+02  0.17783668118E+03  0.90978347508E+02 0.  0.
        -13    1    4    4    0    0  0.12565167404E+03  0.35357449061E+02 -0.61734741470E+02  0.14439418915E+03  0.10566000000E+00 0. -1.
     200003    1    4    4    0    0  0.12622728021E+02 -0.69767713987E+01  0.32236115145E+01  0.33442492028E+02  0.30000000000E+02 0.  1.
     200000    1    3    3    0    0 -0.48720466944E+03  0.47786474531E+03  0.36696336443E+02  0.69084783118E+03  0.10100000000E+03 0. -1.
    -200001    1    1    2    0    0  0.34893026739E+03 -0.50624542297E+03 -0.41729952203E+03  0.96329883778E+03  0.61300000000E+03 0.  1.
<mgrwt>
<rscale>  0 0.17785785E+04</rscale>
<asrwt>0</asrwt>
<pdfrwt beam="1">  1        2 0.16222126E+00 0.17785785E+04</pdfrwt>
<pdfrwt beam="2">  1       -2 0.99490645E-01 0.17785785E+04</pdfrwt>
<totfact> 0.18468466E+01</totfact>
</mgrwt>
</event>
<event>
 8    1  0.7685004E-052  0.1889416E+04  0.7818608E-02  0.8660143E-01
          2   -1    0    0  501    0  0.00000000000E+00  0.00000000000E+00  0.26852299251E+04  0.26852299251E+04  0.25500000000E-02 0.  1.
         -2   -1    0    0    0  501 -0.00000000000E+00 -0.00000000000E+00 -0.33236370917E+03  0.33236370918E+03  0.25500000000E-02 0. -1.
     200001    2    1    2    0    0 -0.57490434411E+02  0.10702290679E+03  0.23080669141E+04  0.23910674736E+04  0.61259426257E+03 0.  0.
    5000001    2    3    3    0    0 -0.17316050227E+03  0.27817710625E+03  0.18230159304E+04  0.18542725580E+04  0.87020542745E+02 0.  0.
        -13    1    4    4    0    0 -0.12173316696E+03  0.21695027221E+03  0.14814509161E+04  0.15021928014E+04  0.10566000000E+00 0. -1.
     200003    1    4    4    0    0 -0.51427335302E+02  0.61226834044E+02  0.34156501431E+03  0.35207975663E+03  0.30000000000E+02 0. -1.
     200000    1    3    3    0    0  0.11567006786E+03 -0.17115419946E+03  0.48505098372E+03  0.53679491558E+03  0.10100000000E+03 0.  1.
    -200001    1    1    2    0    0  0.57490434411E+02 -0.10702290679E+03  0.44799301837E+02  0.62652616072E+03  0.61300000000E+03 0. -1.
<mgrwt>
<rscale>  0 0.18894158E+04</rscale>
<asrwt>0</asrwt>
<pdfrwt beam="1">  1        2 0.38360425E+00 0.18894158E+04</pdfrwt>
<pdfrwt beam="2">  1       -2 0.47480533E-01 0.18894158E+04</pdfrwt>
<totfact> 0.13889113E+01</totfact>
</mgrwt>
</event>
<event>
 8    1  0.7685004E-052  0.2458528E+04  0.7818608E-02  0.8417911E-01
         -2   -1    0    0    0  501 -0.00000000000E+00  0.00000000000E+00  0.73939162807E+03  0.73939162807E+03  0.25500000000E-02 0. -1.
          2   -1    0    0  501    0  0.00000000000E+00 -0.00000000000E+00 -0.20436933983E+04  0.20436933983E+04  0.25500000000E-02 0.  1.
     200001    2    1    2    0    0  0.35125886970E+03 -0.83022737067E+03 -0.12951965497E+04  0.16928959668E+04  0.61294565141E+03 0.  0.
    5000001    2    3    3    0    0  0.19540943476E+03 -0.83710043582E+03 -0.12143862380E+04  0.14902445620E+04  0.84693167947E+02 0.  0.
        -13    1    4    4    0    0  0.41481083408E+02 -0.33046527655E+03 -0.44769422986E+03  0.55799472569E+03  0.10566000000E+00 0. -1.
     200003    1    4    4    0    0  0.15392835135E+03 -0.50663515926E+03 -0.76669200815E+03  0.93224983632E+03  0.30000000000E+02 0. -1.
     200000    1    3    3    0    0  0.15584943494E+03  0.68730651451E+01 -0.80810311677E+02  0.20265140481E+03  0.10100000000E+03 0. -1.
    -200001    1    1    2    0    0 -0.35125886970E+03  0.83022737067E+03 -0.91052205580E+01  0.10901890596E+04  0.61300000000E+03 0. -1.
<mgrwt>
<rscale>  0 0.24585278E+04</rscale>
<asrwt>0</asrwt>
<pdfrwt beam="1">  1        2 0.29195620E+00 0.24585278E+04</pdfrwt>
<pdfrwt beam="2">  1       -2 0.10562738E+00 0.24585278E+04</pdfrwt>
<totfact> 0.49684610E+00</totfact>
</mgrwt>
</event>
<event>
 8    1  0.7685004E-052  0.1533320E+04  0.7818608E-02  0.8862593E-01
         -2   -1    0    0    0  501 -0.00000000000E+00  0.00000000000E+00  0.21455428131E+04  0.21455428131E+04  0.25500000000E-02 0. -1.
          2   -1    0    0  501    0  0.00000000000E+00 -0.00000000000E+00 -0.27394805914E+03  0.27394805915E+03  0.25500000000E-02 0.  1.
     200001    2    1    2    0    0 -0.44682273071E+03  0.66913046979E+02  0.79821463832E+03  0.11034202886E+04  0.61340183883E+03 0.  0.
    5000001    2    3    3    0    0  0.10216021163E+03  0.13460802716E+03  0.26036420397E+03  0.32531427327E+03  0.97384946844E+02 0.  0.
        -13    1    4    4    0    0  0.46919432005E+02  0.10492718244E+03  0.10745957296E+03  0.15734903145E+03  0.10566000000E+00 0. -1.
     200003    1    4    4    0    0  0.55240779625E+02  0.29680844720E+02  0.15290463100E+03  0.16796524182E+03  0.30000000000E+02 0. -1.
     200000    1    3    3    0    0 -0.54898294234E+03 -0.67694980176E+02  0.53785043435E+03  0.77810601530E+03  0.10100000000E+03 0.  1.
    -200001    1    1    2    0    0  0.44682273071E+03 -0.66913046979E+02  0.10733801156E+04  0.13160705837E+04  0.61300000000E+03 0. -1.
<mgrwt>
<rscale>  0 0.15333197E+04</rscale>
<asrwt>0</asrwt>
<pdfrwt beam="1">  1        2 0.39135437E-01 0.15333197E+04</pdfrwt>
<pdfrwt beam="2">  1       -2 0.30650611E+00 0.15333197E+04</pdfrwt>
<totfact> 0.37104274E+00</totfact>
</mgrwt>
</event>
<event>
 8    1  0.7685004E-052  0.1645309E+04  0.7818608E-02  0.8793187E-01
         -2   -1    0    0    0  501 -0.00000000000E+00  0.00000000000E+00  0.16295774688E+03  0.16295774690E+03  0.25500000000E-02 0. -1.
          2   -1    0    0  501    0  0.00000000000E+00 -0.00000000000E+00 -0.41529803514E+04  0.41529803514E+04  0.25500000000E-02 0.  1.
     200001    2    1    2    0    0  0.48505460371E+03 -0.25042999920E+03 -0.18438000538E+04  0.20181057741E+04  0.61250234597E+03 0.  0.
    5000001    2    3    3    0    0 -0.95334880389E+02 -0.13855164636E+03 -0.72000515608E+03  0.74433786300E+03  0.85709575869E+02 0.  0.
        -13    1    4    4    0    0 -0.33298086620E+01 -0.58312167356E+02 -0.31145752034E+03  0.31688672208E+03  0.10566000000E+00 0. -1.
     200003    1    4    4    0    0 -0.92005071727E+02 -0.80239479000E+02 -0.40854763573E+03  0.42745114092E+03  0.30000000000E+02 0. -1.
     200000    1    3    3    0    0  0.58038948410E+03 -0.11187835284E+03 -0.11237948977E+04  0.12737679111E+04  0.10100000000E+03 0. -1.
    -200001    1    1    2    0    0 -0.48505460371E+03  0.25042999920E+03 -0.21462225507E+04  0.22978323242E+04  0.61300000000E+03 0. -1.
<mgrwt>
<rscale>  0 0.16453089E+04</rscale>
<asrwt>0</asrwt>
<pdfrwt beam="1">  1        2 0.59328284E+00 0.16453089E+04</pdfrwt>
<pdfrwt beam="2">  1       -2 0.23279681E-01 0.16453089E+04</pdfrwt>
<totfact> 0.70579767E+00</totfact>
</mgrwt>
</event>
<event>
 8    1  0.7685004E-052  0.1489522E+04  0.7818608E-02  0.8891450E-01
         -2   -1    0    0    0  501 -0.00000000000E+00  0.00000000000E+00  0.49333909356E+03  0.49333909356E+03  0.25500000000E-02 0. -1.
          2   -1    0    0  501    0  0.00000000000E+00 -0.00000000000E+00 -0.11243163397E+04  0.11243163397E+04  0.25500000000E-02 0.  1.
     200001    2    1    2    0    0 -0.27049013461E+03 -0.19977909265E+03 -0.37992534837E+02  0.70088039728E+03  0.61376974494E+03 0.  0.
    5000001    2    3    3    0    0 -0.83497970321E+02  0.17513077359E+03 -0.13857782774E+03  0.25834014097E+03  0.99464140223E+02 0.  0.
        -13    1    4    4    0    0 -0.30855757604E+02  0.11586783463E+03 -0.12372483841E+03  0.17229416613E+03  0.10566000000E+00 0. -1.
     200003    1    4    4    0    0 -0.52642212717E+02  0.59262938953E+02 -0.14852989325E+02  0.86045974834E+02  0.30000000000E+02 0. -1.
     200000    1    3    3    0    0 -0.18699216428E+03 -0.37490986624E+03  0.10058529290E+03  0.44254025631E+03  0.10100000000E+03 0. -1.
    -200001    1    1    2    0    0  0.27049013461E+03  0.19977909265E+03 -0.59298471133E+03  0.91677503601E+03  0.61300000000E+03 0. -1.
<mgrwt>
<rscale>  0 0.14895223E+04</rscale>
<asrwt>0</asrwt>
<pdfrwt beam="1">  1        2 0.16061662E+00 0.14895223E+04</pdfrwt>
<pdfrwt beam="2">  1       -2 0.70477014E-01 0.14895223E+04</pdfrwt>
<totfact> 0.41940441E+01</totfact>
</mgrwt>
</event>
<event>
 8    1  0.7685004E-052  0.1524832E+04  0.7818608E-02  0.8868106E-01
          2   -1    0    0  501    0  0.00000000000E+00  0.00000000000E+00  0.13443799091E+04  0.13443799091E+04  0.25500000000E-02 0.  1.
         -2   -1    0    0    0  501 -0.00000000000E+00 -0.00000000000E+00 -0.43237620069E+03  0.43237620069E+03  0.25500000000E-02 0. -1.
     200001    2    1    2    0    0 -0.29060614548E+03  0.18153597435E+03  0.80133466988E+03  0.10658244127E+04  0.61354476924E+03 0.  0.
    5000001    2    3    3    0    0 -0.17611984671E+03  0.10886837691E+03  0.28090644473E+03  0.51861857408E+03  0.38364862934E+03 0.  0.
        -13    1    4    4    0    0 -0.27626888008E+03  0.13645118683E+03  0.13349243676E+03  0.33580301119E+03  0.10566000000E+00 0. -1.
     200003    1    4    4    0    0  0.10014903338E+03 -0.27582809913E+02  0.14741400797E+03  0.18281556289E+03  0.30000000000E+02 0. -1.
     200000    1    3    3    0    0 -0.11448629877E+03  0.72667597438E+02  0.52042822515E+03  0.54720583865E+03  0.10100000000E+03 0.  1.
    -200001    1    1    2    0    0  0.29060614548E+03 -0.18153597435E+03  0.11066903852E+03  0.71093169704E+03  0.61300000000E+03 0. -1.
<mgrwt>
<rscale>  0 0.15248316E+04</rscale>
<asrwt>0</asrwt>
<pdfrwt beam="1">  1        2 0.19205428E+00 0.15248316E+04</pdfrwt>
<pdfrwt beam="2">  1       -2 0.61768027E-01 0.15248316E+04</pdfrwt>
<totfact> 0.41738600E+01</totfact>
</mgrwt>
</event>
<event>
 8    1  0.7685004E-052  0.1374145E+04  0.7818608E-02  0.8972749E-01
          2   -1    0    0  501    0  0.00000000000E+00  0.00000000000E+00  0.78841259770E+03  0.78841259770E+03  0.25500000000E-02 0.  1.
         -2   -1    0    0    0  501 -0.00000000000E+00 -0.00000000000E+00 -0.59875869510E+03  0.59875869511E+03  0.25500000000E-02 0. -1.
     200001    2    1    2    0    0  0.40823455463E+01  0.19143835734E+03  0.33907477161E+03  0.72780727628E+03  0.61487106003E+03 0.  0.
    5000001    2    3    3    0    0  0.28481262445E+03  0.16030511298E+03  0.15591224887E+03  0.37634137732E+03  0.10250971973E+03 0.  0.
        -13    1    4    4    0    0  0.70298046762E+02  0.78334216077E+02  0.17959238756E+02  0.10677364004E+03  0.10566000000E+00 0. -1.
     200003    1    4    4    0    0  0.21451457769E+03  0.81970896899E+02  0.13795301012E+03  0.26956773728E+03  0.30000000000E+02 0. -1.
     200000    1    3    3    0    0 -0.28073027891E+03  0.31133244360E+02  0.18316252273E+03  0.35146589896E+03  0.10100000000E+03 0. -1.
    -200001    1    1    2    0    0 -0.40823455463E+01 -0.19143835734E+03 -0.14942086901E+03  0.65936401653E+03  0.61300000000E+03 0. -1.
<mgrwt>
<rscale>  0 0.13741454E+04</rscale>
<asrwt>0</asrwt>
<pdfrwt beam="1">  1        2 0.11263037E+00 0.13741454E+04</pdfrwt>
<pdfrwt beam="2">  1       -2 0.85536957E-01 0.13741454E+04</pdfrwt>
<totfact> 0.44940703E+01</totfact>
</mgrwt>
</event>
<event>
 8    1  0.7685004E-052  0.1262921E+04  0.7818608E-02  0.9059497E-01
          2   -1    0    0  501    0  0.00000000000E+00  0.00000000000E+00  0.31131564293E+03  0.31131564294E+03  0.25500000000E-02 0.  1.
         -2   -1    0    0    0  501 -0.00000000000E+00 -0.00000000000E+00 -0.12808304074E+04  0.12808304074E+04  0.25500000000E-02 0. -1.
     200001    2    1    2    0    0 -0.82073928472E+02  0.45379521041E+02 -0.33804110843E+03  0.70709045384E+03  0.61392970954E+03 0.  0.
    5000001    2    3    3    0    0 -0.25335807748E+03  0.49053763071E+02 -0.34293695569E+00  0.31518126184E+03  0.18094895167E+03 0.  0.
        -13    1    4    4    0    0 -0.25420224904E+03  0.29819374471E+02 -0.43062728241E+02  0.25954265206E+03  0.10566000000E+00 0. -1.
     200003    1    4    4    0    0  0.84417155802E+00  0.19234388599E+02  0.42719791286E+02  0.55638609777E+02  0.30000000000E+02 0. -1.
     200000    1    3    3    0    0  0.17128414901E+03 -0.36742420301E+01 -0.33769817148E+03  0.39190919200E+03  0.10100000000E+03 0. -1.
    -200001    1    1    2    0    0  0.82073928472E+02 -0.45379521041E+02 -0.63147365607E+03  0.88505559654E+03  0.61300000000E+03 0. -1.
<mgrwt>
<rscale>  0 0.12629213E+04</rscale>
<asrwt>0</asrwt>
<pdfrwt beam="1">  1        2 0.44473664E-01 0.12629213E+04</pdfrwt>
<pdfrwt beam="2">  1       -2 0.18297577E+00 0.12629213E+04</pdfrwt>
<totfact> 0.19456616E+01</totfact>
</mgrwt>
</event>
<event>
 8    1  0.7685004E-052  0.1862219E+04  0.7818608E-02  0.8673894E-01
          2   -1    0    0  501    0  0.00000000000E+00  0.00000000000E+00  0.20391027762E+04  0.20391027762E+04  0.25500000000E-02 0.  1.
         -2   -1    0    0    0  501 -0.00000000000E+00 -0.00000000000E+00 -0.42516986241E+03  0.42516986242E+03  0.25500000000E-02 0. -1.
     200001    2    1    2    0    0 -0.30567028722E+03 -0.49706536390E+03  0.13197877220E+04  0.15682822958E+04  0.61413469843E+03 0.  0.
    5000001    2    3    3    0    0 -0.79202725100E+01 -0.37013722534E+03  0.30897039977E+03  0.50211228944E+03  0.13996337725E+03 0.  0.
        -13    1    4    4    0    0  0.74215794906E+01 -0.35075358263E+03  0.30137552910E+03  0.46250446082E+03  0.10566000000E+00 0. -1.
     200003    1    4    4    0    0 -0.15341852001E+02 -0.19383642709E+02  0.75948706674E+01  0.39607828619E+02  0.30000000000E+02 0. -1.
     200000    1    3    3    0    0 -0.29775001471E+03 -0.12692813856E+03  0.10108173222E+04  0.10661700064E+04  0.10100000000E+03 0. -1.
    -200001    1    1    2    0    0  0.30567028722E+03  0.49706536390E+03  0.29414519177E+03  0.89599034276E+03  0.61300000000E+03 0. -1.
<mgrwt>
<rscale>  0 0.18622192E+04</rscale>
<asrwt>0</asrwt>
<pdfrwt beam="1">  1        2 0.29130040E+00 0.18622192E+04</pdfrwt>
<pdfrwt beam="2">  1       -2 0.60738552E-01 0.18622192E+04</pdfrwt>
<totfact> 0.18212121E+01</totfact>
</mgrwt>
</event>
<event>
 8    1  0.7685004E-052  0.1579324E+04  0.7818608E-02  0.8833352E-01
          2   -1    0    0  501    0  0.00000000000E+00  0.00000000000E+00  0.10807658690E+04  0.10807658691E+04  0.25500000000E-02 0.  1.
         -2   -1    0    0    0  501 -0.00000000000E+00 -0.00000000000E+00 -0.57696670789E+03  0.57696670790E+03  0.25500000000E-02 0. -1.
     200001    2    1    2    0    0 -0.49344534468E+02  0.17967381679E+03 -0.23098305623E+03  0.68285234301E+03  0.61499315977E+03 0.  0.
    5000001    2    3    3    0    0  0.13075306316E+03  0.53774476464E+02  0.14088131776E+03  0.23926480801E+03  0.13195470742E+03 0.  0.
        -13    1    4    4    0    0  0.12404144486E+03  0.25572919265E+02  0.15025015656E+03  0.19650795137E+03  0.10566000000E+00 0. -1.
     200003    1    4    4    0    0  0.67116182994E+01  0.28201557198E+02 -0.93688387963E+01  0.42756856631E+02  0.30000000000E+02 0. -1.
     200000    1    3    3    0    0 -0.18009759763E+03  0.12589934033E+03 -0.37186437400E+03  0.44358753501E+03  0.10100000000E+03 0. -1.
    -200001    1    1    2    0    0  0.49344534468E+02 -0.17967381679E+03  0.73478221739E+03  0.97488023394E+03  0.61300000000E+03 0.  1.
<mgrwt>
<rscale>  0 0.15793238E+04</rscale>
<asrwt>0</asrwt>
<pdfrwt beam="1">  1        2 0.15439512E+00 0.15793238E+04</pdfrwt>
<pdfrwt beam="2">  1       -2 0.82423817E-01 0.15793238E+04</pdfrwt>
<totfact> 0.31204053E+01</totfact>
</mgrwt>
</event>
<event>
 8    1  0.7685004E-052  0.1421766E+04  0.7818608E-02  0.8938212E-01
          2   -1    0    0  501    0  0.00000000000E+00  0.00000000000E+00  0.39948814779E+03  0.39948814780E+03  0.25500000000E-02 0.  1.
         -2   -1    0    0    0  501 -0.00000000000E+00 -0.00000000000E+00 -0.12650061659E+04  0.12650061659E+04  0.25500000000E-02 0. -1.
     200001    2    1    2    0    0 -0.19907024744E+01  0.35795578761E+03 -0.39045870870E+03  0.81033586458E+03  0.61322907746E+03 0.  0.
    5000001    2    3    3    0    0  0.59471163980E+02  0.30353803069E+03  0.73794463984E+02  0.32818354254E+03  0.81158235947E+02 0.  0.
        -13    1    4    4    0    0  0.72433317682E+01  0.13231326211E+03  0.71118981044E+00  0.13251332816E+03  0.10566000000E+00 0. -1.
     200003    1    4    4    0    0  0.52227832212E+02  0.17122476858E+03  0.73083274174E+02  0.19567021438E+03  0.30000000000E+02 0. -1.
     200000    1    3    3    0    0 -0.61461866455E+02  0.54417756922E+02 -0.46425317268E+03  0.48215232204E+03  0.10100000000E+03 0. -1.
    -200001    1    1    2    0    0  0.19907024744E+01 -0.35795578761E+03 -0.47505930944E+03  0.85415844915E+03  0.61300000000E+03 0.  1.
<mgrwt>
<rscale>  0 0.14217665E+04</rscale>
<asrwt>0</asrwt>
<pdfrwt beam="1">  1        2 0.57069736E-01 0.14217665E+04</pdfrwt>
<pdfrwt beam="2">  1       -2 0.18071516E+00 0.14217665E+04</pdfrwt>
<totfact> 0.15097611E+01</totfact>
</mgrwt>
</event>
<event>
 8    1  0.7685004E-052  0.1497650E+04  0.7818608E-02  0.8886017E-01
          2   -1    0    0  501    0  0.00000000000E+00  0.00000000000E+00  0.34849976045E+04  0.34849976045E+04  0.25500000000E-02 0.  1.
         -2   -1    0    0    0  501 -0.00000000000E+00 -0.00000000000E+00 -0.16090077265E+03  0.16090077267E+03  0.25500000000E-02 0. -1.
     200001    2    1    2    0    0 -0.35297249851E+03 -0.59934741314E+02  0.10824377692E+04  0.12945187585E+04  0.61312766535E+03 0.  0.
    5000001    2    3    3    0    0 -0.21171636576E+03  0.93897487358E+02  0.71248242888E+02  0.25705892422E+03  0.85804549684E+02 0.  0.
        -13    1    4    4    0    0 -0.12258929396E+03  0.91203817865E+02  0.47877327515E+02  0.16012033300E+03  0.10566000000E+00 0. -1.
     200003    1    4    4    0    0 -0.89127071795E+02  0.26936694927E+01  0.23370915372E+02  0.96938591218E+02  0.30000000000E+02 0. -1.
     200000    1    3    3    0    0 -0.14125613276E+03 -0.15383222867E+03  0.10111895263E+04  0.10374598343E+04  0.10100000000E+03 0.  1.
    -200001    1    1    2    0    0  0.35297249851E+03  0.59934741314E+02  0.22416590626E+04  0.23513796186E+04  0.61300000000E+03 0.  1.
<mgrwt>
<rscale>  0 0.14976499E+04</rscale>
<asrwt>0</asrwt>
<pdfrwt beam="1">  1        2 0.49785672E+00 0.14976499E+04</pdfrwt>
<pdfrwt beam="2">  1       -2 0.22985828E-01 0.14976499E+04</pdfrwt>
<totfact> 0.20042377E+01</totfact>
</mgrwt>
</event>
<event>
 8    1  0.7685004E-052  0.1258799E+04  0.7818608E-02  0.9062891E-01
          2   -1    0    0  501    0  0.00000000000E+00  0.00000000000E+00  0.87690361860E+03  0.87690361861E+03  0.25500000000E-02 0.  1.
         -2   -1    0    0    0  501 -0.00000000000E+00 -0.00000000000E+00 -0.45175296902E+03  0.45175296903E+03  0.25500000000E-02 0. -1.
     200001    2    1    2    0    0  0.13953832279E+03  0.86251708950E+00  0.18151535098E+03  0.65441713003E+03  0.61305976053E+03 0.  0.
    5000001    2    3    3    0    0 -0.19334226222E+03 -0.11856362937E+03  0.13484255497E+03  0.28367269215E+03  0.10415909503E+03 0.  0.
        -13    1    4    4    0    0 -0.93013970270E+02 -0.10644423590E+03  0.97990319132E+02  0.17200025532E+03  0.10566000000E+00 0. -1.
     200003    1    4    4    0    0 -0.10032829195E+03 -0.12119393465E+02  0.36852235836E+02  0.11167243684E+03  0.30000000000E+02 0. -1.
     200000    1    3    3    0    0  0.33288058500E+03  0.11942614646E+03  0.46672796011E+02  0.37074443788E+03  0.10100000000E+03 0. -1.
    -200001    1    1    2    0    0 -0.13953832279E+03 -0.86251708950E+00  0.24363529861E+03  0.67423945760E+03  0.61300000000E+03 0. -1.
<mgrwt>
<rscale>  0 0.12587991E+04</rscale>
<asrwt>0</asrwt>
<pdfrwt beam="1">  1        2 0.12527195E+00 0.12587991E+04</pdfrwt>
<pdfrwt beam="2">  1       -2 0.64536138E-01 0.12587991E+04</pdfrwt>
<totfact> 0.73472790E+01</totfact>
</mgrwt>
</event>
<event>
 8    1  0.7685004E-052  0.1313194E+04  0.7818608E-02  0.9019167E-01
          2   -1    0    0  501    0  0.00000000000E+00  0.00000000000E+00  0.24405847225E+03  0.24405847226E+03  0.25500000000E-02 0.  1.
         -2   -1    0    0    0  501 -0.00000000000E+00 -0.00000000000E+00 -0.17664598244E+04  0.17664598244E+04  0.25500000000E-02 0. -1.
     200001    2    1    2    0    0  0.77453027526E+02  0.21455699164E+03 -0.68706680310E+03  0.94958169019E+03  0.61450054540E+03 0.  0.
    5000001    2    3    3    0    0  0.20285598260E+03  0.25873017693E+03 -0.12195738635E+03  0.36032213419E+03  0.82864842785E+02 0.  0.
        -13    1    4    4    0    0  0.86164874092E+02  0.14922546579E+03 -0.89996590696E+02  0.19440170439E+03  0.10566000000E+00 0. -1.
     200003    1    4    4    0    0  0.11669110850E+03  0.10950471114E+03 -0.31960795649E+02  0.16592042980E+03  0.30000000000E+02 0. -1.
     200000    1    3    3    0    0 -0.12540295507E+03 -0.44173185297E+02 -0.56510941675E+03  0.58925955601E+03  0.10100000000E+03 0.  1.
    -200001    1    1    2    0    0 -0.77453027526E+02 -0.21455699164E+03 -0.83533454909E+03  0.10609366065E+04  0.61300000000E+03 0.  1.
<mgrwt>
<rscale>  0 0.13131938E+04</rscale>
<asrwt>0</asrwt>
<pdfrwt beam="1">  1        2 0.34865497E-01 0.13131938E+04</pdfrwt>
<pdfrwt beam="2">  1       -2 0.25235140E+00 0.13131938E+04</pdfrwt>
<totfact> 0.91776789E+00</totfact>
</mgrwt>
</event>
<event>
 8    1  0.7685004E-052  0.1364813E+04  0.7818608E-02  0.8979690E-01
         -2   -1    0    0    0  501 -0.00000000000E+00  0.00000000000E+00  0.28947634030E+03  0.28947634032E+03  0.25500000000E-02 0. -1.
          2   -1    0    0  501    0  0.00000000000E+00 -0.00000000000E+00 -0.16086938953E+04  0.16086938953E+04  0.25500000000E-02 0.  1.
     200001    2    1    2    0    0  0.27347561586E+03  0.10158764198E+03 -0.75763823286E+03  0.10171201255E+04  0.61270604402E+03 0.  0.
    5000001    2    3    3    0    0  0.25528979521E+03  0.32120321506E+03 -0.36343880168E+03  0.55435029552E+03  0.82898146380E+02 0.  0.
        -13    1    4    4    0    0  0.21207545028E+03  0.22685969506E+03 -0.27196786465E+03  0.41280485513E+03  0.10566000000E+00 0. -1.
     200003    1    4    4    0    0  0.43214344937E+02  0.94343520004E+02 -0.91470937026E+02  0.14154544039E+03  0.30000000000E+02 0.  1.
     200000    1    3    3    0    0  0.18185820642E+02 -0.21961557308E+03 -0.39419943118E+03  0.46276983000E+03  0.10100000000E+03 0.  1.
    -200001    1    1    2    0    0 -0.27347561586E+03 -0.10158764198E+03 -0.56157932216E+03  0.88105011012E+03  0.61300000000E+03 0. -1.
<mgrwt>
<rscale>  0 0.13648133E+04</rscale>
<asrwt>0</asrwt>
<pdfrwt beam="1">  1        2 0.22981341E+00 0.13648133E+04</pdfrwt>
<pdfrwt beam="2">  1       -2 0.41353764E-01 0.13648133E+04</pdfrwt>
<totfact> 0.69238420E+01</totfact>
</mgrwt>
</event>
<event>
 8    1  0.7685004E-052  0.2029579E+04  0.7818608E-02  0.8592915E-01
          2   -1    0    0  501    0  0.00000000000E+00  0.00000000000E+00  0.10610389660E+04  0.10610389660E+04  0.25500000000E-02 0.  1.
         -2   -1    0    0    0  501 -0.00000000000E+00 -0.00000000000E+00 -0.97055558865E+03  0.97055558866E+03  0.25500000000E-02 0. -1.
     200001    2    1    2    0    0  0.38207636942E+03 -0.16324689332E+03 -0.64958049610E+03  0.98464878860E+03  0.61232876441E+03 0.  0.
    5000001    2    3    3    0    0  0.14131877321E+03 -0.33775519199E+03 -0.52208447556E+03  0.64571870482E+03  0.10164094039E+03 0.  0.
        -13    1    4    4    0    0  0.54710699737E+02 -0.15293740396E+03 -0.15434342234E+03  0.22406475265E+03  0.10566000000E+00 0. -1.
     200003    1    4    4    0    0  0.86608073468E+02 -0.18481778802E+03 -0.36774105321E+03  0.42165395217E+03  0.30000000000E+02 0. -1.
     200000    1    3    3    0    0  0.24075759622E+03  0.17450829866E+03 -0.12749602055E+03  0.33893008378E+03  0.10100000000E+03 0.  1.
    -200001    1    1    2    0    0 -0.38207636942E+03  0.16324689332E+03  0.74006387340E+03  0.10469457660E+04  0.61300000000E+03 0.  1.
<mgrwt>
<rscale>  0 0.20295786E+04</rscale>
<asrwt>0</asrwt>
<pdfrwt beam="1">  1        2 0.15157700E+00 0.20295786E+04</pdfrwt>
<pdfrwt beam="2">  1       -2 0.13865080E+00 0.20295786E+04</pdfrwt>
<totfact> 0.88344707E+00</totfact>
</mgrwt>
</event>
<event>
 8    1  0.7685004E-052  0.1270797E+04  0.7818608E-02  0.9053049E-01
          2   -1    0    0  501    0  0.00000000000E+00  0.00000000000E+00  0.24830117375E+04  0.24830117375E+04  0.25500000000E-02 0.  1.
         -2   -1    0    0    0  501 -0.00000000000E+00 -0.00000000000E+00 -0.16259744788E+03  0.16259744790E+03  0.25500000000E-02 0. -1.
     200001    2    1    2    0    0 -0.64215808313E+02  0.12872839387E+03  0.97282356888E+03  0.11581736675E+04  0.61178907999E+03 0.  0.
    5000001    2    3    3    0    0  0.23437474575E+03  0.11913378298E+03  0.45365625155E+03  0.55073307043E+03  0.16845931438E+03 0.  0.
        -13    1    4    4    0    0  0.14016114198E+03 -0.19925339891E+02  0.20048703457E+03  0.24543273434E+03  0.10566000000E+00 0. -1.
     200003    1    4    4    0    0  0.94213603766E+02  0.13905912287E+03  0.25316921698E+03  0.30530033609E+03  0.30000000000E+02 0. -1.
     200000    1    3    3    0    0 -0.29859055406E+03  0.95946108860E+01  0.51916731733E+03  0.60744059703E+03  0.10100000000E+03 0. -1.
    -200001    1    1    2    0    0  0.64215808313E+02 -0.12872839387E+03  0.13475907207E+04  0.14874355179E+04  0.61300000000E+03 0.  1.
<mgrwt>
<rscale>  0 0.12707972E+04</rscale>
<asrwt>0</asrwt>
<pdfrwt beam="1">  1        2 0.35471600E+00 0.12707972E+04</pdfrwt>
<pdfrwt beam="2">  1       -2 0.23228205E-01 0.12707972E+04</pdfrwt>
<totfact> 0.72681731E+01</totfact>
</mgrwt>
</event>
<event>
 8    1  0.7685004E-052  0.1778870E+04  0.7818608E-02  0.8717618E-01
          2   -1    0    0  501    0  0.00000000000E+00  0.00000000000E+00  0.65999622072E+03  0.65999622072E+03  0.25500000000E-02 0.  1.
         -2   -1    0    0    0  501 -0.00000000000E+00 -0.00000000000E+00 -0.11986347163E+04  0.11986347163E+04  0.25500000000E-02 0. -1.
     200001    2    1    2    0    0  0.99109261273E+02  0.52064824402E+03  0.11654077298E+03  0.81655315029E+03  0.61014756888E+03 0.  0.
    5000001    2    3    3    0    0  0.25220585651E+03  0.54003243446E+03  0.66705950613E+01  0.60187485538E+03  0.83462688466E+02 0.  0.
        -13    1    4    4    0    0  0.47164164140E+02  0.11996012234E+03 -0.28977139101E+02  0.13211576396E+03  0.10566000000E+00 0. -1.
     200003    1    4    4    0    0  0.20504169237E+03  0.42007231212E+03  0.35647734163E+02  0.46975909142E+03  0.30000000000E+02 0. -1.
     200000    1    3    3    0    0 -0.15309659523E+03 -0.19384190445E+02  0.10987017791E+03  0.21467829491E+03  0.10100000000E+03 0.  1.
    -200001    1    1    2    0    0 -0.99109261273E+02 -0.52064824402E+03 -0.65517926857E+03  0.10420777867E+04  0.61300000000E+03 0. -1.
<mgrwt>
<rscale>  0 0.17788697E+04</rscale>
<asrwt>0</asrwt>
<pdfrwt beam="1">  1        2 0.94285175E-01 0.17788697E+04</pdfrwt>
<pdfrwt beam="2">  1       -2 0.17123353E+00 0.17788697E+04</pdfrwt>
<totfact> 0.95779454E+00</totfact>
</mgrwt>
</event>
<event>
 8    1  0.7685004E-052  0.1281842E+04  0.7818608E-02  0.9044090E-01
          2   -1    0    0  501    0  0.00000000000E+00  0.00000000000E+00  0.23948666910E+04  0.23948666910E+04  0.25500000000E-02 0.  1.
         -2   -1    0    0    0  501 -0.00000000000E+00 -0.00000000000E+00 -0.17152508088E+03  0.17152508090E+03  0.25500000000E-02 0. -1.
     200001    2    1    2    0    0  0.73580747670E+02  0.16787714231E+03  0.10243647543E+04  0.12073806012E+04  0.61224823800E+03 0.  0.
    5000001    2    3    3    0    0  0.12884243547E+03  0.98791207356E+01  0.99799273782E+03  0.10101150132E+04  0.87434918456E+02 0.  0.
        -13    1    4    4    0    0  0.13759742995E+02 -0.20480575950E+01  0.17462010223E+02  0.22326173704E+02  0.10566000000E+00 0. -1.
     200003    1    4    4    0    0  0.11508269248E+03  0.11927178331E+02  0.98053072760E+03  0.98778883951E+03  0.30000000000E+02 0. -1.
     200000    1    3    3    0    0 -0.55261687801E+02  0.15799802157E+03  0.26372016523E+02  0.19726558801E+03  0.10100000000E+03 0. -1.
    -200001    1    1    2    0    0 -0.73580747670E+02 -0.16787714231E+03  0.11989768558E+04  0.13590111707E+04  0.61300000000E+03 0.  1.
<mgrwt>
<rscale>  0 0.12818420E+04</rscale>
<asrwt>0</asrwt>
<pdfrwt beam="1">  1        2 0.34212377E+00 0.12818420E+04</pdfrwt>
<pdfrwt beam="2">  1       -2 0.24503586E-01 0.12818420E+04</pdfrwt>
<totfact> 0.73319320E+01</totfact>
</mgrwt>
</event>
<event>
 8    1  0.7685004E-052  0.1281182E+04  0.7818608E-02  0.9044622E-01
         -2   -1    0    0    0  501 -0.00000000000E+00  0.00000000000E+00  0.79402469694E+03  0.79402469694E+03  0.25500000000E-02 0.  1.
          2   -1    0    0  501    0  0.00000000000E+00 -0.00000000000E+00 -0.51680638036E+03  0.51680638036E+03  0.25500000000E-02 0. -1.
     200001    2    1    2    0    0  0.14451292779E+03 -0.41568921991E+01  0.25561111843E+03  0.68064290139E+03  0.61403293829E+03 0.  0.
    5000001    2    3    3    0    0  0.10576014468E+03  0.81635544038E+01 -0.14427974382E+03  0.26619474623E+03  0.19695468165E+03 0.  0.
        -13    1    4    4    0    0  0.12414233370E+03 -0.46132270211E+02 -0.31431998088E+02  0.13611571195E+03  0.10566000000E+00 0. -1.
     200003    1    4    4    0    0 -0.18382189022E+02  0.54295824615E+02 -0.11284774573E+03  0.13007903429E+03  0.30000000000E+02 0. -1.
     200000    1    3    3    0    0  0.38752783107E+02 -0.12320446603E+02  0.39989086225E+03  0.41444815516E+03  0.10100000000E+03 0.  1.
    -200001    1    1    2    0    0 -0.14451292779E+03  0.41568921991E+01  0.21607198153E+02  0.63018817591E+03  0.61300000000E+03 0. -1.
<mgrwt>
<rscale>  0 0.12811823E+04</rscale>
<asrwt>0</asrwt>
<pdfrwt beam="1">  1        2 0.73829483E-01 0.12811823E+04</pdfrwt>
<pdfrwt beam="2">  1       -2 0.11343210E+00 0.12811823E+04</pdfrwt>
<totfact> 0.38724525E+01</totfact>
</mgrwt>
</event>
<event>
 8    1  0.7685004E-052  0.1615532E+04  0.7818608E-02  0.8811063E-01
          2   -1    0    0  501    0  0.00000000000E+00  0.00000000000E+00  0.45369796555E+03  0.45369796556E+03  0.25500000000E-02 0.  1.
         -2   -1    0    0    0  501 -0.00000000000E+00 -0.00000000000E+00 -0.14381498313E+04  0.14381498313E+04  0.25500000000E-02 0. -1.
     200001    2    1    2    0    0 -0.21607237979E+03 -0.86736460659E+01 -0.10538457454E+04  0.12381299556E+04  0.61287227585E+03 0.  0.
    5000001    2    3    3    0    0 -0.25359090094E+03 -0.42037373033E+02 -0.13676745673E+03  0.31414166283E+03  0.11791590790E+03 0.  0.
        -13    1    4    4    0    0 -0.30359685830E+02 -0.31272463139E+02  0.10480381287E+02  0.44827748442E+02  0.10566000000E+00 0. -1.
     200003    1    4    4    0    0 -0.22323121511E+03 -0.10764909895E+02 -0.14724783802E+03  0.26931391439E+03  0.30000000000E+02 0. -1.
     200000    1    3    3    0    0  0.37518521143E+02  0.33363726967E+02 -0.91707828863E+03  0.92398829277E+03  0.10100000000E+03 0. -1.
    -200001    1    1    2    0    0  0.21607237979E+03  0.86736460659E+01  0.69393879616E+02  0.65371784125E+03  0.61300000000E+03 0.  1.
<mgrwt>
<rscale>  0 0.16155317E+04</rscale>
<asrwt>0</asrwt>
<pdfrwt beam="1">  1        2 0.64813996E-01 0.16155317E+04</pdfrwt>
<pdfrwt beam="2">  1       -2 0.20544997E+00 0.16155317E+04</pdfrwt>
<totfact> 0.88173175E+00</totfact>
</mgrwt>
</event>
<event>
 8    1  0.7685004E-052  0.1419061E+04  0.7818608E-02  0.8940136E-01
         -2   -1    0    0    0  501 -0.00000000000E+00  0.00000000000E+00  0.56065344470E+03  0.56065344471E+03  0.25500000000E-02 0. -1.
          2   -1    0    0  501    0  0.00000000000E+00 -0.00000000000E+00 -0.89794009867E+03  0.89794009868E+03  0.25500000000E-02 0.  1.
     200001    2    1    2    0    0 -0.26070883695E+03  0.22292752057E+03 -0.63501657158E+02  0.70467511174E+03  0.61226528201E+03 0.  0.
    5000001    2    3    3    0    0 -0.36430300012E+02  0.35553635464E+03  0.10587338166E+03  0.37791087138E+03  0.62242971757E+02 0.  0.
        -13    1    4    4    0    0 -0.28752742311E+02  0.26170634159E+03  0.66521087390E+02  0.27155477468E+03  0.10566000000E+00 0. -1.
     200003    1    4    4    0    0 -0.76775577007E+01  0.93830013048E+02  0.39352294274E+02  0.10635609670E+03  0.30000000000E+02 0.  1.
     200000    1    3    3    0    0 -0.22427853694E+03 -0.13260883407E+03 -0.16937503882E+03  0.32676424037E+03  0.10100000000E+03 0.  1.
    -200001    1    1    2    0    0  0.26070883695E+03 -0.22292752057E+03 -0.27378499681E+03  0.75391843164E+03  0.61300000000E+03 0.  1.
<mgrwt>
<rscale>  0 0.14190605E+04</rscale>
<asrwt>0</asrwt>
<pdfrwt beam="1">  1        2 0.12827716E+00 0.14190605E+04</pdfrwt>
<pdfrwt beam="2">  1       -2 0.80093349E-01 0.14190605E+04</pdfrwt>
<totfact> 0.43791632E+01</totfact>
</mgrwt>
</event>
<event>
 8    1  0.7685004E-052  0.1353320E+04  0.7818608E-02  0.8988319E-01
         -2   -1    0    0    0  501 -0.00000000000E+00  0.00000000000E+00  0.50296330310E+03  0.50296330311E+03  0.25500000000E-02 0. -1.
          2   -1    0    0  501    0  0.00000000000E+00 -0.00000000000E+00 -0.91034223045E+03  0.91034223046E+03  0.25500000000E-02 0.  1.
     200001    2    1    2    0    0 -0.14540859262E+03  0.16312028927E+03 -0.40782361215E+03  0.76252055730E+03  0.60610693290E+03 0.  0.
    5000001    2    3    3    0    0 -0.25394759929E+03  0.18845084541E+03 -0.48914176932E+03  0.59153519030E+03  0.10320419829E+03 0.  0.
        -13    1    4    4    0    0 -0.14553133597E+03  0.15955726489E+03 -0.33401604948E+03  0.39774944752E+03  0.10566000000E+00 0. -1.
     200003    1    4    4    0    0 -0.10841626332E+03  0.28893580524E+02 -0.15512571984E+03  0.19378574278E+03  0.30000000000E+02 0. -1.
     200000    1    3    3    0    0  0.10853900668E+03 -0.25330556142E+02  0.81318157172E+02  0.17098536701E+03  0.10100000000E+03 0. -1.
    -200001    1    1    2    0    0  0.14540859262E+03 -0.16312028927E+03  0.44468479329E+00  0.65078497626E+03  0.61300000000E+03 0.  1.
<mgrwt>
<rscale>  0 0.13533200E+04</rscale>
<asrwt>0</asrwt>
<pdfrwt beam="1">  1        2 0.13004889E+00 0.13533200E+04</pdfrwt>
<pdfrwt beam="2">  1       -2 0.71851901E-01 0.13533200E+04</pdfrwt>
<totfact> 0.54968865E+01</totfact>
</mgrwt>
</event>
<event>
 8    1  0.7685004E-052  0.2400374E+04  0.7818608E-02  0.8439364E-01
          2   -1    0    0  501    0  0.00000000000E+00  0.00000000000E+00  0.93579328919E+03  0.93579328919E+03  0.25500000000E-02 0.  1.
         -2   -1    0    0    0  501 -0.00000000000E+00 -0.00000000000E+00 -0.15392804650E+04  0.15392804650E+04  0.25500000000E-02 0. -1.
     200001    2    1    2    0    0  0.74112063708E+03 -0.33748216570E+03 -0.95537704220E+03  0.13967651301E+04  0.61241613709E+03 0.  0.
    5000001    2    3    3    0    0 -0.60398989207E+02 -0.31790111445E+02 -0.17066602415E+03  0.22978024363E+03  0.13788915650E+03 0.  0.
        -13    1    4    4    0    0 -0.88559064505E+02 -0.48938096476E+02 -0.80868940199E+02  0.12952776477E+03  0.10566000000E+00 0. -1.
     200003    1    4    4    0    0  0.28160075298E+02  0.17147985031E+02 -0.89797083956E+02  0.10025247886E+03  0.30000000000E+02 0. -1.
     200000    1    3    3    0    0  0.80151962628E+03 -0.30569205425E+03 -0.78471101805E+03  0.11669848864E+04  0.10100000000E+03 0. -1.
    -200001    1    1    2    0    0 -0.74112063708E+03  0.33748216570E+03  0.35188986636E+03  0.10783086241E+04  0.61300000000E+03 0.  1.
<mgrwt>
<rscale>  0 0.24003736E+04</rscale>
<asrwt>0</asrwt>
<pdfrwt beam="1">  1        2 0.13368476E+00 0.24003736E+04</pdfrwt>
<pdfrwt beam="2">  1       -2 0.21989721E+00 0.24003736E+04</pdfrwt>
<totfact> 0.27567121E+00</totfact>
</mgrwt>
</event>
<event>
 8    1  0.7685004E-052  0.1352080E+04  0.7818608E-02  0.8989255E-01
          2   -1    0    0  501    0  0.00000000000E+00  0.00000000000E+00  0.21064368599E+03  0.21064368601E+03  0.25500000000E-02 0.  1.
         -2   -1    0    0    0  501 -0.00000000000E+00 -0.00000000000E+00 -0.21696843087E+04  0.21696843087E+04  0.25500000000E-02 0. -1.
     200001    2    1    2    0    0 -0.25646822046E+03  0.76245314882E+02 -0.11581489248E+04  0.13368789984E+04  0.61183921758E+03 0.  0.
    5000001    2    3    3    0    0  0.16542509272E+03  0.92016694038E+02 -0.49662333294E+03  0.54563958280E+03  0.12351229173E+03 0.  0.
        -13    1    4    4    0    0  0.25738936533E+02 -0.22384852760E+02 -0.34164086562E+02  0.48278053623E+02  0.10566000000E+00 0. -1.
     200003    1    4    4    0    0  0.13968615619E+03  0.11440154680E+03 -0.46245924638E+03  0.49736152917E+03  0.30000000000E+02 0. -1.
     200000    1    3    3    0    0 -0.42189331318E+03 -0.15771379156E+02 -0.66152559188E+03  0.79123941561E+03  0.10100000000E+03 0.  1.
    -200001    1    1    2    0    0  0.25646822046E+03 -0.76245314882E+02 -0.80089169792E+03  0.10434489963E+04  0.61300000000E+03 0. -1.
<mgrwt>
<rscale>  0 0.13520803E+04</rscale>
<asrwt>0</asrwt>
<pdfrwt beam="1">  1        2 0.30091956E-01 0.13520803E+04</pdfrwt>
<pdfrwt beam="2">  1       -2 0.30995489E+00 0.13520803E+04</pdfrwt>
<totfact> 0.48245147E+00</totfact>
</mgrwt>
</event>
<event>
 8    1  0.7685004E-052  0.1404891E+04  0.7818608E-02  0.8950286E-01
          2   -1    0    0  501    0  0.00000000000E+00  0.00000000000E+00  0.11284258994E+04  0.11284258994E+04  0.25500000000E-02 0.  1.
         -2   -1    0    0    0  501 -0.00000000000E+00 -0.00000000000E+00 -0.43727252187E+03  0.43727252187E+03  0.25500000000E-02 0. -1.
     200001    2    1    2    0    0 -0.30814839474E+03 -0.15077711444E+03  0.35463240764E+03  0.78678601631E+03  0.61284493919E+03 0.  0.
    5000001    2    3    3    0    0 -0.28606211325E+03 -0.31268990389E+03  0.62134823465E+02  0.43684403260E+03  0.85822280889E+02 0.  0.
        -13    1    4    4    0    0 -0.62789741251E+02 -0.38661087688E+02 -0.11248605201E+02  0.74590707133E+02  0.10566000000E+00 0. -1.
     200003    1    4    4    0    0 -0.22327237200E+03 -0.27402881620E+03  0.73383428667E+02  0.36225332546E+03  0.30000000000E+02 0. -1.
     200000    1    3    3    0    0 -0.22086281486E+02  0.16191278944E+03  0.29249758418E+03  0.34994198371E+03  0.10100000000E+03 0.  1.
    -200001    1    1    2    0    0  0.30814839474E+03  0.15077711444E+03  0.33652096987E+03  0.77891240495E+03  0.61300000000E+03 0. -1.
<mgrwt>
<rscale>  0 0.14048909E+04</rscale>
<asrwt>0</asrwt>
<pdfrwt beam="1">  1        2 0.16120370E+00 0.14048909E+04</pdfrwt>
<pdfrwt beam="2">  1       -2 0.62467502E-01 0.14048909E+04</pdfrwt>
<totfact> 0.54446458E+01</totfact>
</mgrwt>
</event>
<event>
 8    1  0.7685004E-052  0.1512067E+04  0.7818608E-02  0.8876468E-01
         -2   -1    0    0    0  501 -0.00000000000E+00  0.00000000000E+00  0.73621307329E+03  0.73621307329E+03  0.25500000000E-02 0. -1.
          2   -1    0    0  501    0  0.00000000000E+00 -0.00000000000E+00 -0.77638784461E+03  0.77638784462E+03  0.25500000000E-02 0.  1.
     200001    2    1    2    0    0  0.23400121042E+03 -0.19113987944E+03 -0.34376291723E+03  0.76478691541E+03  0.61272755996E+03 0.  0.
    5000001    2    3    3    0    0  0.13418783650E+03 -0.21758164078E+03  0.11128859525E+03  0.28736178477E+03  0.69595244409E+02 0.  0.
        -13    1    4    4    0    0  0.55172137536E+02 -0.13258641750E+03  0.75627888213E+02  0.16230437919E+03  0.10566000000E+00 0. -1.
     200003    1    4    4    0    0  0.79015698962E+02 -0.84995223282E+02  0.35660707035E+02  0.12505740558E+03  0.30000000000E+02 0. -1.
     200000    1    3    3    0    0  0.99813373919E+02  0.26441761341E+02 -0.45505151248E+03  0.47742513064E+03  0.10100000000E+03 0.  1.
    -200001    1    1    2    0    0 -0.23400121042E+03  0.19113987944E+03  0.30358814591E+03  0.74781400249E+03  0.61300000000E+03 0.  1.
<mgrwt>
<rscale>  0 0.15120673E+04</rscale>
<asrwt>0</asrwt>
<pdfrwt beam="1">  1        2 0.11091255E+00 0.15120673E+04</pdfrwt>
<pdfrwt beam="2">  1       -2 0.10517330E+00 0.15120673E+04</pdfrwt>
<totfact> 0.27983248E+01</totfact>
</mgrwt>
</event>
<event>
 8    1  0.7685004E-052  0.1514729E+04  0.7818608E-02  0.8874717E-01
          2   -1    0    0  501    0  0.00000000000E+00  0.00000000000E+00  0.73705113154E+03  0.73705113155E+03  0.25500000000E-02 0.  1.
         -2   -1    0    0    0  501 -0.00000000000E+00 -0.00000000000E+00 -0.77823809708E+03  0.77823809708E+03  0.25500000000E-02 0. -1.
     200001    2    1    2    0    0  0.27167843893E+03  0.33030634867E+03 -0.14049543262E+03  0.76127156983E+03  0.61390877033E+03 0.  0.
    5000001    2    3    3    0    0  0.40366187561E+03  0.29582834252E+03 -0.24355827991E+03  0.56269838191E+03  0.82773880184E+02 0.  0.
        -13    1    4    4    0    0  0.32132116520E+03  0.24203019911E+03 -0.21424617837E+03  0.45577115376E+03  0.10566000000E+00 0. -1.
     200003    1    4    4    0    0  0.82340710409E+02  0.53798143409E+02 -0.29312101534E+02  0.10692722816E+03  0.30000000000E+02 0. -1.
     200000    1    3    3    0    0 -0.13198343668E+03  0.34478006148E+02  0.10306284729E+03  0.19857318791E+03  0.10100000000E+03 0.  1.
    -200001    1    1    2    0    0 -0.27167843893E+03 -0.33030634867E+03  0.99308467082E+02  0.75401765880E+03  0.61300000000E+03 0.  1.
<mgrwt>
<rscale>  0 0.15147294E+04</rscale>
<asrwt>0</asrwt>
<pdfrwt beam="1">  1        2 0.10529302E+00 0.15147294E+04</pdfrwt>
<pdfrwt beam="2">  1       -2 0.11117687E+00 0.15147294E+04</pdfrwt>
<totfact> 0.26133660E+01</totfact>
</mgrwt>
</event>
<event>
 8    1  0.7685004E-052  0.1254159E+04  0.7818608E-02  0.9066729E-01
         -2   -1    0    0    0  501 -0.00000000000E+00  0.00000000000E+00  0.13432511062E+03  0.13432511065E+03  0.25500000000E-02 0. -1.
          2   -1    0    0  501    0  0.00000000000E+00 -0.00000000000E+00 -0.29274387890E+04  0.29274387890E+04  0.25500000000E-02 0.  1.
     200001    2    1    2    0    0  0.63362124912E+02 -0.78465402381E+02 -0.11883191073E+04  0.13409192833E+04  0.61301765498E+03 0.  0.
    5000001    2    3    3    0    0 -0.23279141295E+03  0.45055519881E+02 -0.71823187330E+03  0.76286449023E+03  0.99415113608E+02 0.  0.
        -13    1    4    4    0    0  0.74041779926E+01  0.88772629924E+01 -0.21767466055E+02  0.24646731882E+02  0.10566000000E+00 0. -1.
     200003    1    4    4    0    0 -0.24019559095E+03  0.36178256889E+02 -0.69646440724E+03  0.73821775834E+03  0.30000000000E+02 0. -1.
     200000    1    3    3    0    0  0.29615353787E+03 -0.12352092226E+03 -0.47008723399E+03  0.57805479307E+03  0.10100000000E+03 0. -1.
    -200001    1    1    2    0    0 -0.63362124912E+02  0.78465402381E+02 -0.16047945711E+04  0.17208446164E+04  0.61300000000E+03 0. -1.
<mgrwt>
<rscale>  0 0.12541587E+04</rscale>
<asrwt>0</asrwt>
<pdfrwt beam="1">  1        2 0.41820550E+00 0.12541587E+04</pdfrwt>
<pdfrwt beam="2">  1       -2 0.19189303E-01 0.12541587E+04</pdfrwt>
<totfact> 0.59050991E+01</totfact>
</mgrwt>
</event>
<event>
 8    1  0.7685004E-052  0.1424940E+04  0.7818608E-02  0.8935961E-01
          2   -1    0    0  501    0  0.00000000000E+00  0.00000000000E+00  0.21855218796E+04  0.21855218796E+04  0.25500000000E-02 0.  1.
         -2   -1    0    0    0  501 -0.00000000000E+00 -0.00000000000E+00 -0.23226179885E+03  0.23226179887E+03  0.25500000000E-02 0. -1.
     200001    2    1    2    0    0  0.31161077762E+03 -0.17012573433E+03  0.11047703599E+04  0.13124566460E+04  0.61317277942E+03 0.  0.
    5000001    2    3    3    0    0 -0.46195508160E+02 -0.23430491618E+03  0.75578149217E+03  0.79851254856E+03  0.96870055145E+02 0.  0.
        -13    1    4    4    0    0  0.26788654266E+02 -0.51696051280E+02  0.19407411038E+03  0.20262005133E+03  0.10566000000E+00 0. -1.
     200003    1    4    4    0    0 -0.72984162426E+02 -0.18260886490E+03  0.56170738179E+03  0.59589249723E+03  0.30000000000E+02 0. -1.
     200000    1    3    3    0    0  0.35780628578E+03  0.64179181847E+02  0.34898886768E+03  0.51394409744E+03  0.10100000000E+03 0. -1.
    -200001    1    1    2    0    0 -0.31161077762E+03  0.17012573433E+03  0.84848972087E+03  0.11053270324E+04  0.61300000000E+03 0. -1.
<mgrwt>
<rscale>  0 0.14249396E+04</rscale>
<asrwt>0</asrwt>
<pdfrwt beam="1">  1        2 0.31221742E+00 0.14249396E+04</pdfrwt>
<pdfrwt beam="2">  1       -2 0.33180256E-01 0.14249396E+04</pdfrwt>
<totfact> 0.53113377E+01</totfact>
</mgrwt>
</event>
<event>
 8    1  0.7685004E-052  0.1559881E+04  0.7818608E-02  0.8845581E-01
          2   -1    0    0  501    0  0.00000000000E+00  0.00000000000E+00  0.47802661388E+03  0.47802661388E+03  0.25500000000E-02 0.  1.
         -2   -1    0    0    0  501 -0.00000000000E+00 -0.00000000000E+00 -0.12725375692E+04  0.12725375692E+04  0.25500000000E-02 0. -1.
     200001    2    1    2    0    0 -0.98096287849E+02 -0.39725491212E+03 -0.11124586195E+03  0.74554948931E+03  0.61321615464E+03 0.  0.
    5000001    2    3    3    0    0 -0.34579569313E+02 -0.23342366965E+03  0.22027118435E+03  0.35698855261E+03  0.15244368098E+03 0.  0.
        -13    1    4    4    0    0 -0.56152439514E+02 -0.92168065825E+02  0.17228195349E+03  0.20329567503E+03  0.10566000000E+00 0. -1.
     200003    1    4    4    0    0  0.21572870201E+02 -0.14125560382E+03  0.47989230860E+02  0.15369287758E+03  0.30000000000E+02 0. -1.
     200000    1    3    3    0    0 -0.63516718537E+02 -0.16383124248E+03 -0.33151704630E+03  0.38856093670E+03  0.10100000000E+03 0. -1.
    -200001    1    1    2    0    0  0.98096287849E+02  0.39725491212E+03 -0.68326509339E+03  0.10050146938E+04  0.61300000000E+03 0. -1.
<mgrwt>
<rscale>  0 0.15598805E+04</rscale>
<asrwt>0</asrwt>
<pdfrwt beam="1">  1        2 0.68289517E-01 0.15598805E+04</pdfrwt>
<pdfrwt beam="2">  1       -2 0.18179108E+00 0.15598805E+04</pdfrwt>
<totfact> 0.11997364E+01</totfact>
</mgrwt>
</event>
<event>
 8    1  0.7685004E-052  0.1625590E+04  0.7818608E-02  0.8804979E-01
         -2   -1    0    0    0  501 -0.00000000000E+00  0.00000000000E+00  0.23608860754E+03  0.23608860756E+03  0.25500000000E-02 0. -1.
          2   -1    0    0  501    0  0.00000000000E+00 -0.00000000000E+00 -0.27982542024E+04  0.27982542024E+04  0.25500000000E-02 0.  1.
     200001    2    1    2    0    0  0.14281735660E+02 -0.39150139186E+03 -0.60583468530E+03  0.94712529961E+03  0.61362314123E+03 0.  0.
    5000001    2    3    3    0    0  0.15953907669E+03 -0.49103727523E+03 -0.47253323041E+03  0.70427274130E+03  0.78371663515E+02 0.  0.
        -13    1    4    4    0    0  0.96175394313E+02 -0.28881561077E+03 -0.31852251725E+03  0.44059138513E+03  0.10566000000E+00 0. -1.
     200003    1    4    4    0    0  0.63363682378E+02 -0.20222166446E+03 -0.15401071316E+03  0.26368135617E+03  0.30000000000E+02 0. -1.
     200000    1    3    3    0    0 -0.14525734103E+03  0.99535883371E+02 -0.13330145489E+03  0.24285255831E+03  0.10100000000E+03 0.  1.
    -200001    1    1    2    0    0 -0.14281735660E+02  0.39150139186E+03 -0.19563309095E+04  0.20872175103E+04  0.61300000000E+03 0.  1.
<mgrwt>
<rscale>  0 0.16255903E+04</rscale>
<asrwt>0</asrwt>
<pdfrwt beam="1">  1        2 0.39975058E+00 0.16255903E+04</pdfrwt>
<pdfrwt beam="2">  1       -2 0.33726945E-01 0.16255903E+04</pdfrwt>
<totfact> 0.24103099E+01</totfact>
</mgrwt>
</event>
<event>
 8    1  0.7685004E-052  0.1741544E+04  0.7818608E-02  0.8738019E-01
         -2   -1    0    0    0  501 -0.00000000000E+00  0.00000000000E+00  0.77201479825E+03  0.77201479825E+03  0.25500000000E-02 0. -1.
          2   -1    0    0  501    0  0.00000000000E+00 -0.00000000000E+00 -0.98216213535E+03  0.98216213535E+03  0.25500000000E-02 0.  1.
     200001    2    1    2    0    0 -0.39806247092E+03  0.46634650172E+03 -0.23466902341E+02  0.86729961675E+03  0.61296422350E+03 0.  0.
    5000001    2    3    3    0    0  0.58749640366E+02 -0.94349482065E+02  0.16883375777E+01  0.13662111197E+03  0.79430049370E+02 0.  0.
        -13    1    4    4    0    0  0.52642584433E+02 -0.22933570908E+02  0.10663267432E+02  0.58402969160E+02  0.10566000000E+00 0. -1.
     200003    1    4    4    0    0  0.61070559330E+01 -0.71415911158E+02 -0.89749298548E+01  0.78218142809E+02  0.30000000000E+02 0. -1.
     200000    1    3    3    0    0 -0.45681211129E+03  0.56069598378E+03 -0.25155239918E+02  0.73067850478E+03  0.10100000000E+03 0.  1.
    -200001    1    1    2    0    0  0.39806247092E+03 -0.46634650172E+03 -0.18668043476E+03  0.88687731685E+03  0.61300000000E+03 0. -1.
<mgrwt>
<rscale>  0 0.17415438E+04</rscale>
<asrwt>0</asrwt>
<pdfrwt beam="1">  1        2 0.14030888E+00 0.17415438E+04</pdfrwt>
<pdfrwt beam="2">  1       -2 0.11028783E+00 0.17415438E+04</pdfrwt>
<totfact> 0.17895046E+01</totfact>
</mgrwt>
</event>
<event>
 8    1  0.7685004E-052  0.1355491E+04  0.7818608E-02  0.8986682E-01
         -2   -1    0    0    0  501 -0.00000000000E+00  0.00000000000E+00  0.13381369329E+03  0.13381369332E+03  0.25500000000E-02 0. -1.
          2   -1    0    0  501    0  0.00000000000E+00 -0.00000000000E+00 -0.34326743199E+04  0.34326743199E+04  0.25500000000E-02 0.  1.
     200001    2    1    2    0    0 -0.78447723990E+02 -0.14187894605E+02 -0.91797182422E+03  0.11066595983E+04  0.61291749411E+03 0.  0.
    5000001    2    3    3    0    0  0.19266152766E+03  0.39558519290E+02 -0.89719285739E+02  0.22768737410E+03  0.71474816541E+02 0.  0.
        -13    1    4    4    0    0  0.40718596622E+02  0.93022023310E+01  0.73628935933E+01  0.42411772483E+02  0.10566000000E+00 0. -1.
     200003    1    4    4    0    0  0.15194293104E+03  0.30256316959E+02 -0.97082179332E+02  0.18527560161E+03  0.30000000000E+02 0. -1.
     200000    1    3    3    0    0 -0.27110925165E+03 -0.53746413895E+02 -0.82825253848E+03  0.87897222416E+03  0.10100000000E+03 0.  1.
    -200001    1    1    2    0    0  0.78447723990E+02  0.14187894605E+02 -0.23808888024E+04  0.24598284150E+04  0.61300000000E+03 0.  1.
<mgrwt>
<rscale>  0 0.13554908E+04</rscale>
<asrwt>0</asrwt>
<pdfrwt beam="1">  1        2 0.49038199E+00 0.13554908E+04</pdfrwt>
<pdfrwt beam="2">  1       -2 0.19116244E-01 0.13554908E+04</pdfrwt>
<totfact> 0.30278587E+01</totfact>
</mgrwt>
</event>
<event>
 8    1  0.7685004E-052  0.1319551E+04  0.7818608E-02  0.9014203E-01
         -2   -1    0    0    0  501 -0.00000000000E+00  0.00000000000E+00  0.27594298014E+03  0.27594298015E+03  0.25500000000E-02 0. -1.
          2   -1    0    0  501    0  0.00000000000E+00 -0.00000000000E+00 -0.15775130482E+04  0.15775130482E+04  0.25500000000E-02 0.  1.
     200001    2    1    2    0    0  0.24464541228E+03 -0.54700322541E+01 -0.66406940781E+03  0.93581917708E+03  0.61228102600E+03 0.  0.
    5000001    2    3    3    0    0  0.11444777412E+03  0.15199133552E+03  0.28328686801E+02  0.20687361756E+03  0.76121745065E+02 0.  0.
        -13    1    4    4    0    0  0.88178649615E+02  0.68268612467E+02  0.71126773329E+01  0.11174380985E+03  0.10566000000E+00 0. -1.
     200003    1    4    4    0    0  0.26269124505E+02  0.83722723052E+02  0.21216009468E+02  0.95129807711E+02  0.30000000000E+02 0. -1.
     200000    1    3    3    0    0  0.13019763816E+03 -0.15746136777E+03 -0.69239809461E+03  0.72894555952E+03  0.10100000000E+03 0.  1.
    -200001    1    1    2    0    0 -0.24464541228E+03  0.54700322541E+01 -0.63750066024E+03  0.91763685127E+03  0.61300000000E+03 0. -1.
<mgrwt>
<rscale>  0 0.13195509E+04</rscale>
<asrwt>0</asrwt>
<pdfrwt beam="1">  1        2 0.22535900E+00 0.13195509E+04</pdfrwt>
<pdfrwt beam="2">  1       -2 0.39420427E-01 0.13195509E+04</pdfrwt>
<totfact> 0.79221198E+01</totfact>
</mgrwt>
</event>
<event>
 8    1  0.7685004E-052  0.2811129E+04  0.7818608E-02  0.8299821E-01
          2   -1    0    0  501    0  0.00000000000E+00  0.00000000000E+00  0.32508133725E+04  0.32508133725E+04  0.25500000000E-02 0.  1.
         -2   -1    0    0    0  501 -0.00000000000E+00 -0.00000000000E+00 -0.60772858446E+03  0.60772858447E+03  0.25500000000E-02 0. -1.
     200001    2    1    2    0    0 -0.99962037023E+03 -0.60638882128E+03  0.65853047805E+03  0.14750208020E+04  0.61243423199E+03 0.  0.
    5000001    2    3    3    0    0 -0.11244604636E+03 -0.29966021335E+03  0.12201579787E+02  0.33086051397E+03  0.82942415863E+02 0.  0.
        -13    1    4    4    0    0 -0.10742211854E+03 -0.23456180048E+03  0.73536935922E-01  0.25798985711E+03  0.10566000000E+00 0. -1.
     200003    1    4    4    0    0 -0.50239278163E+01 -0.65098412866E+02  0.12128042851E+02  0.72870656864E+02  0.30000000000E+02 0. -1.
     200000    1    3    3    0    0 -0.88717432387E+03 -0.30672860793E+03  0.64632889827E+03  0.11441602880E+04  0.10100000000E+03 0.  1.
    -200001    1    1    2    0    0  0.99962037023E+03  0.60638882128E+03  0.19845543100E+04  0.23835211550E+04  0.61300000000E+03 0.  1.
<mgrwt>
<rscale>  0 0.28111295E+04</rscale>
<asrwt>0</asrwt>
<pdfrwt beam="1">  1        2 0.46440191E+00 0.28111295E+04</pdfrwt>
<pdfrwt beam="2">  1       -2 0.86818368E-01 0.28111295E+04</pdfrwt>
<totfact> 0.17010813E+00</totfact>
</mgrwt>
</event>
<event>
 8    1  0.7685004E-052  0.1615384E+04  0.7818608E-02  0.8811152E-01
          2   -1    0    0  501    0  0.00000000000E+00  0.00000000000E+00  0.12058744834E+04  0.12058744834E+04  0.25500000000E-02 0.  1.
         -2   -1    0    0    0  501 -0.00000000000E+00 -0.00000000000E+00 -0.54099026701E+03  0.54099026702E+03  0.25500000000E-02 0. -1.
     200001    2    1    2    0    0 -0.47111107517E+03  0.20934430877E+03  0.44888506144E+03  0.91728936527E+03  0.61167907966E+03 0.  0.
    5000001    2    3    3    0    0 -0.38341917053E+02  0.24108293586E+03  0.36421770746E+03  0.46378518062E+03  0.15116570634E+03 0.  0.
        -13    1    4    4    0    0  0.36451675103E+02  0.10643162797E+02  0.83728938054E+02  0.91937738519E+02  0.10566000000E+00 0. -1.
     200003    1    4    4    0    0 -0.74793592156E+02  0.23043977306E+03  0.28048876940E+03  0.37184744210E+03  0.30000000000E+02 0. -1.
     200000    1    3    3    0    0 -0.43276915812E+03 -0.31738627084E+02  0.84667353987E+02  0.45350418465E+03  0.10100000000E+03 0.  1.
    -200001    1    1    2    0    0  0.47111107517E+03 -0.20934430877E+03  0.21599915499E+03  0.82957538519E+03  0.61300000000E+03 0. -1.
<mgrwt>
<rscale>  0 0.16153840E+04</rscale>
<asrwt>0</asrwt>
<pdfrwt beam="1">  1        2 0.17226778E+00 0.16153840E+04</pdfrwt>
<pdfrwt beam="2">  1       -2 0.77284324E-01 0.16153840E+04</pdfrwt>
<totfact> 0.30410783E+01</totfact>
</mgrwt>
</event>
<event>
 8    1  0.7685004E-052  0.1536182E+04  0.7818608E-02  0.8860742E-01
          2   -1    0    0  501    0  0.00000000000E+00  0.00000000000E+00  0.64145475489E+03  0.64145475489E+03  0.25500000000E-02 0.  1.
         -2   -1    0    0    0  501 -0.00000000000E+00 -0.00000000000E+00 -0.91972838634E+03  0.91972838634E+03  0.25500000000E-02 0. -1.
     200001    2    1    2    0    0  0.29705678111E+02  0.82278477073E+02  0.32345369795E+03  0.69776148639E+03  0.61204299038E+03 0.  0.
    5000001    2    3    3    0    0  0.10510976552E+03  0.18283522922E+03  0.15705298362E+01  0.33775147165E+03  0.26381206604E+03 0.  0.
        -13    1    4    4    0    0  0.74401673423E+02  0.10212571193E+03 -0.12755421158E+03  0.17954207892E+03  0.10566000000E+00 0. -1.
     200003    1    4    4    0    0  0.30708092094E+02  0.80709517283E+02  0.12912474142E+03  0.15820939273E+03  0.30000000000E+02 0. -1.
     200000    1    3    3    0    0 -0.75404087406E+02 -0.10055675214E+03  0.32188316812E+03  0.36001001475E+03  0.10100000000E+03 0.  1.
    -200001    1    1    2    0    0 -0.29705678111E+02 -0.82278477073E+02 -0.60172732940E+03  0.86342165484E+03  0.61300000000E+03 0. -1.
<mgrwt>
<rscale>  0 0.15361825E+04</rscale>
<asrwt>0</asrwt>
<pdfrwt beam="1">  1        2 0.91636394E-01 0.15361825E+04</pdfrwt>
<pdfrwt beam="2">  1       -2 0.13138977E+00 0.15361825E+04</pdfrwt>
<totfact> 0.20438562E+01</totfact>
</mgrwt>
</event>
<event>
 8    1  0.7685004E-052  0.1677140E+04  0.7818608E-02  0.8774511E-01
          2   -1    0    0  501    0  0.00000000000E+00  0.00000000000E+00  0.13516302853E+04  0.13516302853E+04  0.25500000000E-02 0.  1.
         -2   -1    0    0    0  501 -0.00000000000E+00 -0.00000000000E+00 -0.52026048734E+03  0.52026048735E+03  0.25500000000E-02 0. -1.
     200001    2    1    2    0    0 -0.86976200143E+02 -0.26106697576E+03 -0.14442117526E+03  0.68713010118E+03  0.61283723358E+03 0.  0.
    5000001    2    3    3    0    0 -0.55360820156E+02 -0.88567914023E+02  0.22540500665E+03  0.26555227518E+03  0.93816299393E+02 0.  0.
        -13    1    4    4    0    0  0.76661336880E+01  0.55537143752E+01 -0.20504803475E+01  0.96865361598E+01  0.10566000000E+00 0. -1.
     200003    1    4    4    0    0 -0.63026953844E+02 -0.94121628398E+02  0.22745548699E+03  0.25586573902E+03  0.30000000000E+02 0. -1.
     200000    1    3    3    0    0 -0.31615379987E+02 -0.17249906174E+03 -0.36982618190E+03  0.42157782600E+03  0.10100000000E+03 0. -1.
    -200001    1    1    2    0    0  0.86976200143E+02  0.26106697576E+03  0.97579097319E+03  0.11847606714E+04  0.61300000000E+03 0.  1.
<mgrwt>
<rscale>  0 0.16771402E+04</rscale>
<asrwt>0</asrwt>
<pdfrwt beam="1">  1        2 0.19309004E+00 0.16771402E+04</pdfrwt>
<pdfrwt beam="2">  1       -2 0.74322927E-01 0.16771402E+04</pdfrwt>
<totfact> 0.27375522E+01</totfact>
</mgrwt>
</event>
<event>
 8    1  0.7685004E-052  0.1498418E+04  0.7818608E-02  0.8885505E-01
         -2   -1    0    0    0  501 -0.00000000000E+00  0.00000000000E+00  0.12864683800E+04  0.12864683800E+04  0.25500000000E-02 0. -1.
          2   -1    0    0  501    0  0.00000000000E+00 -0.00000000000E+00 -0.43632198288E+03  0.43632198289E+03  0.25500000000E-02 0.  1.
     200001    2    1    2    0    0  0.82866414831E+02  0.33228696955E+03  0.72589296280E+03  0.10097059438E+04  0.61262062214E+03 0.  0.
    5000001    2    3    3    0    0  0.19443350108E+02 -0.92009340044E+02  0.24123848311E+03  0.35461754659E+03  0.24230938096E+03 0.  0.
        -13    1    4    4    0    0  0.62343989399E+02 -0.33950012330E+02  0.26385411007E+03  0.27323685497E+03  0.10566000000E+00 0. -1.
     200003    1    4    4    0    0 -0.42900639291E+02 -0.58059327714E+02 -0.22615626958E+02  0.81380691622E+02  0.30000000000E+02 0. -1.
     200000    1    3    3    0    0  0.63423064722E+02  0.42429630959E+03  0.48465447970E+03  0.65508839721E+03  0.10100000000E+03 0. -1.
    -200001    1    1    2    0    0 -0.82866414831E+02 -0.33228696955E+03  0.12425343434E+03  0.71308441911E+03  0.61300000000E+03 0.  1.
<mgrwt>
<rscale>  0 0.14984184E+04</rscale>
<asrwt>0</asrwt>
<pdfrwt beam="1">  1        2 0.62331712E-01 0.14984184E+04</pdfrwt>
<pdfrwt beam="2">  1       -2 0.18378120E+00 0.14984184E+04</pdfrwt>
<totfact> 0.12953362E+01</totfact>
</mgrwt>
</event>
<event>
 8    1  0.7685004E-052  0.1337619E+04  0.7818608E-02  0.9000253E-01
          2   -1    0    0  501    0  0.00000000000E+00  0.00000000000E+00  0.77399779420E+03  0.77399779421E+03  0.25500000000E-02 0.  1.
         -2   -1    0    0    0  501 -0.00000000000E+00 -0.00000000000E+00 -0.57791692542E+03  0.57791692542E+03  0.25500000000E-02 0. -1.
     200001    2    1    2    0    0  0.11266830751E+03 -0.21214705157E+03 -0.22470756613E+02  0.65820416618E+03  0.61239470153E+03 0.  0.
    5000001    2    3    3    0    0  0.15186891513E+03  0.13596145776E+03 -0.15570310470E+03  0.27004430158E+03  0.84443961410E+02 0.  0.
        -13    1    4    4    0    0  0.72243754952E+02  0.30286795172E+02 -0.26511165953E+02  0.82700079659E+02  0.10566000000E+00 0. -1.
     200003    1    4    4    0    0  0.79625160181E+02  0.10567466259E+03 -0.12919193875E+03  0.18734422192E+03  0.30000000000E+02 0. -1.
     200000    1    3    3    0    0 -0.39200607625E+02 -0.34810850934E+03  0.13323234809E+03  0.38815986460E+03  0.10100000000E+03 0.  1.
    -200001    1    1    2    0    0 -0.11266830751E+03  0.21214705157E+03  0.21855162540E+03  0.69371055345E+03  0.61300000000E+03 0.  1.
<mgrwt>
<rscale>  0 0.13376194E+04</rscale>
<asrwt>0</asrwt>
<pdfrwt beam="1">  1        2 0.11057111E+00 0.13376194E+04</pdfrwt>
<pdfrwt beam="2">  1       -2 0.82559561E-01 0.13376194E+04</pdfrwt>
<totfact> 0.50001686E+01</totfact>
</mgrwt>
</event>
<event>
 8    1  0.7685004E-052  0.1559596E+04  0.7818608E-02  0.8845761E-01
         -2   -1    0    0    0  501 -0.00000000000E+00  0.00000000000E+00  0.27372825827E+03  0.27372825828E+03  0.25500000000E-02 0. -1.
          2   -1    0    0  501    0  0.00000000000E+00 -0.00000000000E+00 -0.22214920988E+04  0.22214920989E+04  0.25500000000E-02 0.  1.
     200001    2    1    2    0    0 -0.10866836871E+03  0.46757681734E+03 -0.89869356584E+03  0.11887922742E+04  0.61248677658E+03 0.  0.
    5000001    2    3    3    0    0 -0.31328635166E+03  0.13073822691E+03 -0.54781681898E+03  0.65153605375E+03  0.95682496119E+02 0.  0.
        -13    1    4    4    0    0 -0.10850398257E+03  0.35419018750E+02 -0.11289995715E+03  0.16054293074E+03  0.10566000000E+00 0. -1.
     200003    1    4    4    0    0 -0.20478236909E+03  0.95319208157E+02 -0.43491686183E+03  0.49099312301E+03  0.30000000000E+02 0. -1.
     200000    1    3    3    0    0  0.20461798295E+03  0.33683859043E+03 -0.35087674686E+03  0.53725622047E+03  0.10100000000E+03 0. -1.
    -200001    1    1    2    0    0  0.10866836871E+03 -0.46757681734E+03 -0.10490702747E+04  0.13064280829E+04  0.61300000000E+03 0. -1.
<mgrwt>
<rscale>  0 0.15595963E+04</rscale>
<asrwt>0</asrwt>
<pdfrwt beam="1">  1        2 0.31735601E+00 0.15595963E+04</pdfrwt>
<pdfrwt beam="2">  1       -2 0.39104038E-01 0.15595963E+04</pdfrwt>
<totfact> 0.36732181E+01</totfact>
</mgrwt>
</event>
<event>
 8    1  0.7685004E-052  0.1565841E+04  0.7818608E-02  0.8841813E-01
         -2   -1    0    0    0  501 -0.00000000000E+00  0.00000000000E+00  0.78695158824E+03  0.78695158825E+03  0.25500000000E-02 0. -1.
          2   -1    0    0  501    0  0.00000000000E+00 -0.00000000000E+00 -0.77890962527E+03  0.77890962528E+03  0.25500000000E-02 0.  1.
     200001    2    1    2    0    0 -0.33550144189E+03  0.67685237263E+02 -0.34248268655E+03  0.78114531667E+03  0.61298540465E+03 0.  0.
    5000001    2    3    3    0    0 -0.65628409015E+01  0.14934695427E+03 -0.36302928182E+03  0.42689624918E+03  0.16763819516E+03 0.  0.
        -13    1    4    4    0    0 -0.55134149143E+02  0.14579571774E+03 -0.31782779956E+03  0.35399249575E+03  0.10566000000E+00 0. -1.
     200003    1    4    4    0    0  0.48571308242E+02  0.35512365313E+01 -0.45201482259E+02  0.72903753426E+02  0.30000000000E+02 0. -1.
     200000    1    3    3    0    0 -0.32893860099E+03 -0.81661717004E+02  0.20546595269E+02  0.35424906749E+03  0.10100000000E+03 0. -1.
    -200001    1    1    2    0    0  0.33550144189E+03 -0.67685237263E+02  0.35052464952E+03  0.78471589685E+03  0.61300000000E+03 0. -1.
<mgrwt>
<rscale>  0 0.15658406E+04</rscale>
<asrwt>0</asrwt>
<pdfrwt beam="1">  1        2 0.11127280E+00 0.15658406E+04</pdfrwt>
<pdfrwt beam="2">  1       -2 0.11242166E+00 0.15658406E+04</pdfrwt>
<totfact> 0.23625279E+01</totfact>
</mgrwt>
</event>
<event>
 8    1  0.7685004E-052  0.1918174E+04  0.7818608E-02  0.8645863E-01
         -2   -1    0    0    0  501 -0.00000000000E+00  0.00000000000E+00  0.95035505492E+03  0.95035505492E+03  0.25500000000E-02 0. -1.
          2   -1    0    0  501    0  0.00000000000E+00 -0.00000000000E+00 -0.96789879770E+03  0.96789879770E+03  0.25500000000E-02 0.  1.
     200001    2    1    2    0    0 -0.66187734351E+03  0.14681752411E+03  0.28141755605E+03  0.95659702120E+03  0.61338814537E+03 0.  0.
    5000001    2    3    3    0    0 -0.50218852573E+03  0.25878915838E+03 -0.31536801885E+02  0.57426261841E+03  0.98070592712E+02 0.  0.
        -13    1    4    4    0    0 -0.29163421552E+03  0.16280508547E+03  0.22477812264E+02  0.33475554473E+03  0.10566000000E+00 0. -1.
     200003    1    4    4    0    0 -0.21055431022E+03  0.95984072908E+02 -0.54014614149E+02  0.23950707369E+03  0.30000000000E+02 0.  1.
     200000    1    3    3    0    0 -0.15968881777E+03 -0.11197163428E+03  0.31295435794E+03  0.38233440279E+03  0.10100000000E+03 0. -1.
    -200001    1    1    2    0    0  0.66187734351E+03 -0.14681752411E+03 -0.29896129883E+03  0.96165683143E+03  0.61300000000E+03 0.  1.
<mgrwt>
<rscale>  0 0.19181736E+04</rscale>
<asrwt>0</asrwt>
<pdfrwt beam="1">  1        2 0.13827126E+00 0.19181736E+04</pdfrwt>
<pdfrwt beam="2">  1       -2 0.13576501E+00 0.19181736E+04</pdfrwt>
<totfact> 0.10733479E+01</totfact>
</mgrwt>
</event>
<event>
 8    1  0.7685004E-052  0.1497862E+04  0.7818608E-02  0.8885876E-01
         -2   -1    0    0    0  501 -0.00000000000E+00  0.00000000000E+00  0.26100302812E+03  0.26100302813E+03  0.25500000000E-02 0. -1.
          2   -1    0    0  501    0  0.00000000000E+00 -0.00000000000E+00 -0.21490077986E+04  0.21490077986E+04  0.25500000000E-02 0.  1.
     200001    2    1    2    0    0  0.30248899744E+03  0.13050773637E+03 -0.13890034351E+04  0.15536795850E+04  0.61323555613E+03 0.  0.
    5000001    2    3    3    0    0  0.21269719261E+03  0.91119582484E+02 -0.13775979117E+04  0.14124525308E+04  0.20905327362E+03 0.  0.
        -13    1    4    4    0    0  0.72038646017E+02 -0.64347874328E+02 -0.33968307980E+03  0.35314985674E+03  0.10566000000E+00 0. -1.
     200003    1    4    4    0    0  0.14065854659E+03  0.15546745681E+03 -0.10379148319E+04  0.10593026740E+04  0.30000000000E+02 0. -1.
     200000    1    3    3    0    0  0.89791804834E+02  0.39388153890E+02 -0.11405523365E+02  0.14122705423E+03  0.10100000000E+03 0. -1.
    -200001    1    1    2    0    0 -0.30248899744E+03 -0.13050773637E+03 -0.49900133534E+03  0.85633124169E+03  0.61300000000E+03 0. -1.
<mgrwt>
<rscale>  0 0.14978619E+04</rscale>
<asrwt>0</asrwt>
<pdfrwt beam="1">  1        2 0.30700111E+00 0.14978619E+04</pdfrwt>
<pdfrwt beam="2">  1       -2 0.37286148E-01 0.14978619E+04</pdfrwt>
<totfact> 0.44119962E+01</totfact>
</mgrwt>
</event>
<event>
 8    1  0.7685004E-052  0.1447951E+04  0.7818608E-02  0.8919823E-01
          2   -1    0    0  501    0  0.00000000000E+00  0.00000000000E+00  0.52040843383E+03  0.52040843384E+03  0.25500000000E-02 0.  1.
         -2   -1    0    0    0  501 -0.00000000000E+00 -0.00000000000E+00 -0.10071708374E+04  0.10071708374E+04  0.25500000000E-02 0. -1.
     200001    2    1    2    0    0 -0.44420417987E+02  0.16520377829E+03  0.11971577090E+03  0.64846025881E+03  0.61392457156E+03 0.  0.
    5000001    2    3    3    0    0  0.82474045791E+02  0.36167061294E+03  0.33826748529E+02  0.37961207448E+03  0.73167463294E+02 0.  0.
        -13    1    4    4    0    0  0.46585880517E+02  0.14203603022E+03  0.40782243436E+02  0.15494412118E+03  0.10566000000E+00 0. -1.
     200003    1    4    4    0    0  0.35888165273E+02  0.21963458271E+03 -0.69554949063E+01  0.22466795330E+03  0.30000000000E+02 0. -1.
     200000    1    3    3    0    0 -0.12689446378E+03 -0.19646683465E+03  0.85889022374E+02  0.26884818433E+03  0.10100000000E+03 0.  1.
    -200001    1    1    2    0    0  0.44420417987E+02 -0.16520377829E+03 -0.60647817446E+03  0.87911901242E+03  0.61300000000E+03 0. -1.
<mgrwt>
<rscale>  0 0.14479505E+04</rscale>
<asrwt>0</asrwt>
<pdfrwt beam="1">  1        2 0.74344062E-01 0.14479505E+04</pdfrwt>
<pdfrwt beam="2">  1       -2 0.14388155E+00 0.14479505E+04</pdfrwt>
<totfact> 0.20819734E+01</totfact>
</mgrwt>
</event>
<event>
 8    1  0.7685004E-052  0.1313758E+04  0.7818608E-02  0.9018725E-01
          2   -1    0    0  501    0  0.00000000000E+00  0.00000000000E+00  0.27689251064E+03  0.27689251065E+03  0.25500000000E-02 0.  1.
         -2   -1    0    0    0  501 -0.00000000000E+00 -0.00000000000E+00 -0.15583314136E+04  0.15583314136E+04  0.25500000000E-02 0. -1.
     200001    2    1    2    0    0 -0.14840465594E+03 -0.90733070351E+02 -0.86506680617E+03  0.10740464450E+04  0.61235508888E+03 0.  0.
    5000001    2    3    3    0    0 -0.14985941726E+03  0.10497325056E+03 -0.13567520223E+03  0.31213031293E+03  0.21340183569E+03 0.  0.
        -13    1    4    4    0    0 -0.13940179778E+03  0.14148280508E+03 -0.16265263888E+03  0.25672190685E+03  0.10566000000E+00 0. -1.
     200003    1    4    4    0    0 -0.10457619484E+02 -0.36509554520E+02  0.26977436649E+02  0.55408406083E+02  0.30000000000E+02 0. -1.
     200000    1    3    3    0    0  0.14547613181E+01 -0.19570632091E+03 -0.72939160394E+03  0.76191613205E+03  0.10100000000E+03 0. -1.
    -200001    1    1    2    0    0  0.14840465594E+03  0.90733070351E+02 -0.41637209679E+03  0.76117747927E+03  0.61300000000E+03 0. -1.
<mgrwt>
<rscale>  0 0.13137584E+04</rscale>
<asrwt>0</asrwt>
<pdfrwt beam="1">  1        2 0.39556074E-01 0.13137584E+04</pdfrwt>
<pdfrwt beam="2">  1       -2 0.22261877E+00 0.13137584E+04</pdfrwt>
<totfact> 0.12169530E+01</totfact>
</mgrwt>
</event>
<event>
 8    1  0.7685004E-052  0.1342856E+04  0.7818608E-02  0.8996254E-01
          2   -1    0    0  501    0  0.00000000000E+00  0.00000000000E+00  0.11788072561E+04  0.11788072561E+04  0.25500000000E-02 0.  1.
         -2   -1    0    0    0  501 -0.00000000000E+00 -0.00000000000E+00 -0.38243358416E+03  0.38243358417E+03  0.25500000000E-02 0. -1.
     200001    2    1    2    0    0 -0.26061783434E+03  0.90120519593E+02  0.38222649906E+03  0.77172817766E+03  0.61108421677E+03 0.  0.
    5000001    2    3    3    0    0 -0.42819731146E+03  0.15277003087E+03  0.29155794132E+03  0.54716275339E+03  0.87689370381E+02 0.  0.
        -13    1    4    4    0    0 -0.48725625029E+02  0.28057220421E+02  0.89385703830E+01  0.56932445554E+02  0.10566000000E+00 0. -1.
     200003    1    4    4    0    0 -0.37947168643E+03  0.12471281045E+03  0.28261937094E+03  0.49023030784E+03  0.30000000000E+02 0. -1.
     200000    1    3    3    0    0  0.16757947712E+03 -0.62649511279E+02  0.90668557741E+02  0.22456542427E+03  0.10100000000E+03 0. -1.
    -200001    1    1    2    0    0  0.26061783434E+03 -0.90120519593E+02  0.41414717288E+03  0.78951266262E+03  0.61300000000E+03 0.  1.
<mgrwt>
<rscale>  0 0.13428559E+04</rscale>
<asrwt>0</asrwt>
<pdfrwt beam="1">  1        2 0.16840104E+00 0.13428559E+04</pdfrwt>
<pdfrwt beam="2">  1       -2 0.54633369E-01 0.13428559E+04</pdfrwt>
<totfact> 0.67762375E+01</totfact>
</mgrwt>
</event>
<event>
 8    1  0.7685004E-052  0.1459875E+04  0.7818608E-02  0.8911583E-01
          2   -1    0    0  501    0  0.00000000000E+00  0.00000000000E+00  0.10509359003E+04  0.10509359003E+04  0.25500000000E-02 0.  1.
         -2   -1    0    0    0  501 -0.00000000000E+00 -0.00000000000E+00 -0.50698526410E+03  0.50698526411E+03  0.25500000000E-02 0. -1.
     200001    2    1    2    0    0  0.17682398864E+03 -0.30145835231E+03  0.47212736303E+03  0.84864586972E+03  0.61249628908E+03 0.  0.
    5000001    2    3    3    0    0  0.29794843538E+03  0.41201832040E+02  0.20609255167E+03  0.38705876592E+03  0.12988259050E+03 0.  0.
        -13    1    4    4    0    0  0.19543783000E+02  0.33010592246E+02 -0.14951037707E+01  0.38391472408E+02  0.10566000000E+00 0. -1.
     200003    1    4    4    0    0  0.27840465238E+03  0.81912397946E+01  0.20758765544E+03  0.34866729351E+03  0.30000000000E+02 0. -1.
     200000    1    3    3    0    0 -0.12112444674E+03 -0.34266018435E+03  0.26603481137E+03  0.46158710380E+03  0.10100000000E+03 0. -1.
    -200001    1    1    2    0    0 -0.17682398864E+03  0.30145835231E+03  0.71823273197E+02  0.70927529473E+03  0.61300000000E+03 0. -1.
<mgrwt>
<rscale>  0 0.14598754E+04</rscale>
<asrwt>0</asrwt>
<pdfrwt beam="1">  1        2 0.15013370E+00 0.14598754E+04</pdfrwt>
<pdfrwt beam="2">  1       -2 0.72426467E-01 0.14598754E+04</pdfrwt>
<totfact> 0.43775606E+01</totfact>
</mgrwt>
</event>
<event>
 8    1  0.7685004E-052  0.1359223E+04  0.7818608E-02  0.8983875E-01
          2   -1    0    0  501    0  0.00000000000E+00  0.00000000000E+00  0.31124812454E+04  0.31124812454E+04  0.25500000000E-02 0.  1.
         -2   -1    0    0    0  501 -0.00000000000E+00 -0.00000000000E+00 -0.14839353839E+03  0.14839353841E+03  0.25500000000E-02 0. -1.
     200001    2    1    2    0    0  0.10678628974E+03  0.26883895540E+03  0.13870045063E+04  0.15442973409E+04  0.61432489854E+03 0.  0.
    5000001    2    3    3    0    0 -0.12840815716E+03 -0.14217980358E+03  0.38333080898E+03  0.42992992447E+03  0.34546772234E+02 0.  0.
        -13    1    4    4    0    0 -0.27245432838E+02 -0.25199371291E+02  0.75614758472E+02  0.84231376498E+02  0.10566000000E+00 0. -1.
     200003    1    4    4    0    0 -0.10116272433E+03 -0.11698043229E+03  0.30771605051E+03  0.34569854798E+03  0.30000000000E+02 0. -1.
     200000    1    3    3    0    0  0.23519444690E+03  0.41101875897E+03  0.10036736973E+04  0.11143674164E+04  0.10100000000E+03 0. -1.
    -200001    1    1    2    0    0 -0.10678628974E+03 -0.26883895540E+03  0.15770832007E+04  0.17165774430E+04  0.61300000000E+03 0.  1.
<mgrwt>
<rscale>  0 0.13592235E+04</rscale>
<asrwt>0</asrwt>
<pdfrwt beam="1">  1        2 0.44464012E+00 0.13592235E+04</pdfrwt>
<pdfrwt beam="2">  1       -2 0.21199080E-01 0.13592235E+04</pdfrwt>
<totfact> 0.38717893E+01</totfact>
</mgrwt>
</event>
<event>
 8    1  0.7685004E-052  0.1318838E+04  0.7818608E-02  0.9014759E-01
          2   -1    0    0  501    0  0.00000000000E+00  0.00000000000E+00  0.12094982907E+04  0.12094982907E+04  0.25500000000E-02 0.  1.
         -2   -1    0    0    0  501 -0.00000000000E+00 -0.00000000000E+00 -0.35951533604E+03  0.35951533605E+03  0.25500000000E-02 0. -1.
     200001    2    1    2    0    0  0.25302984212E+00 -0.57278927443E+02  0.70584981858E+03  0.93669701268E+03  0.61310389627E+03 0.  0.
    5000001    2    3    3    0    0 -0.10820011902E+03  0.23157790858E+03  0.19922042202E+03  0.33497057760E+03  0.84740296282E+02 0.  0.
        -13    1    4    4    0    0  0.99101671143E+01  0.41025781103E+02  0.21808871467E+02  0.47507516942E+02  0.10566000000E+00 0. -1.
     200003    1    4    4    0    0 -0.11811028613E+03  0.19055212747E+03  0.17741155055E+03  0.28746306066E+03  0.30000000000E+02 0. -1.
     200000    1    3    3    0    0  0.10845314886E+03 -0.28885683602E+03  0.50662939656E+03  0.60172643508E+03  0.10100000000E+03 0. -1.
    -200001    1    1    2    0    0 -0.25302984212E+00  0.57278927443E+02  0.14413313611E+03  0.63231661411E+03  0.61300000000E+03 0. -1.
<mgrwt>
<rscale>  0 0.13188376E+04</rscale>
<asrwt>0</asrwt>
<pdfrwt beam="1">  1        2 0.17278547E+00 0.13188376E+04</pdfrwt>
<pdfrwt beam="2">  1       -2 0.51359334E-01 0.13188376E+04</pdfrwt>
<totfact> 0.74044304E+01</totfact>
</mgrwt>
</event>
<event>
 8    1  0.7685004E-052  0.1372610E+04  0.7818608E-02  0.8973887E-01
         -2   -1    0    0    0  501 -0.00000000000E+00  0.00000000000E+00  0.47517029370E+03  0.47517029371E+03  0.25500000000E-02 0. -1.
          2   -1    0    0  501    0  0.00000000000E+00 -0.00000000000E+00 -0.99125357236E+03  0.99125357237E+03  0.25500000000E-02 0.  1.
     200001    2    1    2    0    0  0.80250609190E+02 -0.10994969013E+03  0.37949799203E+02  0.62901670943E+03  0.61293779362E+03 0.  0.
    5000001    2    3    3    0    0 -0.13859517521E+03 -0.12885983685E+03 -0.20244258803E+03  0.28807599488E+03  0.78684796724E+02 0.  0.
        -13    1    4    4    0    0 -0.65646921909E+01 -0.92616232980E+01  0.55044967372E+01  0.12616794285E+02  0.10566000000E+00 0. -1.
     200003    1    4    4    0    0 -0.13203048302E+03 -0.11959821355E+03 -0.20794708476E+03  0.27545920060E+03  0.30000000000E+02 0. -1.
     200000    1    3    3    0    0  0.21884578440E+03  0.18910146720E+02  0.24039238723E+03  0.34094071455E+03  0.10100000000E+03 0. -1.
    -200001    1    1    2    0    0 -0.80250609190E+02  0.10994969013E+03 -0.55403307786E+03  0.83740715665E+03  0.61300000000E+03 0.  1.
<mgrwt>
<rscale>  0 0.13726096E+04</rscale>
<asrwt>0</asrwt>
<pdfrwt beam="1">  1        2 0.14160765E+00 0.13726096E+04</pdfrwt>
<pdfrwt beam="2">  1       -2 0.67881470E-01 0.13726096E+04</pdfrwt>
<totfact> 0.55205569E+01</totfact>
</mgrwt>
</event>
<event>
 8    1  0.7685004E-052  0.1782858E+04  0.7818608E-02  0.8715469E-01
          2   -1    0    0  501    0  0.00000000000E+00  0.00000000000E+00  0.11848978120E+04  0.11848978120E+04  0.25500000000E-02 0.  1.
         -2   -1    0    0    0  501 -0.00000000000E+00 -0.00000000000E+00 -0.67064478851E+03  0.67064478851E+03  0.25500000000E-02 0. -1.
     200001    2    1    2    0    0 -0.48811381570E+03 -0.19472615435E+03 -0.13583095213E+03  0.81893681834E+03  0.61321618750E+03 0.  0.
    5000001    2    3    3    0    0  0.23926669081E+02  0.12589258111E+03 -0.14312607790E+03  0.20637167859E+03  0.75384136766E+02 0.  0.
        -13    1    4    4    0    0  0.29433973084E+02  0.10490168516E+03 -0.12267495694E+03  0.16407278429E+03  0.10566000000E+00 0. -1.
     200003    1    4    4    0    0 -0.55073040027E+01  0.20990895947E+02 -0.20451120964E+02  0.42298894297E+02  0.30000000000E+02 0.  1.
     200000    1    3    3    0    0 -0.51204048478E+03 -0.32061873546E+03  0.72951257702E+01  0.61256513975E+03  0.10100000000E+03 0. -1.
    -200001    1    1    2    0    0  0.48811381570E+03  0.19472615435E+03  0.65008397560E+03  0.10366057822E+04  0.61300000000E+03 0.  1.
<mgrwt>
<rscale>  0 0.17828579E+04</rscale>
<asrwt>0</asrwt>
<pdfrwt beam="1">  1        2 0.16927112E+00 0.17828579E+04</pdfrwt>
<pdfrwt beam="2">  1       -2 0.95806398E-01 0.17828579E+04</pdfrwt>
<totfact> 0.18892885E+01</totfact>
</mgrwt>
</event>
<event>
 8    1  0.7685004E-052  0.1452366E+04  0.7818608E-02  0.8916762E-01
         -2   -1    0    0    0  501 -0.00000000000E+00  0.00000000000E+00  0.21547802104E+03  0.21547802106E+03  0.25500000000E-02 0. -1.
          2   -1    0    0  501    0  0.00000000000E+00 -0.00000000000E+00 -0.24473103827E+04  0.24473103827E+04  0.25500000000E-02 0.  1.
     200001    2    1    2    0    0 -0.11694885762E+03 -0.22491757191E+01 -0.43445310414E+03  0.76015252440E+03  0.61269916481E+03 0.  0.
    5000001    2    3    3    0    0 -0.19237784685E+03 -0.14653582256E+03 -0.43150082661E+03  0.56853341049E+03  0.28027717035E+03 0.  0.
        -13    1    4    4    0    0 -0.23758603218E+03 -0.72504166454E+02 -0.40120349319E+03  0.47187734736E+03  0.10566000000E+00 0. -1.
     200003    1    4    4    0    0  0.45208185326E+02 -0.74031656108E+02 -0.30297333417E+02  0.96656063124E+02  0.30000000000E+02 0. -1.
     200000    1    3    3    0    0  0.75428989232E+02  0.14428664684E+03 -0.29522775300E+01  0.19161911391E+03  0.10100000000E+03 0.  1.
    -200001    1    1    2    0    0  0.11694885762E+03  0.22491757191E+01 -0.17973792575E+04  0.19026358793E+04  0.61300000000E+03 0.  1.
<mgrwt>
<rscale>  0 0.14523658E+04</rscale>
<asrwt>0</asrwt>
<pdfrwt beam="1">  1        2 0.34961575E+00 0.14523658E+04</pdfrwt>
<pdfrwt beam="2">  1       -2 0.30782576E-01 0.14523658E+04</pdfrwt>
<totfact> 0.44649825E+01</totfact>
</mgrwt>
</event>
<event>
 8    1  0.7685004E-052  0.1739107E+04  0.7818608E-02  0.8739369E-01
          2   -1    0    0  501    0  0.00000000000E+00  0.00000000000E+00  0.12176136283E+04  0.12176136283E+04  0.25500000000E-02 0.  1.
         -2   -1    0    0    0  501 -0.00000000000E+00 -0.00000000000E+00 -0.62098782854E+03  0.62098782855E+03  0.25500000000E-02 0. -1.
     200001    2    1    2    0    0  0.32141576668E+02 -0.10583422260E+03  0.93975072345E+03  0.11274490984E+04  0.61300577779E+03 0.  0.
    5000001    2    3    3    0    0  0.23309480614E+03 -0.62020685181E+02  0.83322411280E+03  0.87476204832E+03  0.11298878254E+03 0.  0.
        -13    1    4    4    0    0  0.19542469420E+03 -0.74136696126E+02  0.74225436754E+03  0.77112166232E+03  0.10566000000E+00 0. -1.
     200003    1    4    4    0    0  0.37670111935E+02  0.12116010945E+02  0.90969745268E+02  0.10364038599E+03  0.30000000000E+02 0. -1.
     200000    1    3    3    0    0 -0.20095322947E+03 -0.43813537414E+02  0.10652661065E+03  0.25268705007E+03  0.10100000000E+03 0.  1.
    -200001    1    1    2    0    0 -0.32141576668E+02  0.10583422260E+03 -0.34312492373E+03  0.71115235843E+03  0.61300000000E+03 0. -1.
<mgrwt>
<rscale>  0 0.17391069E+04</rscale>
<asrwt>0</asrwt>
<pdfrwt beam="1">  1        2 0.17394480E+00 0.17391069E+04</pdfrwt>
<pdfrwt beam="2">  1       -2 0.88712548E-01 0.17391069E+04</pdfrwt>
<totfact> 0.21708084E+01</totfact>
</mgrwt>
</event>
<event>
 8    1  0.7685004E-052  0.1575057E+04  0.7818608E-02  0.8836019E-01
         -2   -1    0    0    0  501 -0.00000000000E+00  0.00000000000E+00  0.54130450056E+03  0.54130450056E+03  0.25500000000E-02 0. -1.
          2   -1    0    0  501    0  0.00000000000E+00 -0.00000000000E+00 -0.11457533089E+04  0.11457533089E+04  0.25500000000E-02 0.  1.
     200001    2    1    2    0    0  0.11025086969E+03  0.67486179813E+02  0.20297043731E+03  0.66509671580E+03  0.62003790546E+03 0.  0.
    5000001    2    3    3    0    0 -0.68011056785E+02  0.34304082938E+02  0.37644723167E+03  0.39459058987E+03  0.90481718755E+02 0.  0.
        -13    1    4    4    0    0 -0.89638749020E+01  0.46102672902E+02  0.10666764367E+03  0.11654958118E+03  0.10566000000E+00 0. -1.
     200003    1    4    4    0    0 -0.59047181883E+02 -0.11798589964E+02  0.26977958800E+03  0.27804100869E+03  0.30000000000E+02 0. -1.
     200000    1    3    3    0    0  0.17826192648E+03  0.33182096876E+02 -0.17347679436E+03  0.27050612593E+03  0.10100000000E+03 0.  1.
    -200001    1    1    2    0    0 -0.11025086969E+03 -0.67486179813E+02 -0.80741924569E+03  0.10219610937E+04  0.61300000000E+03 0.  1.
<mgrwt>
<rscale>  0 0.15750574E+04</rscale>
<asrwt>0</asrwt>
<pdfrwt beam="1">  1        2 0.16367904E+00 0.15750574E+04</pdfrwt>
<pdfrwt beam="2">  1       -2 0.77329215E-01 0.15750574E+04</pdfrwt>
<totfact> 0.32988883E+01</totfact>
</mgrwt>
</event>
<event>
 8    1  0.7685004E-052  0.1315743E+04  0.7818608E-02  0.9017173E-01
         -2   -1    0    0    0  501 -0.00000000000E+00  0.00000000000E+00  0.12639363698E+04  0.12639363698E+04  0.25500000000E-02 0. -1.
          2   -1    0    0  501    0  0.00000000000E+00 -0.00000000000E+00 -0.34241822638E+03  0.34241822639E+03  0.25500000000E-02 0.  1.
     200001    2    1    2    0    0  0.13963242379E+03 -0.18215577280E+03  0.38362407767E+03  0.75913740721E+03  0.61355051195E+03 0.  0.
    5000001    2    3    3    0    0  0.35566690829E+03 -0.16142824776E+03  0.29433636909E+03  0.50364998347E+03  0.12029704425E+03 0.  0.
        -13    1    4    4    0    0  0.28043070782E+03 -0.12378728210E+03  0.27597900694E+03  0.41246708539E+03  0.10566000000E+00 0. -1.
     200003    1    4    4    0    0  0.75236200471E+02 -0.37640965656E+02  0.18357362150E+02  0.91182898078E+02  0.30000000000E+02 0. -1.
     200000    1    3    3    0    0 -0.21603448449E+03 -0.20727525043E+02  0.89287708587E+02  0.25548742374E+03  0.10100000000E+03 0. -1.
    -200001    1    1    2    0    0 -0.13963242379E+03  0.18215577280E+03  0.53789406574E+03  0.84721718898E+03  0.61300000000E+03 0. -1.
<mgrwt>
<rscale>  0 0.13157429E+04</rscale>
<asrwt>0</asrwt>
<pdfrwt beam="1">  1        2 0.48916889E-01 0.13157429E+04</pdfrwt>
<pdfrwt beam="2">  1       -2 0.18056234E+00 0.13157429E+04</pdfrwt>
<totfact> 0.18114228E+01</totfact>
</mgrwt>
</event>
<event>
 8    1  0.7685004E-052  0.1984496E+04  0.7818608E-02  0.8613904E-01
         -2   -1    0    0    0  501 -0.00000000000E+00  0.00000000000E+00  0.29471345332E+03  0.29471345333E+03  0.25500000000E-02 0. -1.
          2   -1    0    0  501    0  0.00000000000E+00 -0.00000000000E+00 -0.33407242327E+04  0.33407242327E+04  0.25500000000E-02 0.  1.
     200001    2    1    2    0    0  0.22996075633E+03  0.66451956078E+03 -0.21413621371E+04  0.23359661157E+04  0.61387107389E+03 0.  0.
    5000001    2    3    3    0    0 -0.86787492266E+02 -0.67538607107E+01 -0.68180345503E+03  0.69540218649E+03  0.10559624161E+03 0.  0.
        -13    1    4    4    0    0 -0.48212538757E+01 -0.19946197918E+01 -0.40694355606E+03  0.40697701653E+03  0.10566000000E+00 0. -1.
     200003    1    4    4    0    0 -0.81966238390E+02 -0.47592409189E+01 -0.27485989897E+03  0.28842516996E+03  0.30000000000E+02 0. -1.
     200000    1    3    3    0    0  0.31674824859E+03  0.67127342149E+03 -0.14595586821E+04  0.16405639292E+04  0.10100000000E+03 0. -1.
    -200001    1    1    2    0    0 -0.22996075633E+03 -0.66451956078E+03 -0.90464864222E+03  0.12994715703E+04  0.61300000000E+03 0.  1.
<mgrwt>
<rscale>  0 0.19844963E+04</rscale>
<asrwt>0</asrwt>
<pdfrwt beam="1">  1        2 0.47724630E+00 0.19844963E+04</pdfrwt>
<pdfrwt beam="2">  1       -2 0.42101924E-01 0.19844963E+04</pdfrwt>
<totfact> 0.75054744E+00</totfact>
</mgrwt>
</event>
<event>
 8    1  0.7685004E-052  0.1342017E+04  0.7818608E-02  0.8996893E-01
         -2   -1    0    0    0  501 -0.00000000000E+00  0.00000000000E+00  0.18021161281E+03  0.18021161283E+03  0.25500000000E-02 0. -1.
          2   -1    0    0  501    0  0.00000000000E+00 -0.00000000000E+00 -0.24984637504E+04  0.24984637504E+04  0.25500000000E-02 0.  1.
     200001    2    1    2    0    0  0.19897840970E+03  0.10700813657E+03 -0.85405834851E+03  0.10753427088E+04  0.61310939471E+03 0.  0.
    5000001    2    3    3    0    0  0.16039933154E+03  0.10478127399E+03  0.39416854583E+01  0.21055466397E+03  0.87239146585E+02 0.  0.
        -13    1    4    4    0    0  0.14706156926E+03  0.98720808731E+02  0.26562419641E+01  0.17714392457E+03  0.10566000000E+00 0. -1.
     200003    1    4    4    0    0  0.13337762290E+02  0.60604652583E+01  0.12854434942E+01  0.33410739396E+02  0.30000000000E+02 0.  1.
     200000    1    3    3    0    0  0.38579078160E+02  0.22268625840E+01 -0.85800003396E+03  0.86478804482E+03  0.10100000000E+03 0.  1.
    -200001    1    1    2    0    0 -0.19897840970E+03 -0.10700813657E+03 -0.14641937891E+04  0.16033326545E+04  0.61300000000E+03 0. -1.
<mgrwt>
<rscale>  0 0.13420167E+04</rscale>
<asrwt>0</asrwt>
<pdfrwt beam="1">  1        2 0.35692337E+00 0.13420167E+04</pdfrwt>
<pdfrwt beam="2">  1       -2 0.25744518E-01 0.13420167E+04</pdfrwt>
<totfact> 0.58904725E+01</totfact>
</mgrwt>
</event>
<event>
 8    1  0.7685004E-052  0.1862365E+04  0.7818608E-02  0.8673820E-01
         -2   -1    0    0    0  501 -0.00000000000E+00  0.00000000000E+00  0.27452644187E+03  0.27452644189E+03  0.25500000000E-02 0. -1.
          2   -1    0    0  501    0  0.00000000000E+00 -0.00000000000E+00 -0.31585316175E+04  0.31585316175E+04  0.25500000000E-02 0.  1.
     200001    2    1    2    0    0  0.28542712074E+03  0.64023087825E+03 -0.14465818747E+04  0.17203645769E+04  0.61293632517E+03 0.  0.
    5000001    2    3    3    0    0  0.13819893142E+03  0.95250406534E+02 -0.79310378311E+03  0.85093115772E+03  0.25864771373E+03 0.  0.
        -13    1    4    4    0    0 -0.32385120288E+02  0.17949825365E+02 -0.16455826751E+01  0.37063612251E+02  0.10566000000E+00 0. -1.
     200003    1    4    4    0    0  0.17058405171E+03  0.77300581169E+02 -0.79145820043E+03  0.81386754547E+03  0.30000000000E+02 0. -1.
     200000    1    3    3    0    0  0.14722818932E+03  0.54498047171E+03 -0.65347809157E+03  0.86943341921E+03  0.10100000000E+03 0. -1.
    -200001    1    1    2    0    0 -0.28542712074E+03 -0.64023087825E+03 -0.14374233009E+04  0.17126934824E+04  0.61300000000E+03 0. -1.
<mgrwt>
<rscale>  0 0.18623646E+04</rscale>
<asrwt>0</asrwt>
<pdfrwt beam="1">  1        2 0.45121878E+00 0.18623646E+04</pdfrwt>
<pdfrwt beam="2">  1       -2 0.39218065E-01 0.18623646E+04</pdfrwt>
<totfact> 0.11130216E+01</totfact>
</mgrwt>
</event>
<event>
 8    1  0.7685004E-052  0.2544040E+04  0.7818608E-02  0.8387462E-01
         -2   -1    0    0    0  501 -0.00000000000E+00  0.00000000000E+00  0.13529755838E+04  0.13529755838E+04  0.25500000000E-02 0. -1.
          2   -1    0    0  501    0  0.00000000000E+00 -0.00000000000E+00 -0.11959080334E+04  0.11959080334E+04  0.25500000000E-02 0.  1.
     200001    2    1    2    0    0  0.95172679364E+02  0.94419624292E+03  0.66389729564E+03  0.13106551348E+04  0.61359015569E+03 0.  0.
    5000001    2    3    3    0    0 -0.35817824550E+02  0.65036276925E+02 -0.84915543532E+02  0.14403504838E+03  0.89570149914E+02 0.  0.
        -13    1    4    4    0    0  0.11743069928E+02 -0.14631316625E+02 -0.11939302602E+02  0.22238103070E+02  0.10566000000E+00 0. -1.
     200003    1    4    4    0    0 -0.47560894478E+02  0.79667593550E+02 -0.72976240930E+02  0.12179694531E+03  0.30000000000E+02 0. -1.
     200000    1    3    3    0    0  0.13099050391E+03  0.87915996599E+03  0.74881283917E+03  0.11666200864E+04  0.10100000000E+03 0.  1.
    -200001    1    1    2    0    0 -0.95172679364E+02 -0.94419624292E+03 -0.50682974519E+03  0.12382284824E+04  0.61300000000E+03 0. -1.
<mgrwt>
<rscale>  0 0.25440396E+04</rscale>
<asrwt>0</asrwt>
<pdfrwt beam="1">  1        2 0.17084400E+00 0.25440396E+04</pdfrwt>
<pdfrwt beam="2">  1       -2 0.19328223E+00 0.25440396E+04</pdfrwt>
<totfact> 0.28297761E+00</totfact>
</mgrwt>
</event>
<event>
 8    1  0.7685004E-052  0.1558572E+04  0.7818608E-02  0.8846411E-01
         -2   -1    0    0    0  501 -0.00000000000E+00  0.00000000000E+00  0.22184830994E+04  0.22184830994E+04  0.25500000000E-02 0. -1.
          2   -1    0    0  501    0  0.00000000000E+00 -0.00000000000E+00 -0.27373945530E+03  0.27373945531E+03  0.25500000000E-02 0.  1.
     200001    2    1    2    0    0 -0.80278145712E+02 -0.24217423227E+03  0.31997038816E+03  0.73701599346E+03  0.61295887779E+03 0.  0.
    5000001    2    3    3    0    0  0.42697087472E+02 -0.22836215512E+03  0.46150225034E+03  0.52360102335E+03  0.84861000601E+02 0.  0.
        -13    1    4    4    0    0  0.35280290939E+02 -0.37900900161E+02  0.69335893041E+02  0.86537011675E+02  0.10566000000E+00 0. -1.
     200003    1    4    4    0    0  0.74167965322E+01 -0.19046125496E+03  0.39216635730E+03  0.43706401168E+03  0.30000000000E+02 0. -1.
     200000    1    3    3    0    0 -0.12297523318E+03 -0.13812077152E+02 -0.14153186218E+03  0.21341497010E+03  0.10100000000E+03 0.  1.
    -200001    1    1    2    0    0  0.80278145712E+02  0.24217423227E+03  0.16247732560E+04  0.17552065613E+04  0.61300000000E+03 0. -1.
<mgrwt>
<rscale>  0 0.15585716E+04</rscale>
<asrwt>0</asrwt>
<pdfrwt beam="1">  1        2 0.39105635E-01 0.15585716E+04</pdfrwt>
<pdfrwt beam="2">  1       -2 0.31692617E+00 0.15585716E+04</pdfrwt>
<totfact> 0.31993227E+00</totfact>
</mgrwt>
</event>
<event>
 8    1  0.7685004E-052  0.1429845E+04  0.7818608E-02  0.8932494E-01
          2   -1    0    0  501    0  0.00000000000E+00  0.00000000000E+00  0.11219559692E+04  0.11219559692E+04  0.25500000000E-02 0.  1.
         -2   -1    0    0    0  501 -0.00000000000E+00 -0.00000000000E+00 -0.45555653985E+03  0.45555653986E+03  0.25500000000E-02 0. -1.
     200001    2    1    2    0    0 -0.19584187541E+02  0.36479713489E+03  0.38460729443E+03  0.81028614263E+03  0.61251969110E+03 0.  0.
    5000001    2    3    3    0    0 -0.59156549494E+02  0.31487410667E+03  0.51889972907E+03  0.63058155566E+03  0.16040875635E+03 0.  0.
        -13    1    4    4    0    0  0.72223792617E+00 -0.16814743361E+02  0.10405213699E+02  0.19787290316E+02  0.10566000000E+00 0. -1.
     200003    1    4    4    0    0 -0.59878787420E+02  0.33168885003E+03  0.50849451537E+03  0.61079426535E+03  0.30000000000E+02 0. -1.
     200000    1    3    3    0    0  0.39572361953E+02  0.49923028215E+02 -0.13429243463E+03  0.17970458697E+03  0.10100000000E+03 0. -1.
    -200001    1    1    2    0    0  0.19584187541E+02 -0.36479713489E+03  0.28179213489E+03  0.76722636641E+03  0.61300000000E+03 0.  1.
<mgrwt>
<rscale>  0 0.14298453E+04</rscale>
<asrwt>0</asrwt>
<pdfrwt beam="1">  1        2 0.16027942E+00 0.14298453E+04</pdfrwt>
<pdfrwt beam="2">  1       -2 0.65079506E-01 0.14298453E+04</pdfrwt>
<totfact> 0.50224096E+01</totfact>
</mgrwt>
</event>
<event>
 8    1  0.7685004E-052  0.2423691E+04  0.7818608E-02  0.8430687E-01
         -2   -1    0    0    0  501 -0.00000000000E+00  0.00000000000E+00  0.18438196740E+04  0.18438196740E+04  0.25500000000E-02 0. -1.
          2   -1    0    0  501    0  0.00000000000E+00 -0.00000000000E+00 -0.79648225052E+03  0.79648225053E+03  0.25500000000E-02 0.  1.
     200001    2    1    2    0    0  0.55679139258E+03  0.32000797523E+03 -0.37542308286E+03  0.96326936150E+03  0.61198334339E+03 0.  0.
    5000001    2    3    3    0    0  0.18741068228E+03 -0.11505880306E+03 -0.28386512507E+03  0.37649080842E+03  0.11315753444E+03 0.  0.
        -13    1    4    4    0    0  0.29031173861E+02 -0.22629903392E+02 -0.13039944696E+03  0.13549519738E+03  0.10566000000E+00 0. -1.
     200003    1    4    4    0    0  0.15837950842E+03 -0.92428899670E+02 -0.15346567811E+03  0.24099561104E+03  0.30000000000E+02 0. -1.
     200000    1    3    3    0    0  0.36938071030E+03  0.43506677829E+03 -0.91557957795E+02  0.58677855308E+03  0.10100000000E+03 0. -1.
    -200001    1    1    2    0    0 -0.55679139258E+03 -0.32000797523E+03  0.14227605063E+04  0.16770325630E+04  0.61300000000E+03 0. -1.
<mgrwt>
<rscale>  0 0.24236911E+04</rscale>
<asrwt>0</asrwt>
<pdfrwt beam="1">  1        2 0.11378318E+00 0.24236911E+04</pdfrwt>
<pdfrwt beam="2">  1       -2 0.26340281E+00 0.24236911E+04</pdfrwt>
<totfact> 0.18331385E+00</totfact>
</mgrwt>
</event>
<event>
 8    1  0.7685004E-052  0.1564601E+04  0.7818608E-02  0.8842595E-01
         -2   -1    0    0    0  501 -0.00000000000E+00  0.00000000000E+00  0.96197739973E+03  0.96197739973E+03  0.25500000000E-02 0. -1.
          2   -1    0    0  501    0  0.00000000000E+00 -0.00000000000E+00 -0.63618356409E+03  0.63618356410E+03  0.25500000000E-02 0.  1.
     200001    2    1    2    0    0 -0.24424109445E+03 -0.41980075002E+03  0.16603992803E+03  0.79992748111E+03  0.61353755826E+03 0.  0.
    5000001    2    3    3    0    0 -0.31154104680E+03 -0.48665248985E+03  0.89610822889E+02  0.64168448184E+03  0.26427335270E+03 0.  0.
        -13    1    4    4    0    0 -0.65738558217E+02 -0.32848246273E+03  0.93599958444E+02  0.34782646498E+03  0.10566000000E+00 0. -1.
     200003    1    4    4    0    0 -0.24580248858E+03 -0.15817002712E+03 -0.39891355552E+01  0.29385801687E+03  0.30000000000E+02 0. -1.
     200000    1    3    3    0    0  0.67299952348E+02  0.66851739828E+02  0.76429105138E+02  0.15824299926E+03  0.10100000000E+03 0. -1.
    -200001    1    1    2    0    0  0.24424109445E+03  0.41980075002E+03  0.15975390761E+03  0.79823348272E+03  0.61300000000E+03 0. -1.
<mgrwt>
<rscale>  0 0.15646012E+04</rscale>
<asrwt>0</asrwt>
<pdfrwt beam="1">  1        2 0.90883368E-01 0.15646012E+04</pdfrwt>
<pdfrwt beam="2">  1       -2 0.13742534E+00 0.15646012E+04</pdfrwt>
<totfact> 0.18364199E+01</totfact>
</mgrwt>
</event>
<event>
 8    1  0.7685004E-052  0.1554011E+04  0.7818608E-02  0.8849310E-01
         -2   -1    0    0    0  501 -0.00000000000E+00  0.00000000000E+00  0.17900021060E+03  0.17900021062E+03  0.25500000000E-02 0. -1.
          2   -1    0    0  501    0  0.00000000000E+00 -0.00000000000E+00 -0.33728320821E+04  0.33728320821E+04  0.25500000000E-02 0.  1.
     200001    2    1    2    0    0  0.31080478568E+03 -0.26226103866E+03 -0.21710893090E+04  0.22920101559E+04  0.61180168354E+03 0.  0.
    5000001    2    3    3    0    0  0.92535466723E+02 -0.63251640945E+02 -0.18070106524E+04  0.18124264780E+04  0.83896707041E+02 0.  0.
        -13    1    4    4    0    0  0.72822222623E+02 -0.72630231174E+02 -0.13051464543E+04  0.13091926921E+04  0.10566000000E+00 0. -1.
     200003    1    4    4    0    0  0.19713244100E+02  0.93785902295E+01 -0.50186419807E+03  0.50323378588E+03  0.30000000000E+02 0.  1.
     200000    1    3    3    0    0  0.21826931896E+03 -0.19900939771E+03 -0.36407865664E+03  0.47958367799E+03  0.10100000000E+03 0. -1.
    -200001    1    1    2    0    0 -0.31080478568E+03  0.26226103866E+03 -0.10227425625E+04  0.12598221368E+04  0.61300000000E+03 0. -1.
<mgrwt>
<rscale>  0 0.15540111E+04</rscale>
<asrwt>0</asrwt>
<pdfrwt beam="1">  1        2 0.48183312E+00 0.15540111E+04</pdfrwt>
<pdfrwt beam="2">  1       -2 0.25571461E-01 0.15540111E+04</pdfrwt>
<totfact> 0.19197527E+01</totfact>
</mgrwt>
</event>
<event>
 8    1  0.7685004E-052  0.1303059E+04  0.7818608E-02  0.9027143E-01
          2   -1    0    0  501    0  0.00000000000E+00  0.00000000000E+00  0.97219688446E+03  0.97219688446E+03  0.25500000000E-02 0.  1.
         -2   -1    0    0    0  501 -0.00000000000E+00 -0.00000000000E+00 -0.43663054452E+03  0.43663054453E+03  0.25500000000E-02 0. -1.
     200001    2    1    2    0    0  0.37608627289E+01  0.21627645450E+03  0.24386928206E+03  0.69633474662E+03  0.61532121998E+03 0.  0.
    5000001    2    3    3    0    0 -0.15479382375E+02  0.37729868866E+03  0.30969734046E+03  0.49426376850E+03  0.76094141809E+02 0.  0.
        -13    1    4    4    0    0  0.80764609255E+01  0.47781719959E+02  0.15492311578E+02  0.50875778769E+02  0.10566000000E+00 0. -1.
     200003    1    4    4    0    0 -0.23555843300E+02  0.32951696870E+03  0.29420502888E+03  0.44338798973E+03  0.30000000000E+02 0. -1.
     200000    1    3    3    0    0  0.19240245104E+02 -0.16102223416E+03 -0.65828058399E+02  0.20207097812E+03  0.10100000000E+03 0. -1.
    -200001    1    1    2    0    0 -0.37608627289E+01 -0.21627645450E+03  0.29169705787E+03  0.71249268237E+03  0.61300000000E+03 0.  1.
<mgrwt>
<rscale>  0 0.13030593E+04</rscale>
<asrwt>0</asrwt>
<pdfrwt beam="1">  1        2 0.13888527E+00 0.13030593E+04</pdfrwt>
<pdfrwt beam="2">  1       -2 0.62375794E-01 0.13030593E+04</pdfrwt>
<totfact> 0.68381710E+01</totfact>
</mgrwt>
</event>
<event>
 8    1  0.7685004E-052  0.1393291E+04  0.7818608E-02  0.8958689E-01
         -2   -1    0    0    0  501 -0.00000000000E+00  0.00000000000E+00  0.71837195833E+03  0.71837195833E+03  0.25500000000E-02 0. -1.
          2   -1    0    0  501    0  0.00000000000E+00 -0.00000000000E+00 -0.67557604536E+03  0.67557604536E+03  0.25500000000E-02 0.  1.
     200001    2    1    2    0    0 -0.86301345583E+02  0.30329536601E+03 -0.10262668829E+03  0.68942494925E+03  0.60443239672E+03 0.  0.
    5000001    2    3    3    0    0 -0.97231736616E+02 -0.38513262998E+02 -0.20335788552E+03  0.31888428156E+03  0.22225092439E+03 0.  0.
        -13    1    4    4    0    0 -0.84465982866E+02  0.83651327870E+02 -0.10653901353E+03  0.15963276445E+03  0.10566000000E+00 0. -1.
     200003    1    4    4    0    0 -0.12765753749E+02 -0.12216459087E+03 -0.96818871987E+02  0.15925151712E+03  0.30000000000E+02 0. -1.
     200000    1    3    3    0    0  0.10930391032E+02  0.34180862901E+03  0.10073119722E+03  0.37054066769E+03  0.10100000000E+03 0. -1.
    -200001    1    1    2    0    0  0.86301345583E+02 -0.30329536601E+03  0.14542260126E+03  0.70452305445E+03  0.61300000000E+03 0. -1.
<mgrwt>
<rscale>  0 0.13932909E+04</rscale>
<asrwt>0</asrwt>
<pdfrwt beam="1">  1        2 0.96510864E-01 0.13932909E+04</pdfrwt>
<pdfrwt beam="2">  1       -2 0.10262457E+00 0.13932909E+04</pdfrwt>
<totfact> 0.35620909E+01</totfact>
</mgrwt>
</event>
<event>
 8    1  0.7685004E-052  0.3592129E+04  0.7818608E-02  0.8092297E-01
          2   -1    0    0  501    0  0.00000000000E+00  0.00000000000E+00  0.35992202723E+04  0.35992202723E+04  0.25500000000E-02 0.  1.
         -2   -1    0    0    0  501 -0.00000000000E+00 -0.00000000000E+00 -0.89626276981E+03  0.89626276981E+03  0.25500000000E-02 0. -1.
     200001    2    1    2    0    0  0.10802889727E+04 -0.10428806604E+04  0.23171427127E+04  0.28283758505E+04  0.61313560021E+03 0.  0.
    5000001    2    3    3    0    0  0.59015468799E+03 -0.92173796757E+03  0.16857099518E+04  0.20136271159E+04  0.12325860377E+03 0.  0.
        -13    1    4    4    0    0  0.55063619721E+02 -0.10400446508E+03  0.12269052546E+03  0.17000560925E+03  0.10566000000E+00 0. -1.
     200003    1    4    4    0    0  0.53509106827E+03 -0.81773350249E+03  0.15630194264E+04  0.18436215066E+04  0.30000000000E+02 0. -1.
     200000    1    3    3    0    0  0.49013428472E+03 -0.12114269282E+03  0.63143276085E+03  0.81474873462E+03  0.10100000000E+03 0.  1.
    -200001    1    1    2    0    0 -0.10802889727E+04  0.10428806604E+04  0.38581478981E+03  0.16671071916E+04  0.61300000000E+03 0. -1.
<mgrwt>
<rscale>  0 0.35921287E+04</rscale>
<asrwt>0</asrwt>
<pdfrwt beam="1">  1        2 0.51417434E+00 0.35921287E+04</pdfrwt>
<pdfrwt beam="2">  1       -2 0.12803753E+00 0.35921287E+04</pdfrwt>
<totfact> 0.38699520E-01</totfact>
</mgrwt>
</event>
<event>
 8    1  0.7685004E-052  0.1318319E+04  0.7818608E-02  0.9015163E-01
         -2   -1    0    0    0  501 -0.00000000000E+00  0.00000000000E+00  0.36900283123E+03  0.36900283124E+03  0.25500000000E-02 0. -1.
          2   -1    0    0  501    0  0.00000000000E+00 -0.00000000000E+00 -0.11774747721E+04  0.11774747721E+04  0.25500000000E-02 0.  1.
     200001    2    1    2    0    0  0.20962476547E+03 -0.11533746866E+03 -0.44385874753E+03  0.79417643045E+03  0.61356364051E+03 0.  0.
    5000001    2    3    3    0    0 -0.12713260696E+03  0.13990287600E+03 -0.86132656177E+02  0.23139572906E+03  0.10192955656E+03 0.  0.
        -13    1    4    4    0    0 -0.42433056136E+02  0.94580702035E+02 -0.79316582828E+02  0.13052664451E+03  0.10566000000E+00 0. -1.
     200003    1    4    4    0    0 -0.84699550824E+02  0.45322173968E+02 -0.68160733495E+01  0.10086908455E+03  0.30000000000E+02 0.  1.
     200000    1    3    3    0    0  0.33675737243E+03 -0.25524034466E+03 -0.35772609136E+03  0.56278070139E+03  0.10100000000E+03 0. -1.
    -200001    1    1    2    0    0 -0.20962476547E+03  0.11533746866E+03 -0.36461319333E+03  0.75230117289E+03  0.61300000000E+03 0. -1.
<mgrwt>
<rscale>  0 0.13183194E+04</rscale>
<asrwt>0</asrwt>
<pdfrwt beam="1">  1        2 0.16821068E+00 0.13183194E+04</pdfrwt>
<pdfrwt beam="2">  1       -2 0.52714691E-01 0.13183194E+04</pdfrwt>
<totfact> 0.73211846E+01</totfact>
</mgrwt>
</event>
<event>
 8    1  0.7685004E-052  0.1927343E+04  0.7818608E-02  0.8641365E-01
         -2   -1    0    0    0  501 -0.00000000000E+00  0.00000000000E+00  0.23435671607E+04  0.23435671607E+04  0.25500000000E-02 0. -1.
          2   -1    0    0  501    0  0.00000000000E+00 -0.00000000000E+00 -0.39626031279E+03  0.39626031280E+03  0.25500000000E-02 0.  1.
     200001    2    1    2    0    0  0.24774078205E+03 -0.34778051319E+03  0.18405235455E+04  0.19851762600E+04  0.60915604009E+03 0.  0.
    5000001    2    3    3    0    0 -0.12084986851E+03 -0.32347736675E+03  0.75008058849E+03  0.82944421789E+03  0.78195420889E+02 0.  0.
        -13    1    4    4    0    0 -0.20531505204E+02 -0.13520478618E+03  0.33367077449E+03  0.36060792258E+03  0.10566000000E+00 0. -1.
     200003    1    4    4    0    0 -0.10031836330E+03 -0.18827258057E+03  0.41640981400E+03  0.46883629532E+03  0.30000000000E+02 0. -1.
     200000    1    3    3    0    0  0.36859065056E+03 -0.24303146447E+02  0.10904429570E+04  0.11557320421E+04  0.10100000000E+03 0. -1.
    -200001    1    1    2    0    0 -0.24774078205E+03  0.34778051319E+03  0.10678330245E+03  0.75465121356E+03  0.61300000000E+03 0.  1.
<mgrwt>
<rscale>  0 0.19273429E+04</rscale>
<asrwt>0</asrwt>
<pdfrwt beam="1">  1        2 0.56608615E-01 0.19273429E+04</pdfrwt>
<pdfrwt beam="2">  1       -2 0.33479531E+00 0.19273429E+04</pdfrwt>
<totfact> 0.15913488E+00</totfact>
</mgrwt>
</event>
<event>
 8    1  0.7685004E-052  0.1621308E+04  0.7818608E-02  0.8807563E-01
          2   -1    0    0  501    0  0.00000000000E+00  0.00000000000E+00  0.27491264372E+04  0.27491264372E+04  0.25500000000E-02 0.  1.
         -2   -1    0    0    0  501 -0.00000000000E+00 -0.00000000000E+00 -0.23904323383E+03  0.23904323384E+03  0.25500000000E-02 0. -1.
     200001    2    1    2    0    0 -0.12005034781E+03  0.22808924863E+03  0.40022184210E+03  0.77599410045E+03  0.61282340824E+03 0.  0.
    5000001    2    3    3    0    0  0.16656359499E+02 -0.18477988090E+03  0.21570938529E+03  0.29288387632E+03  0.69493794029E+02 0.  0.
        -13    1    4    4    0    0  0.79572077812E+01 -0.14181783049E+03  0.17807541154E+03  0.22778603460E+03  0.10566000000E+00 0. -1.
     200003    1    4    4    0    0  0.86991517178E+01 -0.42962050407E+02  0.37633973750E+02  0.65097841715E+02  0.30000000000E+02 0.  1.
     200000    1    3    3    0    0 -0.13670670731E+03  0.41286912953E+03  0.18451245681E+03  0.48311022413E+03  0.10100000000E+03 0. -1.
    -200001    1    1    2    0    0  0.12005034781E+03 -0.22808924863E+03  0.21098613613E+04  0.22121755706E+04  0.61300000000E+03 0.  1.
<mgrwt>
<rscale>  0 0.16213082E+04</rscale>
<asrwt>0</asrwt>
<pdfrwt beam="1">  1        2 0.39273232E+00 0.16213082E+04</pdfrwt>
<pdfrwt beam="2">  1       -2 0.34149036E-01 0.16213082E+04</pdfrwt>
<totfact> 0.25034390E+01</totfact>
</mgrwt>
</event>
<event>
 8    1  0.7685004E-052  0.1942790E+04  0.7818608E-02  0.8633846E-01
         -2   -1    0    0    0  501 -0.00000000000E+00  0.00000000000E+00  0.55395361773E+03  0.55395361773E+03  0.25500000000E-02 0. -1.
          2   -1    0    0  501    0  0.00000000000E+00 -0.00000000000E+00 -0.17034059149E+04  0.17034059149E+04  0.25500000000E-02 0.  1.
     200001    2    1    2    0    0  0.31467009193E+03  0.42911509670E+03 -0.11945345913E+04  0.14443660234E+04  0.61328890969E+03 0.  0.
    5000001    2    3    3    0    0  0.30110818464E+03  0.56146972867E+03 -0.99302739810E+03  0.11826260325E+04  0.81157404014E+02 0.  0.
        -13    1    4    4    0    0  0.13165670710E+03  0.29922001323E+03 -0.46387449469E+03  0.56749067202E+03  0.10566000000E+00 0. -1.
     200003    1    4    4    0    0  0.16945147753E+03  0.26224971545E+03 -0.52915290340E+03  0.61513536045E+03  0.30000000000E+02 0.  1.
     200000    1    3    3    0    0  0.13561907290E+02 -0.13235463198E+03 -0.20150719316E+03  0.26173999089E+03  0.10100000000E+03 0. -1.
    -200001    1    1    2    0    0 -0.31467009193E+03 -0.42911509670E+03  0.45082294039E+02  0.81299350932E+03  0.61300000000E+03 0. -1.
<mgrwt>
<rscale>  0 0.19427896E+04</rscale>
<asrwt>0</asrwt>
<pdfrwt beam="1">  1        2 0.24334370E+00 0.19427896E+04</pdfrwt>
<pdfrwt beam="2">  1       -2 0.79136232E-01 0.19427896E+04</pdfrwt>
<totfact> 0.15157959E+01</totfact>
</mgrwt>
</event>
<event>
 8    1  0.7685004E-052  0.1358890E+04  0.7818608E-02  0.8984126E-01
         -2   -1    0    0    0  501 -0.00000000000E+00  0.00000000000E+00  0.41017529606E+03  0.41017529606E+03  0.25500000000E-02 0. -1.
          2   -1    0    0  501    0  0.00000000000E+00 -0.00000000000E+00 -0.11254836389E+04  0.11254836389E+04  0.25500000000E-02 0.  1.
     200001    2    1    2    0    0  0.15590384000E+03 -0.22299235544E+03 -0.23556700755E+03  0.71106670441E+03  0.61326376476E+03 0.  0.
    5000001    2    3    3    0    0  0.24775763989E+03 -0.37689522445E+03 -0.16750034384E+03  0.49437040921E+03  0.11363044476E+03 0.  0.
        -13    1    4    4    0    0  0.17542597305E+03 -0.17357780666E+03 -0.77890564256E+02  0.25878654940E+03  0.10566000000E+00 0. -1.
     200003    1    4    4    0    0  0.72331666840E+02 -0.20331741780E+03 -0.89609779585E+02  0.23558385981E+03  0.30000000000E+02 0. -1.
     200000    1    3    3    0    0 -0.91853799890E+02  0.15390286901E+03 -0.68066663708E+02  0.21669629520E+03  0.10100000000E+03 0. -1.
    -200001    1    1    2    0    0 -0.15590384000E+03  0.22299235544E+03 -0.47974133531E+03  0.82459223057E+03  0.61300000000E+03 0.  1.
<mgrwt>
<rscale>  0 0.13588901E+04</rscale>
<asrwt>0</asrwt>
<pdfrwt beam="1">  1        2 0.16078338E+00 0.13588901E+04</pdfrwt>
<pdfrwt beam="2">  1       -2 0.58596471E-01 0.13588901E+04</pdfrwt>
<totfact> 0.62793045E+01</totfact>
</mgrwt>
</event>
<event>
 8    1  0.7685004E-052  0.2406354E+04  0.7818608E-02  0.8437129E-01
          2   -1    0    0  501    0  0.00000000000E+00  0.00000000000E+00  0.54398333933E+03  0.54398333933E+03  0.25500000000E-02 0.  1.
         -2   -1    0    0    0  501 -0.00000000000E+00 -0.00000000000E+00 -0.26611740020E+04  0.26611740020E+04  0.25500000000E-02 0. -1.
     200001    2    1    2    0    0  0.58377694579E+03  0.42051102969E+03 -0.20489564222E+04  0.22575023619E+04  0.61682205318E+03 0.  0.
    5000001    2    3    3    0    0  0.56476740723E+03  0.97441047609E+02 -0.99402607188E+03  0.11494343947E+04  0.68224732265E+02 0.  0.
        -13    1    4    4    0    0  0.56067187502E+02  0.21682089743E+02 -0.78041610166E+02  0.98509626998E+02  0.10566000000E+00 0. -1.
     200003    1    4    4    0    0  0.50870021973E+03  0.75758957866E+02 -0.91598446171E+03  0.10509247677E+04  0.30000000000E+02 0. -1.
     200000    1    3    3    0    0  0.19009538557E+02  0.32306998208E+03 -0.10549303503E+04  0.11080679672E+04  0.10100000000E+03 0. -1.
    -200001    1    1    2    0    0 -0.58377694579E+03 -0.42051102969E+03 -0.68234240479E+02  0.94765497946E+03  0.61300000000E+03 0.  1.
<mgrwt>
<rscale>  0 0.24063535E+04</rscale>
<asrwt>0</asrwt>
<pdfrwt beam="1">  1        2 0.77711907E-01 0.24063535E+04</pdfrwt>
<pdfrwt beam="2">  1       -2 0.38016771E+00 0.24063535E+04</pdfrwt>
<totfact> 0.54939758E-01</totfact>
</mgrwt>
</event>
<event>
 8    1  0.7685004E-052  0.1576129E+04  0.7818608E-02  0.8835349E-01
          2   -1    0    0  501    0  0.00000000000E+00  0.00000000000E+00  0.18427913821E+04  0.18427913821E+04  0.25500000000E-02 0.  1.
         -2   -1    0    0    0  501 -0.00000000000E+00 -0.00000000000E+00 -0.33701341864E+03  0.33701341865E+03  0.25500000000E-02 0. -1.
     200001    2    1    2    0    0 -0.40382983006E+03 -0.15774579135E+03  0.10876198210E+04  0.13203936660E+04  0.61037717190E+03 0.  0.
    5000001    2    3    3    0    0 -0.17651085449E+02  0.13659001074E+03  0.36815030569E+02  0.15843011465E+03  0.69111235713E+02 0.  0.
        -13    1    4    4    0    0  0.11283550637E+02  0.54415500717E+02 -0.76929008374E+01  0.56103093681E+02  0.10566000000E+00 0. -1.
     200003    1    4    4    0    0 -0.28934636086E+02  0.82174510024E+02  0.44507931406E+02  0.10232702097E+03  0.30000000000E+02 0. -1.
     200000    1    3    3    0    0 -0.38617874461E+03 -0.29433580209E+03  0.10508047904E+04  0.11619635514E+04  0.10100000000E+03 0.  1.
    -200001    1    1    2    0    0  0.40382983006E+03  0.15774579135E+03  0.41815814245E+03  0.85941113469E+03  0.61300000000E+03 0.  1.
<mgrwt>
<rscale>  0 0.15761287E+04</rscale>
<asrwt>0</asrwt>
<pdfrwt beam="1">  1        2 0.26325591E+00 0.15761287E+04</pdfrwt>
<pdfrwt beam="2">  1       -2 0.48144775E-01 0.15761287E+04</pdfrwt>
<totfact> 0.38035266E+01</totfact>
</mgrwt>
</event>
<event>
 8    1  0.7685004E-052  0.1506238E+04  0.7818608E-02  0.8880315E-01
         -2   -1    0    0    0  501 -0.00000000000E+00  0.00000000000E+00  0.16968859302E+03  0.16968859304E+03  0.25500000000E-02 0. -1.
          2   -1    0    0  501    0  0.00000000000E+00 -0.00000000000E+00 -0.33425230197E+04  0.33425230197E+04  0.25500000000E-02 0.  1.
     200001    2    1    2    0    0  0.22593578433E+03 -0.30886985050E+03 -0.20783505593E+04  0.22006813999E+04  0.61401141148E+03 0.  0.
    5000001    2    3    3    0    0  0.80601520439E+02  0.33482437928E+02 -0.20893368715E+02  0.10744031759E+03  0.59069537341E+02 0.  0.
        -13    1    4    4    0    0  0.57253170383E+02  0.85238246641E+01 -0.22069963752E+02  0.61948975535E+02  0.10566000000E+00 0. -1.
     200003    1    4    4    0    0  0.23348350056E+02  0.24958613264E+02  0.11765950367E+01  0.45491342059E+02  0.30000000000E+02 0. -1.
     200000    1    3    3    0    0  0.14533426389E+03 -0.34235228843E+03 -0.20574571906E+04  0.20932410823E+04  0.10100000000E+03 0.  1.
    -200001    1    1    2    0    0 -0.22593578433E+03  0.30886985050E+03 -0.10944838674E+04  0.13115302128E+04  0.61300000000E+03 0. -1.
<mgrwt>
<rscale>  0 0.15062377E+04</rscale>
<asrwt>0</asrwt>
<pdfrwt beam="1">  1        2 0.47750325E+00 0.15062377E+04</pdfrwt>
<pdfrwt beam="2">  1       -2 0.24241230E-01 0.15062377E+04</pdfrwt>
<totfact> 0.22137602E+01</totfact>
</mgrwt>
</event>
<event>
 8    1  0.7685004E-052  0.1537459E+04  0.7818608E-02  0.8859918E-01
          2   -1    0    0  501    0  0.00000000000E+00  0.00000000000E+00  0.24363280669E+04  0.24363280669E+04  0.25500000000E-02 0.  1.
         -2   -1    0    0    0  501 -0.00000000000E+00 -0.00000000000E+00 -0.24255575011E+03  0.24255575012E+03  0.25500000000E-02 0. -1.
     200001    2    1    2    0    0  0.20453979570E+03  0.51096919581E+02  0.18195547349E+04  0.19303818318E+04  0.60921848299E+03 0.  0.
    5000001    2    3    3    0    0 -0.14962975589E+03  0.13418156601E+03  0.77317386586E+03  0.81797316011E+03  0.17575126546E+03 0.  0.
        -13    1    4    4    0    0 -0.41476321288E+02 -0.20045196420E+02  0.42033243093E+02  0.62361044058E+02  0.10566000000E+00 0. -1.
     200003    1    4    4    0    0 -0.10815343460E+03  0.15422676243E+03  0.73114062276E+03  0.75561211605E+03  0.30000000000E+02 0. -1.
     200000    1    3    3    0    0  0.35416955159E+03 -0.83084646432E+02  0.10463808691E+04  0.11124086717E+04  0.10100000000E+03 0. -1.
    -200001    1    1    2    0    0 -0.20453979570E+03 -0.51096919581E+02  0.37421758179E+03  0.74850198513E+03  0.61300000000E+03 0. -1.
<mgrwt>
<rscale>  0 0.15374594E+04</rscale>
<asrwt>0</asrwt>
<pdfrwt beam="1">  1        2 0.34804688E+00 0.15374594E+04</pdfrwt>
<pdfrwt beam="2">  1       -2 0.34650820E-01 0.15374594E+04</pdfrwt>
<totfact> 0.35927445E+01</totfact>
</mgrwt>
</event>
<event>
 8    1  0.7685004E-052  0.1689008E+04  0.7818608E-02  0.8767658E-01
          2   -1    0    0  501    0  0.00000000000E+00  0.00000000000E+00  0.19213218958E+04  0.19213218958E+04  0.25500000000E-02 0.  1.
         -2   -1    0    0    0  501 -0.00000000000E+00 -0.00000000000E+00 -0.37119597365E+03  0.37119597366E+03  0.25500000000E-02 0. -1.
     200001    2    1    2    0    0  0.15214099209E+03  0.27748106420E+03  0.14360208344E+04  0.15932814334E+04  0.61338997933E+03 0.  0.
    5000001    2    3    3    0    0  0.30351769397E+03  0.36247656905E+03  0.95843727992E+03  0.10751828007E+04  0.11791429805E+03 0.  0.
        -13    1    4    4    0    0  0.19377862940E+03  0.26751013867E+03  0.56111557671E+03  0.65112405353E+03  0.10566000000E+00 0. -1.
     200003    1    4    4    0    0  0.10973906457E+03  0.94966430386E+02  0.39732170321E+03  0.42405874715E+03  0.30000000000E+02 0.  1.
     200000    1    3    3    0    0 -0.15137670188E+03 -0.84995504857E+02  0.47758355449E+03  0.51809863273E+03  0.10100000000E+03 0.  1.
    -200001    1    1    2    0    0 -0.15214099209E+03 -0.27748106420E+03  0.11410508775E+03  0.69923643606E+03  0.61300000000E+03 0.  1.
<mgrwt>
<rscale>  0 0.16890079E+04</rscale>
<asrwt>0</asrwt>
<pdfrwt beam="1">  1        2 0.27447456E+00 0.16890079E+04</pdfrwt>
<pdfrwt beam="2">  1       -2 0.53027996E-01 0.16890079E+04</pdfrwt>
<totfact> 0.28197229E+01</totfact>
</mgrwt>
</event>
<event>
 8    1  0.7685004E-052  0.1387742E+04  0.7818608E-02  0.8962740E-01
          2   -1    0    0  501    0  0.00000000000E+00  0.00000000000E+00  0.45577909888E+03  0.45577909889E+03  0.25500000000E-02 0.  1.
         -2   -1    0    0    0  501 -0.00000000000E+00 -0.00000000000E+00 -0.10563380201E+04  0.10563380201E+04  0.25500000000E-02 0. -1.
     200001    2    1    2    0    0  0.30031076736E+03  0.34194478621E+02 -0.16638556772E+03  0.70240647919E+03  0.61182913096E+03 0.  0.
    5000001    2    3    3    0    0  0.14284209485E+03  0.21440170158E+03 -0.26189967654E+03  0.42564851450E+03  0.21497270438E+03 0.  0.
        -13    1    4    4    0    0  0.91577766429E+02 -0.13027822175E+02 -0.34870561881E+02  0.98854330733E+02  0.10566000000E+00 0. -1.
     200003    1    4    4    0    0  0.51264328416E+02  0.22742952376E+03 -0.22702911466E+03  0.32679418377E+03  0.30000000000E+02 0. -1.
     200000    1    3    3    0    0  0.15746867252E+03 -0.18020722296E+03  0.95514108823E+02  0.27675796468E+03  0.10100000000E+03 0.  1.
    -200001    1    1    2    0    0 -0.30031076736E+03 -0.34194478621E+02 -0.43417335355E+03  0.80971063985E+03  0.61300000000E+03 0. -1.
<mgrwt>
<rscale>  0 0.13877417E+04</rscale>
<asrwt>0</asrwt>
<pdfrwt beam="1">  1        2 0.65111300E-01 0.13877417E+04</pdfrwt>
<pdfrwt beam="2">  1       -2 0.15090543E+00 0.13877417E+04</pdfrwt>
<totfact> 0.21455145E+01</totfact>
</mgrwt>
</event>
<event>
 8    1  0.7685004E-052  0.1551114E+04  0.7818608E-02  0.8851156E-01
         -2   -1    0    0    0  501 -0.00000000000E+00  0.00000000000E+00  0.16553748403E+03  0.16553748405E+03  0.25500000000E-02 0. -1.
          2   -1    0    0  501    0  0.00000000000E+00 -0.00000000000E+00 -0.36335499372E+04  0.36335499372E+04  0.25500000000E-02 0.  1.
     200001    2    1    2    0    0  0.44440355247E+03  0.10643285062E+03 -0.14154073037E+04  0.16087040373E+04  0.61296686294E+03 0.  0.
    5000001    2    3    3    0    0  0.33448998153E+03  0.18679235799E+03 -0.34189465272E+03  0.52188802005E+03  0.93274965383E+02 0.  0.
        -13    1    4    4    0    0  0.58937135305E+02  0.67271180889E+02 -0.52429681362E+02  0.10367198439E+03  0.10566000000E+00 0. -1.
     200003    1    4    4    0    0  0.27555284623E+03  0.11952117710E+03 -0.28946497136E+03  0.41821603566E+03  0.30000000000E+02 0. -1.
     200000    1    3    3    0    0  0.10991357094E+03 -0.80359507363E+02 -0.10735126510E+04  0.10868160172E+04  0.10100000000E+03 0.  1.
    -200001    1    1    2    0    0 -0.44440355247E+03 -0.10643285062E+03 -0.20526051495E+04  0.21903833840E+04  0.61300000000E+03 0. -1.
<mgrwt>
<rscale>  0 0.15511141E+04</rscale>
<asrwt>0</asrwt>
<pdfrwt beam="1">  1        2 0.51907851E+00 0.15511141E+04</pdfrwt>
<pdfrwt beam="2">  1       -2 0.23648214E-01 0.15511141E+04</pdfrwt>
<totfact> 0.15353091E+01</totfact>
</mgrwt>
</event>
<event>
 8    1  0.7685004E-052  0.1513478E+04  0.7818608E-02  0.8875540E-01
          2   -1    0    0  501    0  0.00000000000E+00  0.00000000000E+00  0.13806239646E+03  0.13806239649E+03  0.25500000000E-02 0.  1.
         -2   -1    0    0    0  501 -0.00000000000E+00 -0.00000000000E+00 -0.41477891918E+04  0.41477891918E+04  0.25500000000E-02 0. -1.
     200001    2    1    2    0    0 -0.13032252101E+03  0.58288420714E+02 -0.31929898632E+04  0.32547309766E+04  0.61457950205E+03 0.  0.
    5000001    2    3    3    0    0  0.11701704119E+02  0.16167624280E+03 -0.28064389162E+03  0.33534405805E+03  0.86130749434E+02 0.  0.
        -13    1    4    4    0    0 -0.25663073360E+01  0.14409581986E+03 -0.20156308736E+03  0.24778595720E+03  0.10566000000E+00 0. -1.
     200003    1    4    4    0    0  0.14268011455E+02  0.17580422939E+02 -0.79080804256E+02  0.87558100844E+02  0.30000000000E+02 0.  1.
     200000    1    3    3    0    0 -0.14202422513E+03 -0.10338782209E+03 -0.29123459716E+04  0.29193869186E+04  0.10100000000E+03 0. -1.
    -200001    1    1    2    0    0  0.13032252101E+03 -0.58288420714E+02 -0.81673693219E+03  0.10311206117E+04  0.61300000000E+03 0.  1.
<mgrwt>
<rscale>  0 0.15134777E+04</rscale>
<asrwt>0</asrwt>
<pdfrwt beam="1">  1        2 0.19723202E-01 0.15134777E+04</pdfrwt>
<pdfrwt beam="2">  1       -2 0.59254124E+00 0.15134777E+04</pdfrwt>
<totfact> 0.14936758E-01</totfact>
</mgrwt>
</event>
<event>
 8    1  0.7685004E-052  0.1592814E+04  0.7818608E-02  0.8824975E-01
          2   -1    0    0  501    0  0.00000000000E+00  0.00000000000E+00  0.25031277805E+04  0.25031277805E+04  0.25500000000E-02 0.  1.
         -2   -1    0    0    0  501 -0.00000000000E+00 -0.00000000000E+00 -0.25338865480E+03  0.25338865481E+03  0.25500000000E-02 0. -1.
     200001    2    1    2    0    0  0.49267013971E+03  0.93315428729E+02  0.12717504823E+04  0.14980799361E+04  0.61275000615E+03 0.  0.
    5000001    2    3    3    0    0  0.25244188757E+03 -0.12606300680E+03  0.90228903065E+03  0.99554707616E+03  0.31204117955E+03 0.  0.
        -13    1    4    4    0    0 -0.86452654507E+01  0.77035328875E+02  0.95072091155E+02  0.12266986668E+03  0.10566000000E+00 0. -1.
     200003    1    4    4    0    0  0.26108715302E+03 -0.20309833568E+03  0.80721693950E+03  0.87287720949E+03  0.30000000000E+02 0. -1.
     200000    1    3    3    0    0  0.24022825214E+03  0.21937843553E+03  0.36946145162E+03  0.50253285995E+03  0.10100000000E+03 0. -1.
    -200001    1    1    2    0    0 -0.49267013971E+03 -0.93315428729E+02  0.97798864338E+03  0.12584364991E+04  0.61300000000E+03 0. -1.
<mgrwt>
<rscale>  0 0.15928141E+04</rscale>
<asrwt>0</asrwt>
<pdfrwt beam="1">  1        2 0.35758969E+00 0.15928141E+04</pdfrwt>
<pdfrwt beam="2">  1       -2 0.36198378E-01 0.15928141E+04</pdfrwt>
<totfact> 0.30346490E+01</totfact>
</mgrwt>
</event>
<event>
 8    1  0.7685004E-052  0.1377767E+04  0.7818608E-02  0.8970071E-01
          2   -1    0    0  501    0  0.00000000000E+00  0.00000000000E+00  0.14319201955E+04  0.14319201955E+04  0.25500000000E-02 0.  1.
         -2   -1    0    0    0  501 -0.00000000000E+00 -0.00000000000E+00 -0.33141529569E+03  0.33141529570E+03  0.25500000000E-02 0. -1.
     200001    2    1    2    0    0  0.15607193660E+03 -0.11546235685E+03  0.86695078641E+03  0.10792254641E+04  0.61272663653E+03 0.  0.
    5000001    2    3    3    0    0  0.74055237677E+02 -0.29226961211E+03  0.78595071956E+03  0.84523923538E+03  0.76191384404E+02 0.  0.
        -13    1    4    4    0    0  0.63536219581E+02 -0.21353494410E+03  0.62028659925E+03  0.65908231650E+03  0.10566000000E+00 0. -1.
     200003    1    4    4    0    0  0.10519018095E+02 -0.78734668009E+02  0.16566412031E+03  0.18615691888E+03  0.30000000000E+02 0.  1.
     200000    1    3    3    0    0  0.82016698925E+02  0.17680725525E+03  0.81000066851E+02  0.23398622875E+03  0.10100000000E+03 0. -1.
    -200001    1    1    2    0    0 -0.15607193660E+03  0.11546235685E+03  0.23355411337E+03  0.68411002705E+03  0.61300000000E+03 0.  1.
<mgrwt>
<rscale>  0 0.13777667E+04</rscale>
<asrwt>0</asrwt>
<pdfrwt beam="1">  1        2 0.20456003E+00 0.13777667E+04</pdfrwt>
<pdfrwt beam="2">  1       -2 0.47345042E-01 0.13777667E+04</pdfrwt>
<totfact> 0.65576061E+01</totfact>
</mgrwt>
</event>
<event>
 8    1  0.7685004E-052  0.1282531E+04  0.7818608E-02  0.9043534E-01
          2   -1    0    0  501    0  0.00000000000E+00  0.00000000000E+00  0.14751585841E+04  0.14751585841E+04  0.25500000000E-02 0. -1.
         -2   -1    0    0    0  501 -0.00000000000E+00 -0.00000000000E+00 -0.27876406739E+03  0.27876406740E+03  0.25500000000E-02 0.  1.
     200001    2    1    2    0    0  0.17485838764E+03  0.36655102741E+02  0.67849705439E+03  0.93178772722E+03  0.61314848405E+03 0.  0.
    5000001    2    3    3    0    0  0.17212799931E+03 -0.25910458823E+03  0.29753878657E+03  0.43902870737E+03  0.86334469302E+02 0.  0.
        -13    1    4    4    0    0  0.19638708667E+02 -0.98500946505E+00  0.31260184356E+02  0.36930467256E+02  0.10566000000E+00 0. -1.
     200003    1    4    4    0    0  0.15248929064E+03 -0.25811957876E+03  0.26627860222E+03  0.40209824011E+03  0.30000000000E+02 0. -1.
     200000    1    3    3    0    0  0.27303883294E+01  0.29575969097E+03  0.38095826782E+03  0.49275901985E+03  0.10100000000E+03 0.  1.
    -200001    1    1    2    0    0 -0.17485838764E+03 -0.36655102741E+02  0.51789746235E+03  0.82213492433E+03  0.61300000000E+03 0.  1.
<mgrwt>
<rscale>  0 0.12825306E+04</rscale>
<asrwt>0</asrwt>
<pdfrwt beam="1">  1        2 0.21073694E+00 0.12825306E+04</pdfrwt>
<pdfrwt beam="2">  1       -2 0.39823438E-01 0.12825306E+04</pdfrwt>
<totfact> 0.88220046E+01</totfact>
</mgrwt>
</event>
<event>
 8    1  0.7685004E-052  0.1478813E+04  0.7818608E-02  0.8898665E-01
         -2   -1    0    0    0  501 -0.00000000000E+00  0.00000000000E+00  0.70349671792E+03  0.70349671792E+03  0.25500000000E-02 0. -1.
          2   -1    0    0  501    0  0.00000000000E+00 -0.00000000000E+00 -0.77714938709E+03  0.77714938709E+03  0.25500000000E-02 0.  1.
     200001    2    1    2    0    0  0.19996749608E+03 -0.28386340332E+03 -0.26268014890E+03  0.75121768540E+03  0.61217784916E+03 0.  0.
    5000001    2    3    3    0    0  0.51101816238E+02 -0.26903834741E+03  0.13075705913E+03  0.31834979612E+03  0.96208919434E+02 0.  0.
        -13    1    4    4    0    0  0.33981584112E+02 -0.23641949449E+03  0.88344993334E+02  0.25466404230E+03  0.10566000000E+00 0. -1.
     200003    1    4    4    0    0  0.17120232125E+02 -0.32618852920E+02  0.42412065793E+02  0.63685753812E+02  0.30000000000E+02 0. -1.
     200000    1    3    3    0    0  0.14886567985E+03 -0.14825055917E+02 -0.39343720802E+03  0.43286788929E+03  0.10100000000E+03 0.  1.
    -200001    1    1    2    0    0 -0.19996749608E+03  0.28386340332E+03  0.18902747973E+03  0.72942841961E+03  0.61300000000E+03 0. -1.
<mgrwt>
<rscale>  0 0.14788131E+04</rscale>
<asrwt>0</asrwt>
<pdfrwt beam="1">  1        2 0.11102134E+00 0.14788131E+04</pdfrwt>
<pdfrwt beam="2">  1       -2 0.10049953E+00 0.14788131E+04</pdfrwt>
<totfact> 0.31233486E+01</totfact>
</mgrwt>
</event>
<event>
 8    1  0.7685004E-052  0.1291472E+04  0.7818608E-02  0.9036356E-01
         -2   -1    0    0    0  501 -0.00000000000E+00  0.00000000000E+00  0.44828269371E+03  0.44828269372E+03  0.25500000000E-02 0. -1.
          2   -1    0    0  501    0  0.00000000000E+00 -0.00000000000E+00 -0.93016034335E+03  0.93016034336E+03  0.25500000000E-02 0.  1.
     200001    2    1    2    0    0  0.44404492565E+02  0.19453420097E+03 -0.28243364759E+03  0.70363771384E+03  0.61279846013E+03 0.  0.
    5000001    2    3    3    0    0 -0.18080599957E+02 -0.19219308899E+03 -0.20225089652E+03  0.29121480328E+03  0.81458854379E+02 0.  0.
        -13    1    4    4    0    0 -0.43640992813E+02 -0.11100970499E+03 -0.11539279900E+03  0.16596144155E+03  0.10566000000E+00 0. -1.
     200003    1    4    4    0    0  0.25560392856E+02 -0.81183383997E+02 -0.86858097516E+02  0.12525336173E+03  0.30000000000E+02 0. -1.
     200000    1    3    3    0    0  0.62485092522E+02  0.38672728996E+03 -0.80182751075E+02  0.41242291056E+03  0.10100000000E+03 0.  1.
    -200001    1    1    2    0    0 -0.44404492565E+02 -0.19453420097E+03 -0.19944400205E+03  0.67480532323E+03  0.61300000000E+03 0. -1.
<mgrwt>
<rscale>  0 0.12914717E+04</rscale>
<asrwt>0</asrwt>
<pdfrwt beam="1">  1        2 0.13288005E+00 0.12914717E+04</pdfrwt>
<pdfrwt beam="2">  1       -2 0.64040385E-01 0.12914717E+04</pdfrwt>
<totfact> 0.68794297E+01</totfact>
</mgrwt>
</event>
<event>
 8    1  0.7685004E-052  0.1469533E+04  0.7818608E-02  0.8904969E-01
          2   -1    0    0  501    0  0.00000000000E+00  0.00000000000E+00  0.19867077911E+04  0.19867077911E+04  0.25500000000E-02 0.  1.
         -2   -1    0    0    0  501 -0.00000000000E+00 -0.00000000000E+00 -0.27174710687E+03  0.27174710688E+03  0.25500000000E-02 0. -1.
     200001    2    1    2    0    0  0.31734138769E+03 -0.23461090156E+03  0.72514043414E+03  0.10291213554E+04  0.61442190996E+03 0.  0.
    5000001    2    3    3    0    0  0.16350825914E+03 -0.38900360832E+03  0.64730471835E+03  0.77661167639E+03  0.77868731956E+02 0.  0.
        -13    1    4    4    0    0  0.51201946566E+01 -0.64875092809E+02  0.12787679965E+03  0.14348338271E+03  0.10566000000E+00 0. -1.
     200003    1    4    4    0    0  0.15838806449E+03 -0.32412851551E+03  0.51942791869E+03  0.63312829368E+03  0.30000000000E+02 0. -1.
     200000    1    3    3    0    0  0.15383312854E+03  0.15439270676E+03  0.77835715798E+02  0.25250967901E+03  0.10100000000E+03 0.  1.
    -200001    1    1    2    0    0 -0.31734138769E+03  0.23461090156E+03  0.98982025011E+03  0.12293335426E+04  0.61300000000E+03 0.  1.
<mgrwt>
<rscale>  0 0.14695334E+04</rscale>
<asrwt>0</asrwt>
<pdfrwt beam="1">  1        2 0.28381541E+00 0.14695334E+04</pdfrwt>
<pdfrwt beam="2">  1       -2 0.38821014E-01 0.14695334E+04</pdfrwt>
<totfact> 0.49555511E+01</totfact>
</mgrwt>
</event>
<event>
 8    1  0.7685004E-052  0.2097599E+04  0.7818608E-02  0.8562302E-01
          2   -1    0    0  501    0  0.00000000000E+00  0.00000000000E+00  0.13533384954E+04  0.13533384954E+04  0.25500000000E-02 0.  1.
         -2   -1    0    0    0  501 -0.00000000000E+00 -0.00000000000E+00 -0.81279032569E+03  0.81279032569E+03  0.25500000000E-02 0. -1.
     200001    2    1    2    0    0 -0.72521298340E+03 -0.30360476449E+03 -0.65189003656E+02  0.99959710376E+03  0.61386891055E+03 0.  0.
    5000001    2    3    3    0    0 -0.55073609554E+03 -0.47299363409E+03 -0.65756235886E+01  0.72983553893E+03  0.74722488159E+02 0.  0.
        -13    1    4    4    0    0 -0.82108769205E+02 -0.92587876778E+02  0.17716880966E+02  0.12501305509E+03  0.10566000000E+00 0. -1.
     200003    1    4    4    0    0 -0.46862732634E+03 -0.38040575731E+03 -0.24292504554E+02  0.60482248384E+03  0.30000000000E+02 0. -1.
     200000    1    3    3    0    0 -0.17447688786E+03  0.16938886960E+03 -0.58613380068E+02  0.26976156483E+03  0.10100000000E+03 0. -1.
    -200001    1    1    2    0    0  0.72521298340E+03  0.30360476449E+03  0.60573717334E+03  0.11665317173E+04  0.61300000000E+03 0. -1.
<mgrwt>
<rscale>  0 0.20975990E+04</rscale>
<asrwt>0</asrwt>
<pdfrwt beam="1">  1        2 0.19333407E+00 0.20975990E+04</pdfrwt>
<pdfrwt beam="2">  1       -2 0.11611290E+00 0.20975990E+04</pdfrwt>
<totfact> 0.93557861E+00</totfact>
</mgrwt>
</event>
<event>
 8    1  0.7685004E-052  0.2332371E+04  0.7818608E-02  0.8465266E-01
          2   -1    0    0  501    0  0.00000000000E+00  0.00000000000E+00  0.23366347241E+04  0.23366347241E+04  0.25500000000E-02 0.  1.
         -2   -1    0    0    0  501 -0.00000000000E+00 -0.00000000000E+00 -0.58202896474E+03  0.58202896475E+03  0.25500000000E-02 0. -1.
     200001    2    1    2    0    0 -0.78932881159E+03  0.56306075956E+03  0.61471132002E+03  0.13015039180E+04  0.61315988922E+03 0.  0.
    5000001    2    3    3    0    0 -0.35893571373E+03  0.51474009732E+02  0.45837009438E+03  0.60752783759E+03  0.16583880656E+03 0.  0.
        -13    1    4    4    0    0 -0.65054260180E+02  0.28378077694E+02  0.12332362795E+02  0.72037978854E+02  0.10566000000E+00 0. -1.
     200003    1    4    4    0    0 -0.29388145355E+03  0.23095932038E+02  0.44603773158E+03  0.53548985874E+03  0.30000000000E+02 0. -1.
     200000    1    3    3    0    0 -0.43039309786E+03  0.51158674983E+03  0.15634122564E+03  0.69397608037E+03  0.10100000000E+03 0.  1.
    -200001    1    1    2    0    0  0.78932881159E+03 -0.56306075956E+03  0.11398944394E+04  0.16171597709E+04  0.61300000000E+03 0. -1.
<mgrwt>
<rscale>  0 0.23323714E+04</rscale>
<asrwt>0</asrwt>
<pdfrwt beam="1">  1        2 0.33380496E+00 0.23323714E+04</pdfrwt>
<pdfrwt beam="2">  1       -2 0.83146995E-01 0.23323714E+04</pdfrwt>
<totfact> 0.61820667E+00</totfact>
</mgrwt>
</event>
<event>
 8    1  0.7685004E-052  0.1568852E+04  0.7818608E-02  0.8839915E-01
          2   -1    0    0  501    0  0.00000000000E+00  0.00000000000E+00  0.46297293646E+03  0.46297293647E+03  0.25500000000E-02 0.  1.
         -2   -1    0    0    0  501 -0.00000000000E+00 -0.00000000000E+00 -0.13290718383E+04  0.13290718383E+04  0.25500000000E-02 0. -1.
     200001    2    1    2    0    0 -0.12663142260E+03  0.46055887518E+03 -0.55931616665E+03  0.95656010028E+03  0.61157391743E+03 0.  0.
    5000001    2    3    3    0    0 -0.32584291603E+03  0.40731001275E+03 -0.45513887512E+03  0.70442012222E+03  0.13031216568E+03 0.  0.
        -13    1    4    4    0    0 -0.63929899542E+02  0.15393537845E+03 -0.98308921021E+02  0.19351430931E+03  0.10566000000E+00 0. -1.
     200003    1    4    4    0    0 -0.26191301649E+03  0.25337463430E+03 -0.35682995410E+03  0.51090581290E+03  0.30000000000E+02 0. -1.
     200000    1    3    3    0    0  0.19921149344E+03  0.53248862432E+02 -0.10417729152E+03  0.25213997806E+03  0.10100000000E+03 0. -1.
    -200001    1    1    2    0    0  0.12663142260E+03 -0.46055887518E+03 -0.30678273519E+03  0.83548467449E+03  0.61300000000E+03 0. -1.
<mgrwt>
<rscale>  0 0.15688522E+04</rscale>
<asrwt>0</asrwt>
<pdfrwt beam="1">  1        2 0.66138992E-01 0.15688522E+04</pdfrwt>
<pdfrwt beam="2">  1       -2 0.18986740E+00 0.15688522E+04</pdfrwt>
<totfact> 0.10958625E+01</totfact>
</mgrwt>
</event>
<event>
 8    1  0.7685004E-052  0.1304686E+04  0.7818608E-02  0.9025857E-01
          2   -1    0    0  501    0  0.00000000000E+00  0.00000000000E+00  0.16680263265E+04  0.16680263265E+04  0.25500000000E-02 0.  1.
         -2   -1    0    0    0  501 -0.00000000000E+00 -0.00000000000E+00 -0.25512278885E+03  0.25512278886E+03  0.25500000000E-02 0. -1.
     200001    2    1    2    0    0 -0.53538489738E+02  0.20906079531E+03  0.80674739164E+03  0.10344607226E+04  0.61048738460E+03 0.  0.
    5000001    2    3    3    0    0 -0.73729897552E+02  0.20679340867E+03  0.82638680291E+03  0.92958202859E+03  0.36470260241E+03 0.  0.
        -13    1    4    4    0    0 -0.57935853536E+02  0.19433465488E+03  0.15000892304E+03  0.25224038013E+03  0.10566000000E+00 0. -1.
     200003    1    4    4    0    0 -0.15794044016E+02  0.12458753784E+02  0.67637787986E+03  0.67734164846E+03  0.30000000000E+02 0. -1.
     200000    1    3    3    0    0  0.20191407813E+02  0.22673866458E+01 -0.19639411264E+02  0.10487869405E+03  0.10100000000E+03 0. -1.
    -200001    1    1    2    0    0  0.53538489738E+02 -0.20906079531E+03  0.60615614604E+03  0.88868839274E+03  0.61300000000E+03 0. -1.
<mgrwt>
<rscale>  0 0.13046862E+04</rscale>
<asrwt>0</asrwt>
<pdfrwt beam="1">  1        2 0.23828948E+00 0.13046862E+04</pdfrwt>
<pdfrwt beam="2">  1       -2 0.36446112E-01 0.13046862E+04</pdfrwt>
<totfact> 0.82774053E+01</totfact>
</mgrwt>
</event>
<event>
 8    1  0.7685004E-052  0.1487891E+04  0.7818608E-02  0.8892545E-01
          2   -1    0    0  501    0  0.00000000000E+00  0.00000000000E+00  0.11488175391E+04  0.11488175391E+04  0.25500000000E-02 0.  1.
         -2   -1    0    0    0  501 -0.00000000000E+00 -0.00000000000E+00 -0.48176041848E+03  0.48176041849E+03  0.25500000000E-02 0. -1.
     200001    2    1    2    0    0 -0.36523756194E+03  0.80441278281E+02  0.12146858219E+03  0.72874364399E+03  0.61354984011E+03 0.  0.
    5000001    2    3    3    0    0  0.40924566172E+02  0.23370489672E+03 -0.47882372590E+02  0.25194373110E+03  0.69929415609E+02 0.  0.
        -13    1    4    4    0    0  0.17931553960E+02  0.74233680425E+02 -0.43727532021E+02  0.88001637243E+02  0.10566000000E+00 0. -1.
     200003    1    4    4    0    0  0.22993012212E+02  0.15947121630E+03 -0.41548405699E+01  0.16394209386E+03  0.30000000000E+02 0. -1.
     200000    1    3    3    0    0 -0.40616212811E+03 -0.15326361844E+03  0.16935095478E+03  0.47679991289E+03  0.10100000000E+03 0.  1.
    -200001    1    1    2    0    0  0.36523756194E+03 -0.80441278281E+02  0.54558853840E+03  0.90183431357E+03  0.61300000000E+03 0. -1.
<mgrwt>
<rscale>  0 0.14878909E+04</rscale>
<asrwt>0</asrwt>
<pdfrwt beam="1">  1        2 0.16411679E+00 0.14878909E+04</pdfrwt>
<pdfrwt beam="2">  1       -2 0.68822918E-01 0.14878909E+04</pdfrwt>
<totfact> 0.42745028E+01</totfact>
</mgrwt>
</event>
<event>
 8    1  0.7685004E-052  0.1790930E+04  0.7818608E-02  0.8711138E-01
         -2   -1    0    0    0  501 -0.00000000000E+00  0.00000000000E+00  0.15721240443E+04  0.15721240443E+04  0.25500000000E-02 0.  1.
          2   -1    0    0  501    0  0.00000000000E+00 -0.00000000000E+00 -0.51004734002E+03  0.51004734003E+03  0.25500000000E-02 0. -1.
     200001    2    1    2    0    0 -0.39653971426E+03  0.49404677536E+03  0.71249379616E+03  0.11338554186E+04  0.61372203768E+03 0.  0.
    5000001    2    3    3    0    0 -0.43681768641E+03  0.81168821493E+02  0.30416186453E+03  0.54307078255E+03  0.70805128920E+02 0.  0.
        -13    1    4    4    0    0 -0.24632781237E+02  0.13514395354E+02  0.36506753315E+02  0.46066983783E+02  0.10566000000E+00 0. -1.
     200003    1    4    4    0    0 -0.41218490517E+03  0.67654426140E+02  0.26765511122E+03  0.49700379876E+03  0.30000000000E+02 0. -1.
     200000    1    3    3    0    0  0.40277972146E+02  0.41287795387E+03  0.40833193163E+03  0.59078463607E+03  0.10100000000E+03 0. -1.
    -200001    1    1    2    0    0  0.39653971426E+03 -0.49404677536E+03  0.34958290816E+03  0.94831596576E+03  0.61300000000E+03 0. -1.
<mgrwt>
<rscale>  0 0.17909301E+04</rscale>
<asrwt>0</asrwt>
<pdfrwt beam="1">  1        2 0.72863906E-01 0.17909301E+04</pdfrwt>
<pdfrwt beam="2">  1       -2 0.22458915E+00 0.17909301E+04</pdfrwt>
<totfact> 0.57444824E+00</totfact>
</mgrwt>
</event>
<event>
 8    1  0.7685004E-052  0.1601930E+04  0.7818608E-02  0.8819363E-01
         -2   -1    0    0    0  501 -0.00000000000E+00  0.00000000000E+00  0.91057433998E+03  0.91057433998E+03  0.25500000000E-02 0. -1.
          2   -1    0    0  501    0  0.00000000000E+00 -0.00000000000E+00 -0.70454995989E+03  0.70454995990E+03  0.25500000000E-02 0.  1.
     200001    2    1    2    0    0  0.94088210940E+02 -0.31775661763E+03 -0.29518850846E+03  0.75675071039E+03  0.61295474765E+03 0.  0.
    5000001    2    3    3    0    0 -0.83780632240E+02 -0.16479520656E+03  0.14629023448E+03  0.24671247739E+03  0.72729356865E+02 0.  0.
        -13    1    4    4    0    0 -0.68290884485E+02 -0.11329266217E+03  0.73373327187E+02  0.15126972107E+03  0.10566000000E+00 0. -1.
     200003    1    4    4    0    0 -0.15489747755E+02 -0.51502544384E+02  0.72916907296E+02  0.95442756316E+02  0.30000000000E+02 0. -1.
     200000    1    3    3    0    0  0.17786884318E+03 -0.15296141107E+03 -0.44147874295E+03  0.51003823300E+03  0.10100000000E+03 0.  1.
    -200001    1    1    2    0    0 -0.94088210940E+02  0.31775661763E+03  0.50121288855E+03  0.85837358949E+03  0.61300000000E+03 0. -1.
<mgrwt>
<rscale>  0 0.16019302E+04</rscale>
<asrwt>0</asrwt>
<pdfrwt beam="1">  1        2 0.10064999E+00 0.16019302E+04</pdfrwt>
<pdfrwt beam="2">  1       -2 0.13008205E+00 0.16019302E+04</pdfrwt>
<totfact> 0.18601725E+01</totfact>
</mgrwt>
</event>
<event>
 8    1  0.7685004E-052  0.1252105E+04  0.7818608E-02  0.9068433E-01
         -2   -1    0    0    0  501 -0.00000000000E+00  0.00000000000E+00  0.55692180489E+03  0.55692180489E+03  0.25500000000E-02 0. -1.
          2   -1    0    0  501    0  0.00000000000E+00 -0.00000000000E+00 -0.70376448140E+03  0.70376448141E+03  0.25500000000E-02 0.  1.
     200001    2    1    2    0    0  0.24019535050E+02  0.11976183761E+03 -0.33083281778E+02  0.62536744060E+03  0.61242966651E+03 0.  0.
    5000001    2    3    3    0    0 -0.53380068579E+02  0.22698400978E+03  0.33035223757E+02  0.44631451652E+03  0.37912286825E+03 0.  0.
        -13    1    4    4    0    0 -0.14958983558E+03  0.87839108514E+02 -0.12425402605E+03  0.21338205653E+03  0.10566000000E+00 0. -1.
     200003    1    4    4    0    0  0.96209767002E+02  0.13914490127E+03  0.15728924981E+03  0.23293246000E+03  0.30000000000E+02 0. -1.
     200000    1    3    3    0    0  0.77399603628E+02 -0.10722217217E+03 -0.66118505535E+02  0.17905292408E+03  0.10100000000E+03 0.  1.
    -200001    1    1    2    0    0 -0.24019535050E+02 -0.11976183761E+03 -0.11375939473E+03  0.63531884570E+03  0.61300000000E+03 0.  1.
<mgrwt>
<rscale>  0 0.12521051E+04</rscale>
<asrwt>0</asrwt>
<pdfrwt beam="1">  1        2 0.10053778E+00 0.12521051E+04</pdfrwt>
<pdfrwt beam="2">  1       -2 0.79560257E-01 0.12521051E+04</pdfrwt>
<totfact> 0.61623747E+01</totfact>
</mgrwt>
</event>
<event>
 8    1  0.7685004E-052  0.1358187E+04  0.7818608E-02  0.8984654E-01
         -2   -1    0    0    0  501 -0.00000000000E+00  0.00000000000E+00  0.63395888646E+03  0.63395888646E+03  0.25500000000E-02 0. -1.
          2   -1    0    0  501    0  0.00000000000E+00 -0.00000000000E+00 -0.72744172649E+03  0.72744172650E+03  0.25500000000E-02 0.  1.
     200001    2    1    2    0    0  0.12372631493E+03  0.23759068860E+03  0.71878734546E+02  0.67229177782E+03  0.61241501103E+03 0.  0.
    5000001    2    3    3    0    0  0.21863388872E+03  0.31085295519E+03 -0.13150855628E+03  0.41549964917E+03  0.10447545665E+03 0.  0.
        -13    1    4    4    0    0  0.67244449542E+02  0.14693081131E+03 -0.15783660211E+02  0.16235644243E+03  0.10566000000E+00 0. -1.
     200003    1    4    4    0    0  0.15138943918E+03  0.16392214388E+03 -0.11572489607E+03  0.25314320674E+03  0.30000000000E+02 0. -1.
     200000    1    3    3    0    0 -0.94907573786E+02 -0.73262266589E+02  0.20338729082E+03  0.25679212865E+03  0.10100000000E+03 0. -1.
    -200001    1    1    2    0    0 -0.12372631493E+03 -0.23759068860E+03 -0.16536157458E+03  0.68910883514E+03  0.61300000000E+03 0.  1.
<mgrwt>
<rscale>  0 0.13581872E+04</rscale>
<asrwt>0</asrwt>
<pdfrwt beam="1">  1        2 0.10392025E+00 0.13581872E+04</pdfrwt>
<pdfrwt beam="2">  1       -2 0.90565556E-01 0.13581872E+04</pdfrwt>
<totfact> 0.43703271E+01</totfact>
</mgrwt>
</event>
<event>
 8    1  0.7685004E-052  0.1729642E+04  0.7818608E-02  0.8744637E-01
         -2   -1    0    0    0  501 -0.00000000000E+00  0.00000000000E+00  0.27509773466E+03  0.27509773467E+03  0.25500000000E-02 0. -1.
          2   -1    0    0  501    0  0.00000000000E+00 -0.00000000000E+00 -0.27187269070E+04  0.27187269070E+04  0.25500000000E-02 0.  1.
     200001    2    1    2    0    0 -0.60499262477E+03  0.37832159118E+02 -0.13386947955E+04  0.15923624319E+04  0.61324302746E+03 0.  0.
    5000001    2    3    3    0    0 -0.36062136528E+03  0.29279430939E+03 -0.89003541728E+03  0.10125182734E+04  0.13135422777E+03 0.  0.
        -13    1    4    4    0    0 -0.17555782535E+03  0.17725135490E+03 -0.35463572235E+03  0.43359554839E+03  0.10566000000E+00 0. -1.
     200003    1    4    4    0    0 -0.18506353993E+03  0.11554295449E+03 -0.53539969493E+03  0.57892272496E+03  0.30000000000E+02 0. -1.
     200000    1    3    3    0    0 -0.24437125948E+03 -0.25496215027E+03 -0.44865937826E+03  0.57984415858E+03  0.10100000000E+03 0.  1.
    -200001    1    1    2    0    0  0.60499262477E+03 -0.37832159118E+02 -0.11049343768E+04  0.14014622097E+04  0.61300000000E+03 0.  1.
<mgrwt>
<rscale>  0 0.17296423E+04</rscale>
<asrwt>0</asrwt>
<pdfrwt beam="1">  1        2 0.38838954E+00 0.17296423E+04</pdfrwt>
<pdfrwt beam="2">  1       -2 0.39299678E-01 0.17296423E+04</pdfrwt>
<totfact> 0.19652968E+01</totfact>
</mgrwt>
</event>
<event>
 8    1  0.7685004E-052  0.1346953E+04  0.7818608E-02  0.8993138E-01
         -2   -1    0    0    0  501 -0.00000000000E+00  0.00000000000E+00  0.19317155418E+03  0.19317155420E+03  0.25500000000E-02 0. -1.
          2   -1    0    0  501    0  0.00000000000E+00 -0.00000000000E+00 -0.23480192360E+04  0.23480192360E+04  0.25500000000E-02 0.  1.
     200001    2    1    2    0    0 -0.81743639785E+01 -0.27761710864E+03 -0.10560143211E+04  0.12526482670E+04  0.61385939385E+03 0.  0.
    5000001    2    3    3    0    0 -0.58143823539E+02 -0.14786548671E+03 -0.78270667409E+01  0.19046657336E+03  0.10474419420E+03 0.  0.
        -13    1    4    4    0    0 -0.36088072701E+02 -0.96727430808E+01  0.23256312672E+02  0.44008842215E+02  0.10566000000E+00 0. -1.
     200003    1    4    4    0    0 -0.22055750838E+02 -0.13819274363E+03 -0.31083379413E+02  0.14645773115E+03  0.30000000000E+02 0. -1.
     200000    1    3    3    0    0  0.49969459561E+02 -0.12975162193E+03 -0.10481872543E+04  0.10621816937E+04  0.10100000000E+03 0.  1.
    -200001    1    1    2    0    0  0.81743639785E+01  0.27761710864E+03 -0.10988333607E+04  0.12885425231E+04  0.61300000000E+03 0.  1.
<mgrwt>
<rscale>  0 0.13469529E+04</rscale>
<asrwt>0</asrwt>
<pdfrwt beam="1">  1        2 0.33543130E+00 0.13469529E+04</pdfrwt>
<pdfrwt beam="2">  1       -2 0.27595938E-01 0.13469529E+04</pdfrwt>
<totfact> 0.62121625E+01</totfact>
</mgrwt>
</event>
<event>
 8    1  0.7685004E-052  0.1534517E+04  0.7818608E-02  0.8861818E-01
         -2   -1    0    0    0  501 -0.00000000000E+00  0.00000000000E+00  0.59594814163E+03  0.59594814163E+03  0.25500000000E-02 0. -1.
          2   -1    0    0  501    0  0.00000000000E+00 -0.00000000000E+00 -0.98781372357E+03  0.98781372357E+03  0.25500000000E-02 0.  1.
     200001    2    1    2    0    0 -0.39729322010E+02  0.37079930052E+03  0.84309343798E+02  0.72261025242E+03  0.61317776473E+03 0.  0.
    5000001    2    3    3    0    0  0.12542119800E+03 -0.10925956666E+03  0.44687078701E+02  0.20347430289E+03  0.10833617641E+03 0.  0.
        -13    1    4    4    0    0 -0.11853487935E+02 -0.70264615439E+01 -0.14402318048E+02  0.19932743596E+02  0.10566000000E+00 0. -1.
     200003    1    4    4    0    0  0.13727468593E+03 -0.10223310511E+03  0.59089396749E+02  0.18354155929E+03  0.30000000000E+02 0. -1.
     200000    1    3    3    0    0 -0.16515052001E+03  0.48005886717E+03  0.39622265097E+02  0.51913594954E+03  0.10100000000E+03 0. -1.
    -200001    1    1    2    0    0  0.39729322010E+02 -0.37079930052E+03 -0.47617492574E+03  0.86115161278E+03  0.61300000000E+03 0.  1.
<mgrwt>
<rscale>  0 0.15345172E+04</rscale>
<asrwt>0</asrwt>
<pdfrwt beam="1">  1        2 0.14111625E+00 0.15345172E+04</pdfrwt>
<pdfrwt beam="2">  1       -2 0.85135449E-01 0.15345172E+04</pdfrwt>
<totfact> 0.33139367E+01</totfact>
</mgrwt>
</event>
<event>
 8    1  0.7685004E-052  0.1505311E+04  0.7818608E-02  0.8880929E-01
         -2   -1    0    0    0  501 -0.00000000000E+00  0.00000000000E+00  0.32774645351E+03  0.32774645352E+03  0.25500000000E-02 0. -1.
          2   -1    0    0  501    0  0.00000000000E+00 -0.00000000000E+00 -0.17284418220E+04  0.17284418220E+04  0.25500000000E-02 0.  1.
     200001    2    1    2    0    0  0.18430006548E+03 -0.37738447368E+03 -0.86449728546E+03  0.11398570367E+04  0.61280743495E+03 0.  0.
    5000001    2    3    3    0    0  0.20952996319E+03  0.74142883324E+02 -0.13001734293E+03  0.27142437499E+03  0.85829536021E+02 0.  0.
        -13    1    4    4    0    0  0.32996962863E+01 -0.15958925517E+01  0.89959942463E+01  0.97146253213E+01  0.10566000000E+00 0. -1.
     200003    1    4    4    0    0  0.20623026691E+03  0.75738775876E+02 -0.13901333718E+03  0.26170974967E+03  0.30000000000E+02 0. -1.
     200000    1    3    3    0    0 -0.25229897715E+02 -0.45152735701E+03 -0.73447994253E+03  0.86843266167E+03  0.10100000000E+03 0.  1.
    -200001    1    1    2    0    0 -0.18430006548E+03  0.37738447368E+03 -0.53619808307E+03  0.91633123891E+03  0.61300000000E+03 0. -1.
<mgrwt>
<rscale>  0 0.15053115E+04</rscale>
<asrwt>0</asrwt>
<pdfrwt beam="1">  1        2 0.24692026E+00 0.15053115E+04</pdfrwt>
<pdfrwt beam="2">  1       -2 0.46820923E-01 0.15053115E+04</pdfrwt>
<totfact> 0.46356744E+01</totfact>
</mgrwt>
</event>
<event>
 8    1  0.7685004E-052  0.1587750E+04  0.7818608E-02  0.8828109E-01
          2   -1    0    0  501    0  0.00000000000E+00  0.00000000000E+00  0.10230487279E+04  0.10230487279E+04  0.25500000000E-02 0.  1.
         -2   -1    0    0    0  501 -0.00000000000E+00 -0.00000000000E+00 -0.61603874224E+03  0.61603874224E+03  0.25500000000E-02 0. -1.
     200001    2    1    2    0    0  0.14324305354E+03  0.34955462388E+03  0.54892135637E+03  0.90518363134E+03  0.61264650779E+03 0.  0.
    5000001    2    3    3    0    0  0.24447361886E+03  0.27849393059E+03  0.99014747753E+02  0.42778002226E+03  0.18938217307E+03 0.  0.
        -13    1    4    4    0    0  0.76979662228E+02 -0.10228839173E+02 -0.22237464418E+01  0.77688182884E+02  0.10566000000E+00 0. -1.
     200003    1    4    4    0    0  0.16749395664E+03  0.28872276976E+03  0.10123849419E+03  0.35009183937E+03  0.30000000000E+02 0. -1.
     200000    1    3    3    0    0 -0.10123056532E+03  0.71060693289E+02  0.44990660862E+03  0.47740360908E+03  0.10100000000E+03 0.  1.
    -200001    1    1    2    0    0 -0.14324305354E+03 -0.34955462388E+03 -0.14191137071E+03  0.73390383880E+03  0.61300000000E+03 0. -1.
<mgrwt>
<rscale>  0 0.15877502E+04</rscale>
<asrwt>0</asrwt>
<pdfrwt beam="1">  1        2 0.14614982E+00 0.15877502E+04</pdfrwt>
<pdfrwt beam="2">  1       -2 0.88005534E-01 0.15877502E+04</pdfrwt>
<totfact> 0.29104145E+01</totfact>
</mgrwt>
</event>
<event>
 8    1  0.7685004E-052  0.2129138E+04  0.7818608E-02  0.8548515E-01
          2   -1    0    0  501    0  0.00000000000E+00  0.00000000000E+00  0.18065028042E+04  0.18065028042E+04  0.25500000000E-02 0. -1.
         -2   -1    0    0    0  501 -0.00000000000E+00 -0.00000000000E+00 -0.62734882935E+03  0.62734882935E+03  0.25500000000E-02 0.  1.
     200001    2    1    2    0    0  0.38750807260E+02  0.40863084535E+03 -0.28829867678E+03  0.79139400013E+03  0.61213359944E+03 0.  0.
    5000001    2    3    3    0    0  0.18420350856E+03  0.45200435212E+03 -0.32540014141E+03  0.60534221142E+03  0.14938230816E+03 0.  0.
        -13    1    4    4    0    0  0.14386920698E+02  0.19447298538E+01 -0.46021447795E+02  0.48257126755E+02  0.10566000000E+00 0. -1.
     200003    1    4    4    0    0  0.16981658786E+03  0.45005962226E+03 -0.27937869362E+03  0.55708508466E+03  0.30000000000E+02 0. -1.
     200000    1    3    3    0    0 -0.14545270130E+03 -0.43373506763E+02  0.37101464637E+02  0.18605178871E+03  0.10100000000E+03 0. -1.
    -200001    1    1    2    0    0 -0.38750807260E+02 -0.40863084535E+03  0.14674526517E+04  0.16424576335E+04  0.61300000000E+03 0. -1.
<mgrwt>
<rscale>  0 0.21291382E+04</rscale>
<asrwt>0</asrwt>
<pdfrwt beam="1">  1        2 0.25807184E+00 0.21291382E+04</pdfrwt>
<pdfrwt beam="2">  1       -2 0.89621258E-01 0.21291382E+04</pdfrwt>
<totfact> 0.99523091E+00</totfact>
</mgrwt>
</event>
<event>
 8    1  0.7685004E-052  0.1892256E+04  0.7818608E-02  0.8658721E-01
          2   -1    0    0  501    0  0.00000000000E+00  0.00000000000E+00  0.15384267622E+04  0.15384267622E+04  0.25500000000E-02 0.  1.
         -2   -1    0    0    0  501 -0.00000000000E+00 -0.00000000000E+00 -0.58186611828E+03  0.58186611829E+03  0.25500000000E-02 0. -1.
     200001    2    1    2    0    0 -0.13119801880E+03 -0.11200032492E-02  0.12718895711E+04  0.14185705333E+04  0.61435035341E+03 0.  0.
    5000001    2    3    3    0    0 -0.63935161324E+01 -0.13613827044E+03  0.11784407317E+04  0.11882594976E+04  0.68290333507E+02 0.  0.
        -13    1    4    4    0    0  0.19969794355E+02 -0.15432341447E+02  0.18300931818E+03  0.18474136395E+03  0.10566000000E+00 0. -1.
     200003    1    4    4    0    0 -0.26363310487E+02 -0.12070592899E+03  0.99543141352E+03  0.10035181336E+04  0.30000000000E+02 0. -1.
     200000    1    3    3    0    0 -0.12480450266E+03  0.13613715043E+03  0.93448839434E+02  0.23031103579E+03  0.10100000000E+03 0. -1.
    -200001    1    1    2    0    0  0.13119801880E+03  0.11200032492E-02 -0.31532892723E+03  0.70172234715E+03  0.61300000000E+03 0. -1.
<mgrwt>
<rscale>  0 0.18922562E+04</rscale>
<asrwt>0</asrwt>
<pdfrwt beam="1">  1        2 0.21977525E+00 0.18922562E+04</pdfrwt>
<pdfrwt beam="2">  1       -2 0.83123733E-01 0.18922562E+04</pdfrwt>
<totfact> 0.16626717E+01</totfact>
</mgrwt>
</event>
<event>
 8    1  0.7685004E-052  0.1649840E+04  0.7818608E-02  0.8790501E-01
         -2   -1    0    0    0  501 -0.00000000000E+00  0.00000000000E+00  0.38253945331E+03  0.38253945332E+03  0.25500000000E-02 0. -1.
          2   -1    0    0  501    0  0.00000000000E+00 -0.00000000000E+00 -0.17788839769E+04  0.17788839769E+04  0.25500000000E-02 0.  1.
     200001    2    1    2    0    0  0.29187322945E+03  0.13387932196E+03 -0.12861705530E+04  0.14606945535E+04  0.61341685037E+03 0.  0.
    5000001    2    3    3    0    0  0.47591455577E+02  0.12480460907E+03 -0.48173665758E+02  0.19475884097E+03  0.13330103890E+03 0.  0.
        -13    1    4    4    0    0 -0.20425865075E+02  0.21004801438E+02  0.32480671738E+02  0.43742689081E+02  0.10566000000E+00 0. -1.
     200003    1    4    4    0    0  0.68017320652E+02  0.10379980764E+03 -0.80654337495E+02  0.15101615189E+03  0.30000000000E+02 0. -1.
     200000    1    3    3    0    0  0.24428177387E+03  0.90747128813E+01 -0.12379968872E+04  0.12659357125E+04  0.10100000000E+03 0.  1.
    -200001    1    1    2    0    0 -0.29187322945E+03 -0.13387932196E+03 -0.11017397063E+03  0.70072887676E+03  0.61300000000E+03 0. -1.
<mgrwt>
<rscale>  0 0.16498404E+04</rscale>
<asrwt>0</asrwt>
<pdfrwt beam="1">  1        2 0.25412628E+00 0.16498404E+04</pdfrwt>
<pdfrwt beam="2">  1       -2 0.54648494E-01 0.16498404E+04</pdfrwt>
<totfact> 0.31477558E+01</totfact>
</mgrwt>
</event>
<event>
 8    1  0.7685004E-052  0.1499313E+04  0.7818608E-02  0.8884910E-01
         -2   -1    0    0    0  501 -0.00000000000E+00  0.00000000000E+00  0.64431609422E+03  0.64431609422E+03  0.25500000000E-02 0. -1.
          2   -1    0    0  501    0  0.00000000000E+00 -0.00000000000E+00 -0.87221952361E+03  0.87221952362E+03  0.25500000000E-02 0.  1.
     200001    2    1    2    0    0  0.49816023553E+01  0.11922393897E+03 -0.53336472400E+03  0.82132718400E+03  0.61307524039E+03 0.  0.
    5000001    2    3    3    0    0 -0.25853202199E+03  0.15639125972E+03 -0.18530397714E+03  0.37169608693E+03  0.11190792904E+03 0.  0.
        -13    1    4    4    0    0 -0.17925180786E+03  0.10755907401E+03 -0.69932551505E+02  0.22043306909E+03  0.10566000000E+00 0. -1.
     200003    1    4    4    0    0 -0.79280214131E+02  0.48832185714E+02 -0.11537142563E+03  0.15126301784E+03  0.30000000000E+02 0. -1.
     200000    1    3    3    0    0  0.26351362435E+03 -0.37167320751E+02 -0.34806074686E+03  0.44963109707E+03  0.10100000000E+03 0.  1.
    -200001    1    1    2    0    0 -0.49816023553E+01 -0.11922393897E+03  0.30546129461E+03  0.69520843384E+03  0.61300000000E+03 0. -1.
<mgrwt>
<rscale>  0 0.14993133E+04</rscale>
<asrwt>0</asrwt>
<pdfrwt beam="1">  1        2 0.12460279E+00 0.14993133E+04</pdfrwt>
<pdfrwt beam="2">  1       -2 0.92045157E-01 0.14993133E+04</pdfrwt>
<totfact> 0.32955213E+01</totfact>
</mgrwt>
</event>
<event>
 8    1  0.7685004E-052  0.1327228E+04  0.7818608E-02  0.9008247E-01
          2   -1    0    0  501    0  0.00000000000E+00  0.00000000000E+00  0.50168552503E+03  0.50168552504E+03  0.25500000000E-02 0.  1.
         -2   -1    0    0    0  501 -0.00000000000E+00 -0.00000000000E+00 -0.87780808053E+03  0.87780808053E+03  0.25500000000E-02 0. -1.
     200001    2    1    2    0    0 -0.17121998556E+02 -0.15485809967E+03  0.22461721899E+02  0.63188901753E+03  0.61196814268E+03 0.  0.
    5000001    2    3    3    0    0  0.41701686411E+02 -0.18197444892E+03 -0.25593824496E+03  0.32873383638E+03  0.87794186824E+02 0.  0.
        -13    1    4    4    0    0  0.14668043329E+00 -0.11170047199E+02 -0.70811791978E+02  0.71687603648E+02  0.10566000000E+00 0. -1.
     200003    1    4    4    0    0  0.41555005978E+02 -0.17080440172E+03 -0.18512645298E+03  0.25704623273E+03  0.30000000000E+02 0. -1.
     200000    1    3    3    0    0 -0.58823684968E+02  0.27116349250E+02  0.27839996686E+03  0.30315518115E+03  0.10100000000E+03 0.  1.
    -200001    1    1    2    0    0  0.17121998556E+02  0.15485809967E+03 -0.39858427740E+03  0.74760458804E+03  0.61300000000E+03 0. -1.
<mgrwt>
<rscale>  0 0.13272281E+04</rscale>
<asrwt>0</asrwt>
<pdfrwt beam="1">  1        2 0.71669361E-01 0.13272281E+04</pdfrwt>
<pdfrwt beam="2">  1       -2 0.12540115E+00 0.13272281E+04</pdfrwt>
<totfact> 0.31156874E+01</totfact>
</mgrwt>
</event>
<event>
 8    1  0.7685004E-052  0.1725896E+04  0.7818608E-02  0.8746731E-01
         -2   -1    0    0    0  501 -0.00000000000E+00  0.00000000000E+00  0.54480852648E+03  0.54480852649E+03  0.25500000000E-02 0. -1.
          2   -1    0    0  501    0  0.00000000000E+00 -0.00000000000E+00 -0.13668635743E+04  0.13668635743E+04  0.25500000000E-02 0.  1.
     200001    2    1    2    0    0 -0.19469577744E+03  0.33104404397E+03 -0.93216369018E+03  0.11799689383E+04  0.61310761319E+03 0.  0.
    5000001    2    3    3    0    0  0.16666737642E+02  0.91166109706E+02 -0.80520166141E+03  0.82144991112E+03  0.13357095958E+03 0.  0.
        -13    1    4    4    0    0 -0.35190828720E+02  0.44431605201E+02 -0.59932883877E+03  0.60200301503E+03  0.10566000000E+00 0. -1.
     200003    1    4    4    0    0  0.51857566362E+02  0.46734504506E+02 -0.20587282264E+03  0.21944689609E+03  0.30000000000E+02 0. -1.
     200000    1    3    3    0    0 -0.21136251508E+03  0.23987793426E+03 -0.12696202877E+03  0.35851902722E+03  0.10100000000E+03 0. -1.
    -200001    1    1    2    0    0  0.19469577744E+03 -0.33104404397E+03  0.11010864237E+03  0.73170316244E+03  0.61300000000E+03 0. -1.
<mgrwt>
<rscale>  0 0.17258956E+04</rscale>
<asrwt>0</asrwt>
<pdfrwt beam="1">  1        2 0.19526622E+00 0.17258956E+04</pdfrwt>
<pdfrwt beam="2">  1       -2 0.77829790E-01 0.17258956E+04</pdfrwt>
<totfact> 0.24149008E+01</totfact>
</mgrwt>
</event>
<event>
 8    1  0.7685004E-052  0.1325653E+04  0.7818608E-02  0.9009466E-01
          2   -1    0    0  501    0  0.00000000000E+00  0.00000000000E+00  0.89323643817E+03  0.89323643817E+03  0.25500000000E-02 0.  1.
         -2   -1    0    0    0  501 -0.00000000000E+00 -0.00000000000E+00 -0.49185060175E+03  0.49185060175E+03  0.25500000000E-02 0. -1.
     200001    2    1    2    0    0 -0.13338388510E+03 -0.11253062212E+03  0.39061319484E+03  0.74763943304E+03  0.61313265459E+03 0.  0.
    5000001    2    3    3    0    0  0.18749274317E+03 -0.48266644618E+01 -0.18363867715E+02  0.20724588129E+03  0.86236872869E+02 0.  0.
        -13    1    4    4    0    0 -0.36155712868E+01 -0.36251764925E+00 -0.13184424457E+02  0.13676402563E+02  0.10566000000E+00 0. -1.
     200003    1    4    4    0    0  0.19110831446E+03 -0.44641468125E+01 -0.51794432582E+01  0.19356947873E+03  0.30000000000E+02 0. -1.
     200000    1    3    3    0    0 -0.32087662828E+03 -0.10770395766E+03  0.40897706256E+03  0.54039355175E+03  0.10100000000E+03 0.  1.
    -200001    1    1    2    0    0  0.13338388510E+03  0.11253062212E+03  0.10772641577E+02  0.63744760689E+03  0.61300000000E+03 0.  1.
<mgrwt>
<rscale>  0 0.13256529E+04</rscale>
<asrwt>0</asrwt>
<pdfrwt beam="1">  1        2 0.12760521E+00 0.13256529E+04</pdfrwt>
<pdfrwt beam="2">  1       -2 0.70264372E-01 0.13256529E+04</pdfrwt>
<totfact> 0.59346101E+01</totfact>
</mgrwt>
</event>
<event>
 8    1  0.7685004E-052  0.2669513E+04  0.7818608E-02  0.8344965E-01
          2   -1    0    0  501    0  0.00000000000E+00  0.00000000000E+00  0.33096626869E+04  0.33096626869E+04  0.25500000000E-02 0.  1.
         -2   -1    0    0    0  501 -0.00000000000E+00 -0.00000000000E+00 -0.53829486394E+03  0.53829486394E+03  0.25500000000E-02 0. -1.
     200001    2    1    2    0    0 -0.69029157904E+03 -0.28380615992E+03  0.27137898409E+04  0.28804180816E+04  0.61245785493E+03 0.  0.
    5000001    2    3    3    0    0 -0.41188730841E+01 -0.24800379158E+03  0.96567534553E+03  0.99940237707E+03  0.68944851699E+02 0.  0.
        -13    1    4    4    0    0 -0.13534225712E+02 -0.50954427355E+02  0.29492287939E+03  0.29959813899E+03  0.10566000000E+00 0. -1.
     200003    1    4    4    0    0  0.94153526274E+01 -0.19704936423E+03  0.67075246614E+03  0.69980423809E+03  0.30000000000E+02 0. -1.
     200000    1    3    3    0    0 -0.68617270595E+03 -0.35802368336E+02  0.17481144953E+04  0.18810157046E+04  0.10100000000E+03 0. -1.
    -200001    1    1    2    0    0  0.69029157904E+03  0.28380615992E+03  0.57577982108E+02  0.96753946923E+03  0.61300000000E+03 0.  1.
<mgrwt>
<rscale>  0 0.26695126E+04</rscale>
<asrwt>0</asrwt>
<pdfrwt beam="1">  1        2 0.47280897E+00 0.26695126E+04</pdfrwt>
<pdfrwt beam="2">  1       -2 0.76899265E-01 0.26695126E+04</pdfrwt>
<totfact> 0.20900262E+00</totfact>
</mgrwt>
</event>
<event>
 8    1  0.7685004E-052  0.1614322E+04  0.7818608E-02  0.8811797E-01
          2   -1    0    0  501    0  0.00000000000E+00  0.00000000000E+00  0.10503393529E+04  0.10503393530E+04  0.25500000000E-02 0.  1.
         -2   -1    0    0    0  501 -0.00000000000E+00 -0.00000000000E+00 -0.62028426573E+03  0.62028426574E+03  0.25500000000E-02 0. -1.
     200001    2    1    2    0    0 -0.40657678101E+02 -0.51108224980E+03  0.33204094308E+03  0.86549388672E+03  0.61316422533E+03 0.  0.
    5000001    2    3    3    0    0 -0.30565337235E+03 -0.22082098546E+03  0.18923905732E+03  0.43529893310E+03  0.10718138222E+03 0.  0.
        -13    1    4    4    0    0 -0.86017510820E+01 -0.34952749826E+02  0.38376457061E+02  0.52616047578E+02  0.10566000000E+00 0. -1.
     200003    1    4    4    0    0 -0.29705162127E+03 -0.18586823563E+03  0.15086260026E+03  0.38268288552E+03  0.30000000000E+02 0. -1.
     200000    1    3    3    0    0  0.26499569425E+03 -0.29026126434E+03  0.14280188576E+03  0.43019495362E+03  0.10100000000E+03 0.  1.
    -200001    1    1    2    0    0  0.40657678101E+02  0.51108224980E+03  0.98014144133E+02  0.80512973197E+03  0.61300000000E+03 0. -1.
<mgrwt>
<rscale>  0 0.16143221E+04</rscale>
<asrwt>0</asrwt>
<pdfrwt beam="1">  1        2 0.15004848E+00 0.16143221E+04</pdfrwt>
<pdfrwt beam="2">  1       -2 0.88612038E-01 0.16143221E+04</pdfrwt>
<totfact> 0.27519893E+01</totfact>
</mgrwt>
</event>
<event>
 8    1  0.7685004E-052  0.1833503E+04  0.7818608E-02  0.8688683E-01
         -2   -1    0    0    0  501 -0.00000000000E+00  0.00000000000E+00  0.37313088331E+03  0.37313088332E+03  0.25500000000E-02 0. -1.
          2   -1    0    0  501    0  0.00000000000E+00 -0.00000000000E+00 -0.22523832588E+04  0.22523832588E+04  0.25500000000E-02 0.  1.
     200001    2    1    2    0    0 -0.49256936772E+03  0.18335653067E+03 -0.15613392308E+04  0.17577111881E+04  0.61280031662E+03 0.  0.
    5000001    2    3    3    0    0 -0.32113496068E+03 -0.13680117879E+03 -0.40011606934E+03  0.53683816221E+03  0.79120907252E+02 0.  0.
        -13    1    4    4    0    0 -0.26184186728E+03 -0.12177379259E+03 -0.30715766062E+03  0.42158730966E+03  0.10566000000E+00 0. -1.
     200003    1    4    4    0    0 -0.59293093402E+02 -0.15027386200E+02 -0.92958408717E+02  0.11525085255E+03  0.30000000000E+02 0.  1.
     200000    1    3    3    0    0 -0.17143440704E+03  0.32015770946E+03 -0.11612231614E+04  0.12208730259E+04  0.10100000000E+03 0.  1.
    -200001    1    1    2    0    0  0.49256936772E+03 -0.18335653067E+03 -0.31791314473E+03  0.86780295399E+03  0.61300000000E+03 0. -1.
<mgrwt>
<rscale>  0 0.18335035E+04</rscale>
<asrwt>0</asrwt>
<pdfrwt beam="1">  1        2 0.32176903E+00 0.18335035E+04</pdfrwt>
<pdfrwt beam="2">  1       -2 0.53304413E-01 0.18335035E+04</pdfrwt>
<totfact> 0.18613596E+01</totfact>
</mgrwt>
</event>
<event>
 8    1  0.7685004E-052  0.1267979E+04  0.7818608E-02  0.9055350E-01
          2   -1    0    0  501    0  0.00000000000E+00  0.00000000000E+00  0.60516947687E+03  0.60516947688E+03  0.25500000000E-02 0.  1.
         -2   -1    0    0    0  501 -0.00000000000E+00 -0.00000000000E+00 -0.66418251422E+03  0.66418251423E+03  0.25500000000E-02 0. -1.
     200001    2    1    2    0    0  0.35198044087E+02 -0.33946195247E+02 -0.18178508773E+03  0.64226888431E+03  0.61406209389E+03 0.  0.
    5000001    2    3    3    0    0  0.55941170853E+02 -0.23953202111E+03 -0.27987820610E+03  0.39223074927E+03  0.12250774134E+03 0.  0.
        -13    1    4    4    0    0  0.33246249350E+02 -0.22964632240E+03 -0.21361133781E+03  0.31539270964E+03  0.10566000000E+00 0. -1.
     200003    1    4    4    0    0  0.22694921503E+02 -0.98856987079E+01 -0.66266868290E+02  0.76838039628E+02  0.30000000000E+02 0. -1.
     200000    1    3    3    0    0 -0.20743126766E+02  0.20558582586E+03  0.98093118370E+02  0.25003813504E+03  0.10100000000E+03 0.  1.
    -200001    1    1    2    0    0 -0.35198044087E+02  0.33946195247E+02  0.12277205038E+03  0.62708310680E+03  0.61300000000E+03 0.  1.
<mgrwt>
<rscale>  0 0.12679795E+04</rscale>
<asrwt>0</asrwt>
<pdfrwt beam="1">  1        2 0.86452783E-01 0.12679795E+04</pdfrwt>
<pdfrwt beam="2">  1       -2 0.94883216E-01 0.12679795E+04</pdfrwt>
<totfact> 0.49389300E+01</totfact>
</mgrwt>
</event>
<event>
 8    1  0.7685004E-052  0.1951626E+04  0.7818608E-02  0.8629577E-01
          2   -1    0    0  501    0  0.00000000000E+00  0.00000000000E+00  0.17538653704E+04  0.17538653704E+04  0.25500000000E-02 0.  1.
         -2   -1    0    0    0  501 -0.00000000000E+00 -0.00000000000E+00 -0.54292116142E+03  0.54292116142E+03  0.25500000000E-02 0. -1.
     200001    2    1    2    0    0 -0.72910466869E+03 -0.12920321653E+02  0.34744937062E+03  0.10110365995E+04  0.60804061357E+03 0.  0.
    5000001    2    3    3    0    0 -0.78448702451E+03  0.68868572261E+02  0.22306395534E+03  0.82280971501E+03  0.84234951633E+02 0.  0.
        -13    1    4    4    0    0 -0.28211528007E+03  0.29935053330E+02  0.43297415726E+02  0.28698399962E+03  0.10566000000E+00 0. -1.
     200003    1    4    4    0    0 -0.50237174444E+03  0.38933518930E+02  0.17976653961E+03  0.53582571539E+03  0.30000000000E+02 0. -1.
     200000    1    3    3    0    0  0.55382355825E+02 -0.81788893914E+02  0.12438541529E+03  0.18822688448E+03  0.10100000000E+03 0. -1.
    -200001    1    1    2    0    0  0.72910466869E+03  0.12920321653E+02  0.86349483835E+03  0.12857499323E+04  0.61300000000E+03 0. -1.
<mgrwt>
<rscale>  0 0.19516256E+04</rscale>
<asrwt>0</asrwt>
<pdfrwt beam="1">  1        2 0.25055220E+00 0.19516256E+04</pdfrwt>
<pdfrwt beam="2">  1       -2 0.77560166E-01 0.19516256E+04</pdfrwt>
<totfact> 0.14916241E+01</totfact>
</mgrwt>
</event>
<event>
 8    1  0.7685004E-052  0.1424221E+04  0.7818608E-02  0.8936471E-01
         -2   -1    0    0    0  501 -0.00000000000E+00  0.00000000000E+00  0.50308293454E+03  0.50308293455E+03  0.25500000000E-02 0. -1.
          2   -1    0    0  501    0  0.00000000000E+00 -0.00000000000E+00 -0.10079871162E+04  0.10079871162E+04  0.25500000000E-02 0.  1.
     200001    2    1    2    0    0 -0.31575910774E+02  0.13035341674E+03  0.10448664452E+03  0.63636139614E+03  0.61322860030E+03 0.  0.
    5000001    2    3    3    0    0  0.17133102453E+03 -0.52856084326E+01 -0.63249973299E+02  0.32346246278E+03  0.26691786767E+03 0.  0.
        -13    1    4    4    0    0 -0.44231041624E+02  0.73408694899E+02 -0.20406494721E+02  0.88100270832E+02  0.10566000000E+00 0. -1.
     200003    1    4    4    0    0  0.21556206615E+03 -0.78694303331E+02 -0.42843478578E+02  0.23536219195E+03  0.30000000000E+02 0. -1.
     200000    1    3    3    0    0 -0.20290693530E+03  0.13563902518E+03  0.16773661782E+03  0.31289893337E+03  0.10100000000E+03 0. -1.
    -200001    1    1    2    0    0  0.31575910774E+02 -0.13035341674E+03 -0.60939082613E+03  0.87470865457E+03  0.61300000000E+03 0.  1.
<mgrwt>
<rscale>  0 0.14242207E+04</rscale>
<asrwt>0</asrwt>
<pdfrwt beam="1">  1        2 0.14399816E+00 0.14242207E+04</pdfrwt>
<pdfrwt beam="2">  1       -2 0.71868991E-01 0.14242207E+04</pdfrwt>
<totfact> 0.47416645E+01</totfact>
</mgrwt>
</event>
<event>
 8    1  0.7685004E-052  0.1653116E+04  0.7818608E-02  0.8788565E-01
         -2   -1    0    0    0  501 -0.00000000000E+00  0.00000000000E+00  0.21624228064E+03  0.21624228065E+03  0.25500000000E-02 0. -1.
          2   -1    0    0  501    0  0.00000000000E+00 -0.00000000000E+00 -0.31594087115E+04  0.31594087115E+04  0.25500000000E-02 0.  1.
     200001    2    1    2    0    0 -0.26408458871E+01  0.42935011325E+03 -0.75583161141E+03  0.10638224721E+04  0.61326041246E+03 0.  0.
    5000001    2    3    3    0    0 -0.12651214055E+03  0.10133755706E+03 -0.66426450264E+03  0.68762854594E+03  0.72877057815E+02 0.  0.
        -13    1    4    4    0    0 -0.79952796190E+02  0.40582608478E+02 -0.43299253464E+03  0.44217863352E+03  0.10566000000E+00 0. -1.
     200003    1    4    4    0    0 -0.46559344360E+02  0.60754948583E+02 -0.23127196800E+03  0.24544991242E+03  0.30000000000E+02 0. -1.
     200000    1    3    3    0    0  0.12387129466E+03  0.32801255619E+03 -0.91567108774E+02  0.37619392614E+03  0.10100000000E+03 0. -1.
    -200001    1    1    2    0    0  0.26408458871E+01 -0.42935011325E+03 -0.21873348194E+04  0.23118285200E+04  0.61300000000E+03 0.  1.
<mgrwt>
<rscale>  0 0.16531155E+04</rscale>
<asrwt>0</asrwt>
<pdfrwt beam="1">  1        2 0.45134407E+00 0.16531155E+04</pdfrwt>
<pdfrwt beam="2">  1       -2 0.30891756E-01 0.16531155E+04</pdfrwt>
<totfact> 0.17866821E+01</totfact>
</mgrwt>
</event>
<event>
 8    1  0.7685004E-052  0.1775331E+04  0.7818608E-02  0.8719529E-01
          2   -1    0    0  501    0  0.00000000000E+00  0.00000000000E+00  0.19219863058E+04  0.19219863058E+04  0.25500000000E-02 0. -1.
         -2   -1    0    0    0  501 -0.00000000000E+00 -0.00000000000E+00 -0.40996666956E+03  0.40996666956E+03  0.25500000000E-02 0.  1.
     200001    2    1    2    0    0 -0.32447175524E+03  0.51656713595E+03  0.10191858740E+04  0.13365748346E+04  0.61283677831E+03 0.  0.
    5000001    2    3    3    0    0 -0.35840183094E+03  0.48183829039E+03  0.48070794765E+03  0.78655954398E+03  0.16424303573E+03 0.  0.
        -13    1    4    4    0    0 -0.15415405387E+03  0.10540760744E+03  0.95465636598E+02  0.20973300876E+03  0.10566000000E+00 0. -1.
     200003    1    4    4    0    0 -0.20424777708E+03  0.37643068295E+03  0.38524231105E+03  0.57682653522E+03  0.30000000000E+02 0. -1.
     200000    1    3    3    0    0  0.33930075703E+02  0.34728845559E+02  0.53847792635E+03  0.55001529062E+03  0.10100000000E+03 0. -1.
    -200001    1    1    2    0    0  0.32447175524E+03 -0.51656713595E+03  0.49283376224E+03  0.99537814076E+03  0.61300000000E+03 0. -1.
<mgrwt>
<rscale>  0 0.17753313E+04</rscale>
<asrwt>0</asrwt>
<pdfrwt beam="1">  1        2 0.27456947E+00 0.17753313E+04</pdfrwt>
<pdfrwt beam="2">  1       -2 0.58566667E-01 0.17753313E+04</pdfrwt>
<totfact> 0.22753792E+01</totfact>
</mgrwt>
</event>
<event>
 8    1  0.7685004E-052  0.1425760E+04  0.7818608E-02  0.8935381E-01
         -2   -1    0    0    0  501 -0.00000000000E+00  0.00000000000E+00  0.15709108137E+04  0.15709108137E+04  0.25500000000E-02 0. -1.
          2   -1    0    0  501    0  0.00000000000E+00 -0.00000000000E+00 -0.32350503963E+03  0.32350503964E+03  0.25500000000E-02 0.  1.
     200001    2    1    2    0    0  0.32567101973E+03 -0.16020019848E+03  0.58389937400E+03  0.92089879669E+03  0.61269111149E+03 0.  0.
    5000001    2    3    3    0    0  0.57540451790E+02  0.78277999709E+02  0.51356234287E+03  0.54153861108E+03  0.14170193523E+03 0.  0.
        -13    1    4    4    0    0  0.93083028419E+02  0.17870363245E+02  0.31008371215E+03  0.32424638744E+03  0.10566000000E+00 0. -1.
     200003    1    4    4    0    0 -0.35542576629E+02  0.60407636464E+02  0.20347863071E+03  0.21729222364E+03  0.30000000000E+02 0. -1.
     200000    1    3    3    0    0  0.26813056794E+03 -0.23847819819E+03  0.70337031131E+02  0.37936018561E+03  0.10100000000E+03 0. -1.
    -200001    1    1    2    0    0 -0.32567101973E+03  0.16020019848E+03  0.66350640012E+03  0.97351705670E+03  0.61300000000E+03 0.  1.
<mgrwt>
<rscale>  0 0.14257595E+04</rscale>
<asrwt>0</asrwt>
<pdfrwt beam="1">  1        2 0.46215006E-01 0.14257595E+04</pdfrwt>
<pdfrwt beam="2">  1       -2 0.22441583E+00 0.14257595E+04</pdfrwt>
<totfact> 0.98880164E+00</totfact>
</mgrwt>
</event>
<event>
 8    1  0.7685004E-052  0.3486622E+04  0.7818608E-02  0.8116968E-01
          2   -1    0    0  501    0  0.00000000000E+00  0.00000000000E+00  0.38572614748E+04  0.38572614748E+04  0.25500000000E-02 0.  1.
         -2   -1    0    0    0  501 -0.00000000000E+00 -0.00000000000E+00 -0.78789919718E+03  0.78789919719E+03  0.25500000000E-02 0. -1.
     200001    2    1    2    0    0  0.12495113291E+04  0.13413045447E+03  0.14731256707E+03  0.14058068705E+04  0.61263563762E+03 0.  0.
    5000001    2    3    3    0    0  0.75832868571E+03  0.35317982486E+03  0.17093184365E+03  0.85808259131E+03  0.85379471053E+02 0.  0.
        -13    1    4    4    0    0  0.26641640750E+03  0.97117457809E+02  0.30334527897E+02  0.28518362075E+03  0.10566000000E+00 0. -1.
     200003    1    4    4    0    0  0.49191227821E+03  0.25606236705E+03  0.14059731575E+03  0.57289897056E+03  0.30000000000E+02 0. -1.
     200000    1    3    3    0    0  0.49118264335E+03 -0.21904937039E+03 -0.23619276571E+02  0.54772427920E+03  0.10100000000E+03 0.  1.
    -200001    1    1    2    0    0 -0.12495113291E+04 -0.13413045447E+03  0.29220497106E+04  0.32393538015E+04  0.61300000000E+03 0.  1.
<mgrwt>
<rscale>  0 0.34866220E+04</rscale>
<asrwt>0</asrwt>
<pdfrwt beam="1">  1        2 0.55103735E+00 0.34866220E+04</pdfrwt>
<pdfrwt beam="2">  1       -2 0.11255703E+00 0.34866220E+04</pdfrwt>
<totfact> 0.36595248E-01</totfact>
</mgrwt>
</event>
<event>
 8    1  0.7685004E-052  0.1802504E+04  0.7818608E-02  0.8704969E-01
         -2   -1    0    0    0  501 -0.00000000000E+00  0.00000000000E+00  0.77551112491E+03  0.77551112491E+03  0.25500000000E-02 0. -1.
          2   -1    0    0  501    0  0.00000000000E+00 -0.00000000000E+00 -0.10473804959E+04  0.10473804959E+04  0.25500000000E-02 0.  1.
     200001    2    1    2    0    0 -0.49842022348E+03 -0.87838605745E+02  0.29465624152E+03  0.84674685212E+03  0.61157141126E+03 0.  0.
    5000001    2    3    3    0    0 -0.40081251701E+03 -0.17804279262E+03  0.62111916796E+02  0.56049185626E+03  0.34342877126E+03 0.  0.
        -13    1    4    4    0    0 -0.35294400216E+03 -0.22434204750E+03  0.15172614795E+03  0.44488162254E+03  0.10566000000E+00 0. -1.
     200003    1    4    4    0    0 -0.47868514844E+02  0.46299254880E+02 -0.89614231151E+02  0.11561023372E+03  0.30000000000E+02 0. -1.
     200000    1    3    3    0    0 -0.97607706474E+02  0.90204186873E+02  0.23254432473E+03  0.28625499586E+03  0.10100000000E+03 0. -1.
    -200001    1    1    2    0    0  0.49842022348E+03  0.87838605745E+02 -0.56652561254E+03  0.97614476872E+03  0.61300000000E+03 0.  1.
<mgrwt>
<rscale>  0 0.18025041E+04</rscale>
<asrwt>0</asrwt>
<pdfrwt beam="1">  1        2 0.14962578E+00 0.18025041E+04</pdfrwt>
<pdfrwt beam="2">  1       -2 0.11078730E+00 0.18025041E+04</pdfrwt>
<totfact> 0.16064742E+01</totfact>
</mgrwt>
</event>
<event>
 8    1  0.7685004E-052  0.1332629E+04  0.7818608E-02  0.9004083E-01
         -2   -1    0    0    0  501 -0.00000000000E+00  0.00000000000E+00  0.12036580480E+03  0.12036580483E+03  0.25500000000E-02 0. -1.
          2   -1    0    0  501    0  0.00000000000E+00 -0.00000000000E+00 -0.36885476992E+04  0.36885476992E+04  0.25500000000E-02 0.  1.
     200001    2    1    2    0    0  0.24716362156E+03  0.83158373716E+02 -0.18172699237E+04  0.19355563837E+04  0.61310958902E+03 0.  0.
    5000001    2    3    3    0    0  0.30724732365E+03 -0.11489927686E+03 -0.53499675512E+03  0.63276616155E+03  0.81047674252E+02 0.  0.
        -13    1    4    4    0    0  0.14887012248E+03 -0.92118137294E+02 -0.28152687207E+03  0.33151991712E+03  0.10566000000E+00 0. -1.
     200003    1    4    4    0    0  0.15837720117E+03 -0.22781139569E+02 -0.25346988306E+03  0.30124624444E+03  0.30000000000E+02 0. -1.
     200000    1    3    3    0    0 -0.60083702083E+02  0.19805765058E+03 -0.12822731685E+04  0.13027902221E+04  0.10100000000E+03 0.  1.
    -200001    1    1    2    0    0 -0.24716362156E+03 -0.83158373716E+02 -0.17509119707E+04  0.18733571203E+04  0.61300000000E+03 0. -1.
<mgrwt>
<rscale>  0 0.13326290E+04</rscale>
<asrwt>0</asrwt>
<pdfrwt beam="1">  1        2 0.52693531E+00 0.13326290E+04</pdfrwt>
<pdfrwt beam="2">  1       -2 0.17195117E-01 0.13326290E+04</pdfrwt>
<totfact> 0.25409705E+01</totfact>
</mgrwt>
</event>
<event>
 8    1  0.7685004E-052  0.2370635E+04  0.7818608E-02  0.8450580E-01
         -2   -1    0    0    0  501 -0.00000000000E+00  0.00000000000E+00  0.12495452345E+04  0.12495452345E+04  0.25500000000E-02 0. -1.
          2   -1    0    0  501    0  0.00000000000E+00 -0.00000000000E+00 -0.11243915810E+04  0.11243915810E+04  0.25500000000E-02 0.  1.
     200001    2    1    2    0    0  0.99665542916E+03 -0.11045133848E+03  0.21723056379E+03  0.11950523003E+04  0.61273105022E+03 0.  0.
    5000001    2    3    3    0    0  0.87231735116E+03 -0.13809476205E+03  0.38062112022E+03  0.96457108534E+03  0.74277971711E+02 0.  0.
        -13    1    4    4    0    0  0.41204628604E+03 -0.82127208358E+02  0.15261140907E+03  0.44700925442E+03  0.10566000000E+00 0. -1.
     200003    1    4    4    0    0  0.46027106512E+03 -0.55967553687E+02  0.22800971114E+03  0.51756183092E+03  0.30000000000E+02 0.  1.
     200000    1    3    3    0    0  0.12433807800E+03  0.27643423569E+02 -0.16339055643E+03  0.23048121494E+03  0.10100000000E+03 0.  1.
    -200001    1    1    2    0    0 -0.99665542916E+03  0.11045133848E+03 -0.92076910287E+02  0.11788845151E+04  0.61300000000E+03 0.  1.
<mgrwt>
<rscale>  0 0.23706355E+04</rscale>
<asrwt>0</asrwt>
<pdfrwt beam="1">  1        2 0.16062737E+00 0.23706355E+04</pdfrwt>
<pdfrwt beam="2">  1       -2 0.17850646E+00 0.23706355E+04</pdfrwt>
<totfact> 0.39767827E+00</totfact>
</mgrwt>
</event>
<event>
 8    1  0.7685004E-052  0.2033534E+04  0.7818608E-02  0.8591101E-01
         -2   -1    0    0    0  501 -0.00000000000E+00  0.00000000000E+00  0.62532403018E+03  0.62532403018E+03  0.25500000000E-02 0. -1.
          2   -1    0    0  501    0  0.00000000000E+00 -0.00000000000E+00 -0.16532466448E+04  0.16532466448E+04  0.25500000000E-02 0.  1.
     200001    2    1    2    0    0  0.50374824274E+03  0.46894968554E+03 -0.99506938609E+03  0.13563318587E+04  0.61302277944E+03 0.  0.
    5000001    2    3    3    0    0  0.12723435920E+03  0.27017216446E+02  0.46756162671E+02  0.15939055445E+03  0.79376935895E+02 0.  0.
        -13    1    4    4    0    0  0.10309050052E+03  0.37739562836E+02  0.20814886024E+02  0.11173717620E+03  0.10566000000E+00 0. -1.
     200003    1    4    4    0    0  0.24143858684E+02 -0.10722346390E+02  0.25941276648E+02  0.47653378247E+02  0.30000000000E+02 0.  1.
     200000    1    3    3    0    0  0.37651388353E+03  0.44193246909E+03 -0.10418255488E+04  0.11969413042E+04  0.10100000000E+03 0.  1.
    -200001    1    1    2    0    0 -0.50374824274E+03 -0.46894968554E+03 -0.32853228506E+02  0.92223881628E+03  0.61300000000E+03 0. -1.
<mgrwt>
<rscale>  0 0.20335337E+04</rscale>
<asrwt>0</asrwt>
<pdfrwt beam="1">  1        2 0.23617809E+00 0.20335337E+04</pdfrwt>
<pdfrwt beam="2">  1       -2 0.89332005E-01 0.20335337E+04</pdfrwt>
<totfact> 0.12137728E+01</totfact>
</mgrwt>
</event>
<event>
 8    1  0.7685004E-052  0.2857198E+04  0.7818608E-02  0.8285727E-01
         -2   -1    0    0    0  501 -0.00000000000E+00  0.00000000000E+00  0.55844741747E+03  0.55844741747E+03  0.25500000000E-02 0. -1.
          2   -1    0    0  501    0  0.00000000000E+00 -0.00000000000E+00 -0.36545881827E+04  0.36545881827E+04  0.25500000000E-02 0.  1.
     200001    2    1    2    0    0  0.74309714441E+03  0.10544133849E+04 -0.15929091801E+04  0.21395228438E+04  0.61336562572E+03 0.  0.
    5000001    2    3    3    0    0  0.22494442002E+03  0.21538557483E+03 -0.79401072095E+03  0.86638119421E+03  0.15222486906E+03 0.  0.
        -13    1    4    4    0    0  0.70342646900E+02  0.11128168042E+03 -0.17353249620E+03  0.21781928008E+03  0.10566000000E+00 0. -1.
     200003    1    4    4    0    0  0.15460177312E+03  0.10410389440E+03 -0.62047822475E+03  0.64856191414E+03  0.30000000000E+02 0. -1.
     200000    1    3    3    0    0  0.51815272439E+03  0.83902781007E+03 -0.79889845911E+03  0.12731416496E+04  0.10100000000E+03 0.  1.
    -200001    1    1    2    0    0 -0.74309714441E+03 -0.10544133849E+04 -0.15032315851E+04  0.20735127564E+04  0.61300000000E+03 0. -1.
<mgrwt>
<rscale>  0 0.28571982E+04</rscale>
<asrwt>0</asrwt>
<pdfrwt beam="1">  1        2 0.52208401E+00 0.28571982E+04</pdfrwt>
<pdfrwt beam="2">  1       -2 0.79778204E-01 0.28571982E+04</pdfrwt>
<totfact> 0.11665851E+00</totfact>
</mgrwt>
</event>
<event>
 8    1  0.7685004E-052  0.2836922E+04  0.7818608E-02  0.8291896E-01
         -2   -1    0    0    0  501 -0.00000000000E+00  0.00000000000E+00  0.97248427160E+03  0.97248427161E+03  0.25500000000E-02 0.  1.
          2   -1    0    0  501    0  0.00000000000E+00 -0.00000000000E+00 -0.20689605443E+04  0.20689605443E+04  0.25500000000E-02 0. -1.
     200001    2    1    2    0    0 -0.74767043350E+02  0.85833391481E+03  0.46534181771E+03  0.11553451453E+04  0.61314939229E+03 0.  0.
    5000001    2    3    3    0    0  0.13710927454E+03  0.79002527460E+03  0.29465652791E+03  0.85719734203E+03  0.70893766225E+02 0.  0.
        -13    1    4    4    0    0  0.39215321666E+02  0.22244959780E+03  0.53870975413E+02  0.23221489653E+03  0.10566000000E+00 0. -1.
     200003    1    4    4    0    0  0.97893952872E+02  0.56757567680E+03  0.24078555249E+03  0.62498244550E+03  0.30000000000E+02 0. -1.
     200000    1    3    3    0    0 -0.21187631789E+03  0.68308640217E+02  0.17068528980E+03  0.29814780322E+03  0.10100000000E+03 0.  1.
    -200001    1    1    2    0    0  0.74767043350E+02 -0.85833391481E+03 -0.15618180904E+04  0.18860996706E+04  0.61300000000E+03 0. -1.
<mgrwt>
<rscale>  0 0.28369220E+04</rscale>
<asrwt>0</asrwt>
<pdfrwt beam="1">  1        2 0.29556579E+00 0.28369220E+04</pdfrwt>
<pdfrwt beam="2">  1       -2 0.13892632E+00 0.28369220E+04</pdfrwt>
<totfact> 0.23672717E+00</totfact>
</mgrwt>
</event>
<event>
 8    1  0.7685004E-052  0.1861883E+04  0.7818608E-02  0.8674066E-01
         -2   -1    0    0    0  501 -0.00000000000E+00  0.00000000000E+00  0.24456986409E+03  0.24456986411E+03  0.25500000000E-02 0. -1.
          2   -1    0    0  501    0  0.00000000000E+00 -0.00000000000E+00 -0.35435749339E+04  0.35435749339E+04  0.25500000000E-02 0.  1.
     200001    2    1    2    0    0 -0.14005964350E+03 -0.66855570029E+03 -0.19665322077E+04  0.21701718822E+04  0.61303641502E+03 0.  0.
    5000001    2    3    3    0    0 -0.10593652374E+03  0.64119663727E+02 -0.58069747854E+03  0.59895691506E+03  0.78777827956E+02 0.  0.
        -13    1    4    4    0    0 -0.47647064553E+02  0.25387251016E+02 -0.11459515846E+03  0.12667603081E+03  0.10566000000E+00 0. -1.
     200003    1    4    4    0    0 -0.58289459189E+02  0.38732412711E+02 -0.46610232008E+03  0.47228088426E+03  0.30000000000E+02 0. -1.
     200000    1    3    3    0    0 -0.34123119756E+02 -0.73267536402E+03 -0.13858347292E+04  0.15712149671E+04  0.10100000000E+03 0. -1.
    -200001    1    1    2    0    0  0.14005964350E+03  0.66855570029E+03 -0.13324728621E+04  0.16179729158E+04  0.61300000000E+03 0.  1.
<mgrwt>
<rscale>  0 0.18618825E+04</rscale>
<asrwt>0</asrwt>
<pdfrwt beam="1">  1        2 0.50622496E+00 0.18618825E+04</pdfrwt>
<pdfrwt beam="2">  1       -2 0.34938554E-01 0.18618825E+04</pdfrwt>
<totfact> 0.82248547E+00</totfact>
</mgrwt>
</event>
<event>
 8    1  0.7685004E-052  0.1276822E+04  0.7818608E-02  0.9048150E-01
         -2   -1    0    0    0  501 -0.00000000000E+00  0.00000000000E+00  0.46965423065E+03  0.46965423066E+03  0.25500000000E-02 0. -1.
          2   -1    0    0  501    0  0.00000000000E+00 -0.00000000000E+00 -0.86780560596E+03  0.86780560596E+03  0.25500000000E-02 0.  1.
     200001    2    1    2    0    0  0.12444438399E+03 -0.28345392878E+02 -0.69261894699E+02  0.63019244980E+03  0.61323359964E+03 0.  0.
    5000001    2    3    3    0    0  0.99660733772E+02 -0.21003514023E+03 -0.25269274145E+03  0.35185224582E+03  0.76807286895E+02 0.  0.
        -13    1    4    4    0    0  0.70869984504E+02 -0.96092586141E+02 -0.15762872624E+03  0.19774520554E+03  0.10566000000E+00 0. -1.
     200003    1    4    4    0    0  0.28790749268E+02 -0.11394255409E+03 -0.95064015213E+02  0.15410704028E+03  0.30000000000E+02 0. -1.
     200000    1    3    3    0    0  0.24783650214E+02  0.18168974735E+03  0.18343084676E+03  0.27834020398E+03  0.10100000000E+03 0. -1.
    -200001    1    1    2    0    0 -0.12444438399E+03  0.28345392878E+02 -0.32888948061E+03  0.70726738682E+03  0.61300000000E+03 0.  1.
<mgrwt>
<rscale>  0 0.12768220E+04</rscale>
<asrwt>0</asrwt>
<pdfrwt beam="1">  1        2 0.12397223E+00 0.12768220E+04</pdfrwt>
<pdfrwt beam="2">  1       -2 0.67093462E-01 0.12768220E+04</pdfrwt>
<totfact> 0.68439071E+01</totfact>
</mgrwt>
</event>
<event>
 8    1  0.7685004E-052  0.1642602E+04  0.7818608E-02  0.8794795E-01
         -2   -1    0    0    0  501 -0.00000000000E+00  0.00000000000E+00  0.23170294490E+03  0.23170294492E+03  0.25500000000E-02 0. -1.
          2   -1    0    0  501    0  0.00000000000E+00 -0.00000000000E+00 -0.29112083892E+04  0.29112083892E+04  0.25500000000E-02 0.  1.
     200001    2    1    2    0    0 -0.33585947299E+03  0.75021710043E+02 -0.53006004202E+03  0.88142633971E+03  0.61442566809E+03 0.  0.
    5000001    2    3    3    0    0 -0.22140568257E+03 -0.69546488653E+02  0.62966028503E+02  0.25223594361E+03  0.76164690937E+02 0.  0.
        -13    1    4    4    0    0 -0.76932001882E+02 -0.56953992471E+02  0.32123150305E+02  0.10096632172E+03  0.10566000000E+00 0. -1.
     200003    1    4    4    0    0 -0.14447368069E+03 -0.12592496182E+02  0.30842878198E+02  0.15126962189E+03  0.30000000000E+02 0.  1.
     200000    1    3    3    0    0 -0.11445379042E+03  0.14456819870E+03 -0.59302607053E+03  0.62919039610E+03  0.10100000000E+03 0.  1.
    -200001    1    1    2    0    0  0.33585947299E+03 -0.75021710043E+02 -0.21494454023E+04  0.22614849944E+04  0.61300000000E+03 0.  1.
<mgrwt>
<rscale>  0 0.16426023E+04</rscale>
<asrwt>0</asrwt>
<pdfrwt beam="1">  1        2 0.41588689E+00 0.16426023E+04</pdfrwt>
<pdfrwt beam="2">  1       -2 0.33100422E-01 0.16426023E+04</pdfrwt>
<totfact> 0.21634620E+01</totfact>
</mgrwt>
</event>
<event>
 8    1  0.7685004E-052  0.1359696E+04  0.7818608E-02  0.8983521E-01
         -2   -1    0    0    0  501 -0.00000000000E+00  0.00000000000E+00  0.20598436547E+03  0.20598436548E+03  0.25500000000E-02 0. -1.
          2   -1    0    0  501    0  0.00000000000E+00 -0.00000000000E+00 -0.22438255951E+04  0.22438255951E+04  0.25500000000E-02 0.  1.
     200001    2    1    2    0    0 -0.13426454853E+03  0.10120755320E+03 -0.57979265101E+03  0.85923000489E+03  0.61143008212E+03 0.  0.
    5000001    2    3    3    0    0  0.12033424270E+03  0.10632270610E+03 -0.55514069797E+03  0.58417468668E+03  0.85405047930E+02 0.  0.
        -13    1    4    4    0    0  0.13084738398E+02  0.59740239985E+02 -0.18834973237E+03  0.19802964298E+03  0.10566000000E+00 0. -1.
     200003    1    4    4    0    0  0.10724950430E+03  0.46582466115E+02 -0.36679096560E+03  0.38614504370E+03  0.30000000000E+02 0. -1.
     200000    1    3    3    0    0 -0.25459879123E+03 -0.51151529039E+01 -0.24651953033E+02  0.27505531821E+03  0.10100000000E+03 0. -1.
    -200001    1    1    2    0    0  0.13426454853E+03 -0.10120755320E+03 -0.14580485786E+04  0.15905799557E+04  0.61300000000E+03 0.  1.
<mgrwt>
<rscale>  0 0.13596955E+04</rscale>
<asrwt>0</asrwt>
<pdfrwt beam="1">  1        2 0.32054650E+00 0.13596955E+04</pdfrwt>
<pdfrwt beam="2">  1       -2 0.29426339E-01 0.13596955E+04</pdfrwt>
<totfact> 0.62394482E+01</totfact>
</mgrwt>
</event>
<event>
 8    1  0.7685004E-052  0.1466561E+04  0.7818608E-02  0.8906999E-01
         -2   -1    0    0    0  501 -0.00000000000E+00  0.00000000000E+00  0.46010460108E+03  0.46010460109E+03  0.25500000000E-02 0. -1.
          2   -1    0    0  501    0  0.00000000000E+00 -0.00000000000E+00 -0.11686480707E+04  0.11686480707E+04  0.25500000000E-02 0.  1.
     200001    2    1    2    0    0  0.28919063448E+03  0.10220660108E+02 -0.52656423786E+02  0.68551754635E+03  0.61921395528E+03 0.  0.
    5000001    2    3    3    0    0  0.16098916801E+03 -0.65768748043E+02  0.21878441653E+03  0.35980120357E+03  0.22659930437E+03 0.  0.
        -13    1    4    4    0    0  0.15117144351E+03 -0.13779333990E+03  0.13607491154E+03  0.24567499378E+03  0.10566000000E+00 0. -1.
     200003    1    4    4    0    0  0.98177244971E+01  0.72024591855E+02  0.82709504989E+02  0.11412620979E+03  0.30000000000E+02 0. -1.
     200000    1    3    3    0    0  0.12820146647E+03  0.75989408151E+02 -0.27144084032E+03  0.32571634277E+03  0.10100000000E+03 0.  1.
    -200001    1    1    2    0    0 -0.28919063448E+03 -0.10220660108E+02 -0.65588704580E+03  0.94323512542E+03  0.61300000000E+03 0.  1.
<mgrwt>
<rscale>  0 0.14665611E+04</rscale>
<asrwt>0</asrwt>
<pdfrwt beam="1">  1        2 0.16694972E+00 0.14665611E+04</pdfrwt>
<pdfrwt beam="2">  1       -2 0.65729229E-01 0.14665611E+04</pdfrwt>
<totfact> 0.46059764E+01</totfact>
</mgrwt>
</event>
<event>
 8    1  0.7685004E-052  0.1889369E+04  0.7818608E-02  0.8660166E-01
          2   -1    0    0  501    0  0.00000000000E+00  0.00000000000E+00  0.20416009219E+04  0.20416009219E+04  0.25500000000E-02 0.  1.
         -2   -1    0    0    0  501 -0.00000000000E+00 -0.00000000000E+00 -0.43712209668E+03  0.43712209669E+03  0.25500000000E-02 0. -1.
     200001    2    1    2    0    0 -0.10399070659E+03  0.25884295804E+03 -0.62945733919E+02  0.68042176342E+03  0.61741223403E+03 0.  0.
    5000001    2    3    3    0    0  0.31302129666E+01 -0.31651884069E+02  0.22638012940E+03  0.24479279298E+03  0.87543751988E+02 0.  0.
        -13    1    4    4    0    0  0.27800086536E+02  0.10314882992E+02  0.39701445496E+02  0.49552573708E+02  0.10566000000E+00 0. -1.
     200003    1    4    4    0    0 -0.24669873570E+02 -0.41966767061E+02  0.18667868390E+03  0.19524021928E+03  0.30000000000E+02 0. -1.
     200000    1    3    3    0    0 -0.10712091955E+03  0.29049484211E+03 -0.28932586332E+03  0.43562897043E+03  0.10100000000E+03 0. -1.
    -200001    1    1    2    0    0  0.10399070659E+03 -0.25884295804E+03  0.16674245592E+04  0.17983012552E+04  0.61300000000E+03 0.  1.
<mgrwt>
<rscale>  0 0.18893691E+04</rscale>
<asrwt>0</asrwt>
<pdfrwt beam="1">  1        2 0.29165727E+00 0.18893691E+04</pdfrwt>
<pdfrwt beam="2">  1       -2 0.62446014E-01 0.18893691E+04</pdfrwt>
<totfact> 0.17082745E+01</totfact>
</mgrwt>
</event>
<event>
 8    1  0.7685004E-052  0.1404232E+04  0.7818608E-02  0.8950761E-01
          2   -1    0    0  501    0  0.00000000000E+00  0.00000000000E+00  0.46032119753E+03  0.46032119754E+03  0.25500000000E-02 0.  1.
         -2   -1    0    0    0  501 -0.00000000000E+00 -0.00000000000E+00 -0.10709200446E+04  0.10709200446E+04  0.25500000000E-02 0. -1.
     200001    2    1    2    0    0  0.86675699167E+02 -0.32441791456E+03 -0.38482188647E+03  0.79673195288E+03  0.61150164376E+03 0.  0.
    5000001    2    3    3    0    0 -0.20511893944E+02 -0.46762877723E+03 -0.33732284849E+03  0.58588677293E+03  0.10187833669E+03 0.  0.
        -13    1    4    4    0    0  0.37933339835E+02 -0.15420620157E+03 -0.11209221593E+03  0.19437892609E+03  0.10566000000E+00 0. -1.
     200003    1    4    4    0    0 -0.58445233780E+02 -0.31342257566E+03 -0.22523063256E+03  0.39150784683E+03  0.30000000000E+02 0. -1.
     200000    1    3    3    0    0  0.10718759311E+03  0.14321086266E+03 -0.47499037979E+02  0.21084517996E+03  0.10100000000E+03 0.  1.
    -200001    1    1    2    0    0 -0.86675699167E+02  0.32441791456E+03 -0.22577696064E+03  0.73450928930E+03  0.61300000000E+03 0.  1.
<mgrwt>
<rscale>  0 0.14042325E+04</rscale>
<asrwt>0</asrwt>
<pdfrwt beam="1">  1        2 0.65760172E-01 0.14042325E+04</pdfrwt>
<pdfrwt beam="2">  1       -2 0.15298858E+00 0.14042325E+04</pdfrwt>
<totfact> 0.20430178E+01</totfact>
</mgrwt>
</event>
<event>
 8    1  0.7685004E-052  0.1310222E+04  0.7818608E-02  0.9021498E-01
          2   -1    0    0  501    0  0.00000000000E+00  0.00000000000E+00  0.62696112078E+03  0.62696112079E+03  0.25500000000E-02 0.  1.
         -2   -1    0    0    0  501 -0.00000000000E+00 -0.00000000000E+00 -0.68452524162E+03  0.68452524162E+03  0.25500000000E-02 0. -1.
     200001    2    1    2    0    0  0.21028003880E+03 -0.49409790160E+02  0.53626816485E+02  0.65209918736E+03  0.61294248721E+03 0.  0.
    5000001    2    3    3    0    0  0.23952803209E+03 -0.21399183973E+03  0.11421338194E+02  0.45228677896E+03  0.31822428855E+03 0.  0.
        -13    1    4    4    0    0 -0.13207995947E+02 -0.15502333363E+03 -0.80699502295E+02  0.17526866794E+03  0.10566000000E+00 0. -1.
     200003    1    4    4    0    0  0.25273602803E+03 -0.58968506100E+02  0.92120840489E+02  0.27701811101E+03  0.30000000000E+02 0. -1.
     200000    1    3    3    0    0 -0.29247993285E+02  0.16458204957E+03  0.42205478291E+02  0.19981240840E+03  0.10100000000E+03 0. -1.
    -200001    1    1    2    0    0 -0.21028003880E+03  0.49409790160E+02 -0.11119093732E+03  0.65938717505E+03  0.61300000000E+03 0.  1.
<mgrwt>
<rscale>  0 0.13102224E+04</rscale>
<asrwt>0</asrwt>
<pdfrwt beam="1">  1        2 0.89565875E-01 0.13102224E+04</pdfrwt>
<pdfrwt beam="2">  1       -2 0.97789320E-01 0.13102224E+04</pdfrwt>
<totfact> 0.43982656E+01</totfact>
</mgrwt>
</event>
<event>
 8    1  0.7685004E-052  0.1306016E+04  0.7818608E-02  0.9024808E-01
         -2   -1    0    0    0  501 -0.00000000000E+00  0.00000000000E+00  0.46258997558E+03  0.46258997559E+03  0.25500000000E-02 0. -1.
          2   -1    0    0  501    0  0.00000000000E+00 -0.00000000000E+00 -0.92180802462E+03  0.92180802463E+03  0.25500000000E-02 0.  1.
     200001    2    1    2    0    0  0.19156288650E+03 -0.70362531292E+02 -0.32152270751E+03  0.72381020713E+03  0.61552996613E+03 0.  0.
    5000001    2    3    3    0    0  0.89211894055E+02 -0.34190920426E+02 -0.48647453118E+03  0.50201251729E+03  0.78938691089E+02 0.  0.
        -13    1    4    4    0    0  0.44560392279E+02 -0.38999896984E+02 -0.15060840607E+03  0.16183177583E+03  0.10566000000E+00 0. -1.
     200003    1    4    4    0    0  0.44651501776E+02  0.48089765585E+01 -0.33586612511E+03  0.34018074146E+03  0.30000000000E+02 0. -1.
     200000    1    3    3    0    0  0.10235099244E+03 -0.36171610866E+02  0.16495182367E+03  0.22179768984E+03  0.10100000000E+03 0. -1.
    -200001    1    1    2    0    0 -0.19156288650E+03  0.70362531292E+02 -0.13769534153E+03  0.66058779308E+03  0.61300000000E+03 0. -1.
<mgrwt>
<rscale>  0 0.13060155E+04</rscale>
<asrwt>0</asrwt>
<pdfrwt beam="1">  1        2 0.13168686E+00 0.13060155E+04</pdfrwt>
<pdfrwt beam="2">  1       -2 0.66084282E-01 0.13060155E+04</pdfrwt>
<totfact> 0.65039982E+01</totfact>
</mgrwt>
</event>
<event>
 8    1  0.7685004E-052  0.1782600E+04  0.7818608E-02  0.8715608E-01
         -2   -1    0    0    0  501 -0.00000000000E+00  0.00000000000E+00  0.61853793316E+03  0.61853793317E+03  0.25500000000E-02 0. -1.
          2   -1    0    0  501    0  0.00000000000E+00 -0.00000000000E+00 -0.12843447442E+04  0.12843447442E+04  0.25500000000E-02 0.  1.
     200001    2    1    2    0    0  0.32138113677E+03  0.56062156319E+03 -0.29405539145E+03  0.93771404437E+03  0.61258198111E+03 0.  0.
    5000001    2    3    3    0    0  0.13267585235E+03  0.18500240464E+03  0.16802842229E+03  0.30492506884E+03  0.11365287234E+03 0.  0.
        -13    1    4    4    0    0  0.34279200873E+02  0.21820083461E+02 -0.10628396976E+02  0.42001829020E+02  0.10566000000E+00 0. -1.
     200003    1    4    4    0    0  0.98396651479E+02  0.16318232118E+03  0.17865681926E+03  0.26292323982E+03  0.30000000000E+02 0. -1.
     200000    1    3    3    0    0  0.18870528442E+03  0.37561915855E+03 -0.46208381374E+03  0.63278897553E+03  0.10100000000E+03 0.  1.
    -200001    1    1    2    0    0 -0.32138113677E+03 -0.56062156319E+03 -0.37175141962E+03  0.96516863302E+03  0.61300000000E+03 0.  1.
<mgrwt>
<rscale>  0 0.17826003E+04</rscale>
<asrwt>0</asrwt>
<pdfrwt beam="1">  1        2 0.18347782E+00 0.17826003E+04</pdfrwt>
<pdfrwt beam="2">  1       -2 0.88362562E-01 0.17826003E+04</pdfrwt>
<totfact> 0.20026649E+01</totfact>
</mgrwt>
</event>
<event>
 8    1  0.7685004E-052  0.1745853E+04  0.7818608E-02  0.8735636E-01
          2   -1    0    0  501    0  0.00000000000E+00  0.00000000000E+00  0.48936356085E+03  0.48936356086E+03  0.25500000000E-02 0.  1.
         -2   -1    0    0    0  501 -0.00000000000E+00 -0.00000000000E+00 -0.15571254960E+04  0.15571254960E+04  0.25500000000E-02 0. -1.
     200001    2    1    2    0    0  0.53425797201E+03  0.86890891100E+02 -0.89129226428E+03  0.12098934841E+04  0.61356233170E+03 0.  0.
    5000001    2    3    3    0    0 -0.15778503097E+02  0.21778714462E+02 -0.23527264372E+03  0.34540377215E+03  0.25145034375E+03 0.  0.
        -13    1    4    4    0    0  0.43842972489E+02  0.64927993049E+02 -0.25224793586E+03  0.26413421366E+03  0.10566000000E+00 0. -1.
     200003    1    4    4    0    0 -0.59621475586E+02 -0.43149278587E+02  0.16975292141E+02  0.81269558489E+02  0.30000000000E+02 0. -1.
     200000    1    3    3    0    0  0.55003647511E+03  0.65112176638E+02 -0.65601962056E+03  0.86448971194E+03  0.10100000000E+03 0. -1.
    -200001    1    1    2    0    0 -0.53425797201E+03 -0.86890891100E+02 -0.17646967085E+03  0.83659557275E+03  0.61300000000E+03 0.  1.
<mgrwt>
<rscale>  0 0.17458528E+04</rscale>
<asrwt>0</asrwt>
<pdfrwt beam="1">  1        2 0.69909081E-01 0.17458528E+04</pdfrwt>
<pdfrwt beam="2">  1       -2 0.22244650E+00 0.17458528E+04</pdfrwt>
<totfact> 0.62360149E+00</totfact>
</mgrwt>
</event>
<event>
 8    1  0.7685004E-052  0.2136500E+04  0.7818608E-02  0.8545333E-01
          2   -1    0    0  501    0  0.00000000000E+00  0.00000000000E+00  0.27795330204E+04  0.27795330204E+04  0.25500000000E-02 0.  1.
         -2   -1    0    0    0  501 -0.00000000000E+00 -0.00000000000E+00 -0.41055764856E+03  0.41055764856E+03  0.25500000000E-02 0. -1.
     200001    2    1    2    0    0  0.13278714349E+03  0.49879485118E+03  0.22392804845E+04  0.23782911291E+04  0.61275025733E+03 0.  0.
    5000001    2    3    3    0    0  0.20618953550E+03 -0.48332069409E+02  0.47187051317E+03  0.52392471848E+03  0.83577604394E+02 0.  0.
        -13    1    4    4    0    0  0.12375743279E+03 -0.42518892974E+01  0.31958631995E+03  0.34273810380E+03  0.10566000000E+00 0. -1.
     200003    1    4    4    0    0  0.82432102710E+02 -0.44080180112E+02  0.15228419322E+03  0.18118661468E+03  0.30000000000E+02 0. -1.
     200000    1    3    3    0    0 -0.73402392011E+02  0.54712692059E+03  0.17674099713E+04  0.18543664107E+04  0.10100000000E+03 0.  1.
    -200001    1    1    2    0    0 -0.13278714349E+03 -0.49879485118E+03  0.12969488739E+03  0.81179953982E+03  0.61300000000E+03 0. -1.
<mgrwt>
<rscale>  0 0.21365004E+04</rscale>
<asrwt>0</asrwt>
<pdfrwt beam="1">  1        2 0.39707613E+00 0.21365004E+04</pdfrwt>
<pdfrwt beam="2">  1       -2 0.58651095E-01 0.21365004E+04</pdfrwt>
<totfact> 0.78287214E+00</totfact>
</mgrwt>
</event>
<event>
 8    1  0.7685004E-052  0.1484583E+04  0.7818608E-02  0.8894770E-01
         -2   -1    0    0    0  501 -0.00000000000E+00  0.00000000000E+00  0.41159623292E+03  0.41159623292E+03  0.25500000000E-02 0. -1.
          2   -1    0    0  501    0  0.00000000000E+00 -0.00000000000E+00 -0.13386819576E+04  0.13386819576E+04  0.25500000000E-02 0.  1.
     200001    2    1    2    0    0 -0.17017850554E+03 -0.55143112619E+02 -0.16859970581E+02  0.63839626782E+03  0.61258799330E+03 0.  0.
    5000001    2    3    3    0    0 -0.98722811063E+02 -0.16238290388E+03 -0.13005407634E+03  0.43934804582E+03  0.37416338903E+03 0.  0.
        -13    1    4    4    0    0  0.53855196276E+02  0.98488292931E+02 -0.97005029741E+01  0.11266959187E+03  0.10566000000E+00 0. -1.
     200003    1    4    4    0    0 -0.15257800734E+03 -0.26087119682E+03 -0.12035357336E+03  0.32667845395E+03  0.30000000000E+02 0. -1.
     200000    1    3    3    0    0 -0.71455694475E+02  0.10723979127E+03  0.11319410576E+03  0.19904822200E+03  0.10100000000E+03 0. -1.
    -200001    1    1    2    0    0  0.17017850554E+03  0.55143112619E+02 -0.91022575412E+03  0.11118819227E+04  0.61300000000E+03 0.  1.
<mgrwt>
<rscale>  0 0.14845827E+04</rscale>
<asrwt>0</asrwt>
<pdfrwt beam="1">  1        2 0.19124028E+00 0.14845827E+04</pdfrwt>
<pdfrwt beam="2">  1       -2 0.58799462E-01 0.14845827E+04</pdfrwt>
<totfact> 0.46795098E+01</totfact>
</mgrwt>
</event>
<event>
 8    1  0.7685004E-052  0.1476822E+04  0.7818608E-02  0.8900014E-01
         -2   -1    0    0    0  501 -0.00000000000E+00  0.00000000000E+00  0.25460142023E+03  0.25460142025E+03  0.25500000000E-02 0. -1.
          2   -1    0    0  501    0  0.00000000000E+00 -0.00000000000E+00 -0.21415861329E+04  0.21415861329E+04  0.25500000000E-02 0.  1.
     200001    2    1    2    0    0  0.20254697408E+02  0.93305523315E+02 -0.29246491843E+03  0.68522918204E+03  0.61228027076E+03 0.  0.
    5000001    2    3    3    0    0 -0.65895040614E+01 -0.18277210694E+03  0.82506282149E+02  0.20800400423E+03  0.54857219606E+02 0.  0.
        -13    1    4    4    0    0  0.15637338955E+02 -0.32947121194E+02  0.17895251623E+02  0.40623765941E+02  0.10566000000E+00 0. -1.
     200003    1    4    4    0    0 -0.22226843016E+02 -0.14982498574E+03  0.64611030526E+02  0.16738023829E+03  0.30000000000E+02 0. -1.
     200000    1    3    3    0    0  0.26844201469E+02  0.27607763025E+03 -0.37497120057E+03  0.47722517781E+03  0.10100000000E+03 0.  1.
    -200001    1    1    2    0    0 -0.20254697408E+02 -0.93305523315E+02 -0.15945197943E+04  0.17109583711E+04  0.61300000000E+03 0.  1.
<mgrwt>
<rscale>  0 0.14768221E+04</rscale>
<asrwt>0</asrwt>
<pdfrwt beam="1">  1        2 0.30594087E+00 0.14768221E+04</pdfrwt>
<pdfrwt beam="2">  1       -2 0.36371633E-01 0.14768221E+04</pdfrwt>
<totfact> 0.46769046E+01</totfact>
</mgrwt>
</event>
<event>
 8    1  0.7685004E-052  0.1630522E+04  0.7818608E-02  0.8802013E-01
         -2   -1    0    0    0  501 -0.00000000000E+00  0.00000000000E+00  0.17522449722E+03  0.17522449724E+03  0.25500000000E-02 0. -1.
          2   -1    0    0  501    0  0.00000000000E+00 -0.00000000000E+00 -0.37931378477E+04  0.37931378477E+04  0.25500000000E-02 0.  1.
     200001    2    1    2    0    0 -0.59955554961E+02 -0.46108906244E+03 -0.24655542251E+04  0.25827583807E+04  0.61276865433E+03 0.  0.
    5000001    2    3    3    0    0 -0.14102916709E+03 -0.10656241488E+03 -0.55620671306E+03  0.63646164165E+03  0.25391482708E+03 0.  0.
        -13    1    4    4    0    0 -0.19912387245E+03 -0.19515812610E+02 -0.34381760662E+03  0.39779610520E+03  0.10566000000E+00 0. -1.
     200003    1    4    4    0    0  0.58094705368E+02 -0.87046602265E+02 -0.21238910644E+03  0.23866553646E+03  0.30000000000E+02 0. -1.
     200000    1    3    3    0    0  0.81073612125E+02 -0.35452664756E+03 -0.19093475121E+04  0.19462967390E+04  0.10100000000E+03 0.  1.
    -200001    1    1    2    0    0  0.59955554961E+02  0.46108906244E+03 -0.11523591253E+04  0.13856039643E+04  0.61300000000E+03 0. -1.
<mgrwt>
<rscale>  0 0.16305222E+04</rscale>
<asrwt>0</asrwt>
<pdfrwt beam="1">  1        2 0.54187678E+00 0.16305222E+04</pdfrwt>
<pdfrwt beam="2">  1       -2 0.25032073E-01 0.16305222E+04</pdfrwt>
<totfact> 0.10880888E+01</totfact>
</mgrwt>
</event>
<event>
 8    1  0.7685004E-052  0.1448627E+04  0.7818608E-02  0.8919353E-01
         -2   -1    0    0    0  501 -0.00000000000E+00  0.00000000000E+00  0.26809368009E+03  0.26809368010E+03  0.25500000000E-02 0. -1.
          2   -1    0    0  501    0  0.00000000000E+00 -0.00000000000E+00 -0.19568894574E+04  0.19568894574E+04  0.25500000000E-02 0.  1.
     200001    2    1    2    0    0  0.11377321601E+03  0.78654028534E+02 -0.29099666799E+03  0.69242248587E+03  0.61289398534E+03 0.  0.
    5000001    2    3    3    0    0 -0.22617266454E+03  0.11966433150E+03 -0.83007602412E+02  0.27925726703E+03  0.74971546020E+02 0.  0.
        -13    1    4    4    0    0 -0.13049739955E+03  0.78590238927E+02 -0.77115766146E+02  0.17074205544E+03  0.10566000000E+00 0. -1.
     200003    1    4    4    0    0 -0.95675264996E+02  0.41074092570E+02 -0.58918362665E+01  0.10851521159E+03  0.30000000000E+02 0. -1.
     200000    1    3    3    0    0  0.33994588056E+03 -0.41010302963E+02 -0.20798906558E+03  0.41316521884E+03  0.10100000000E+03 0. -1.
    -200001    1    1    2    0    0 -0.11377321601E+03 -0.78654028534E+02 -0.13977991093E+04  0.15325606516E+04  0.61300000000E+03 0.  1.
<mgrwt>
<rscale>  0 0.14486265E+04</rscale>
<asrwt>0</asrwt>
<pdfrwt beam="1">  1        2 0.27955563E+00 0.14486265E+04</pdfrwt>
<pdfrwt beam="2">  1       -2 0.38299098E-01 0.14486265E+04</pdfrwt>
<totfact> 0.52787374E+01</totfact>
</mgrwt>
</event>
<event>
 8    1  0.7685004E-052  0.1295616E+04  0.7818608E-02  0.9033049E-01
         -2   -1    0    0    0  501 -0.00000000000E+00  0.00000000000E+00  0.48933443304E+03  0.48933443305E+03  0.25500000000E-02 0. -1.
          2   -1    0    0  501    0  0.00000000000E+00 -0.00000000000E+00 -0.85760433250E+03  0.85760433251E+03  0.25500000000E-02 0.  1.
     200001    2    1    2    0    0  0.49769651484E+02 -0.21455137221E+02 -0.39300368420E+03  0.73105070655E+03  0.61404063272E+03 0.  0.
    5000001    2    3    3    0    0 -0.13360292051E+03 -0.22078042406E+03 -0.33699604395E+03  0.43661238380E+03  0.10232450357E+03 0.  0.
        -13    1    4    4    0    0 -0.96151183897E+02 -0.69143225859E+02 -0.15032712025E+03  0.19137421481E+03  0.10566000000E+00 0. -1.
     200003    1    4    4    0    0 -0.37451736616E+02 -0.15163719820E+03 -0.18666892371E+03  0.24523816900E+03  0.30000000000E+02 0. -1.
     200000    1    3    3    0    0  0.18337257200E+03  0.19932528684E+03 -0.56007640241E+02  0.29443832274E+03  0.10100000000E+03 0.  1.
    -200001    1    1    2    0    0 -0.49769651484E+02  0.21455137221E+02  0.24733784734E+02  0.61588805901E+03  0.61300000000E+03 0. -1.
<mgrwt>
<rscale>  0 0.12956162E+04</rscale>
<asrwt>0</asrwt>
<pdfrwt beam="1">  1        2 0.12251490E+00 0.12956162E+04</pdfrwt>
<pdfrwt beam="2">  1       -2 0.69904920E-01 0.12956162E+04</pdfrwt>
<totfact> 0.63511815E+01</totfact>
</mgrwt>
</event>
<event>
 8    1  0.7685004E-052  0.1343829E+04  0.7818608E-02  0.8995512E-01
         -2   -1    0    0    0  501 -0.00000000000E+00  0.00000000000E+00  0.75495769147E+03  0.75495769147E+03  0.25500000000E-02 0. -1.
          2   -1    0    0  501    0  0.00000000000E+00 -0.00000000000E+00 -0.59800603141E+03  0.59800603142E+03  0.25500000000E-02 0.  1.
     200001    2    1    2    0    0  0.19078117047E+02  0.26909958975E+03  0.38667363674E+01  0.66595385570E+03  0.60885221731E+03 0.  0.
    5000001    2    3    3    0    0  0.87429651839E+02  0.66459539052E+02  0.27499924986E+03  0.30616396935E+03  0.77788009054E+02 0.  0.
        -13    1    4    4    0    0  0.77270238079E+01  0.91914212708E+01 -0.65434849333E+00  0.12026157237E+02  0.10566000000E+00 0. -1.
     200003    1    4    4    0    0  0.79702628031E+02  0.57268117781E+02  0.27565359835E+03  0.29413781211E+03  0.30000000000E+02 0. -1.
     200000    1    3    3    0    0 -0.68351534792E+02  0.20264005069E+03 -0.27113251349E+03  0.35978988636E+03  0.10100000000E+03 0.  1.
    -200001    1    1    2    0    0 -0.19078117047E+02 -0.26909958975E+03  0.15308492369E+03  0.68700986719E+03  0.61300000000E+03 0.  1.
<mgrwt>
<rscale>  0 0.13438292E+04</rscale>
<asrwt>0</asrwt>
<pdfrwt beam="1">  1        2 0.85429433E-01 0.13438292E+04</pdfrwt>
<pdfrwt beam="2">  1       -2 0.10785110E+00 0.13438292E+04</pdfrwt>
<totfact> 0.36743781E+01</totfact>
</mgrwt>
</event>
<event>
 8    1  0.7685004E-052  0.1704830E+04  0.7818608E-02  0.8758614E-01
          2   -1    0    0  501    0  0.00000000000E+00  0.00000000000E+00  0.21861045494E+04  0.21861045494E+04  0.25500000000E-02 0.  1.
         -2   -1    0    0    0  501 -0.00000000000E+00 -0.00000000000E+00 -0.33237739904E+03  0.33237739905E+03  0.25500000000E-02 0. -1.
     200001    2    1    2    0    0  0.10828631670E+03  0.57767448121E+03  0.10345461887E+04  0.13385411955E+04  0.61316635819E+03 0.  0.
    5000001    2    3    3    0    0  0.44568562837E+02  0.16410392186E+03  0.85210619641E+03  0.87100947410E+03  0.60465527710E+02 0.  0.
        -13    1    4    4    0    0 -0.74715134662E+01  0.46177364710E+02  0.27251072312E+03  0.27649643380E+03  0.10566000000E+00 0. -1.
     200003    1    4    4    0    0  0.52040076303E+02  0.11792655715E+03  0.57959547329E+03  0.59451304030E+03  0.30000000000E+02 0. -1.
     200000    1    3    3    0    0  0.63717753864E+02  0.41357055935E+03  0.18243999231E+03  0.46753172140E+03  0.10100000000E+03 0. -1.
    -200001    1    1    2    0    0 -0.10828631670E+03 -0.57767448121E+03  0.81918096168E+03  0.11799407530E+04  0.61300000000E+03 0.  1.
<mgrwt>
<rscale>  0 0.17048305E+04</rscale>
<asrwt>0</asrwt>
<pdfrwt beam="1">  1        2 0.31230065E+00 0.17048305E+04</pdfrwt>
<pdfrwt beam="2">  1       -2 0.47482486E-01 0.17048305E+04</pdfrwt>
<totfact> 0.25772608E+01</totfact>
</mgrwt>
</event>
<event>
 8    1  0.7685004E-052  0.1476072E+04  0.7818608E-02  0.8900523E-01
         -2   -1    0    0    0  501 -0.00000000000E+00  0.00000000000E+00  0.84192949808E+03  0.84192949809E+03  0.25500000000E-02 0. -1.
          2   -1    0    0  501    0  0.00000000000E+00 -0.00000000000E+00 -0.64696259787E+03  0.64696259787E+03  0.25500000000E-02 0.  1.
     200001    2    1    2    0    0  0.13941657278E+03 -0.37935747742E+03  0.16963158818E+03  0.75420852157E+03  0.61376423964E+03 0.  0.
    5000001    2    3    3    0    0  0.10450585364E+03  0.78321183548E+02  0.21732874167E+03  0.28180558607E+03  0.12299156535E+03 0.  0.
        -13    1    4    4    0    0 -0.19065814697E+02 -0.55158242215E+01  0.49488777889E+01  0.20455614445E+02  0.10566000000E+00 0. -1.
     200003    1    4    4    0    0  0.12357166834E+03  0.83837007769E+02  0.21237986388E+03  0.26134997162E+03  0.30000000000E+02 0. -1.
     200000    1    3    3    0    0  0.34910719137E+02 -0.45767866097E+03 -0.47697153483E+02  0.47240293550E+03  0.10100000000E+03 0.  1.
    -200001    1    1    2    0    0 -0.13941657278E+03  0.37935747742E+03  0.25335312028E+02  0.73468357439E+03  0.61300000000E+03 0. -1.
<mgrwt>
<rscale>  0 0.14760717E+04</rscale>
<asrwt>0</asrwt>
<pdfrwt beam="1">  1        2 0.92423228E-01 0.14760717E+04</pdfrwt>
<pdfrwt beam="2">  1       -2 0.12027564E+00 0.14760717E+04</pdfrwt>
<totfact> 0.25377116E+01</totfact>
</mgrwt>
</event>
<event>
 8    1  0.7685004E-052  0.1235834E+04  0.7818608E-02  0.9082057E-01
          2   -1    0    0  501    0  0.00000000000E+00  0.00000000000E+00  0.23779808228E+04  0.23779808228E+04  0.25500000000E-02 0.  1.
         -2   -1    0    0    0  501 -0.00000000000E+00 -0.00000000000E+00 -0.16056538474E+03  0.16056538477E+03  0.25500000000E-02 0. -1.
     200001    2    1    2    0    0  0.53772635237E+02 -0.70061190478E+02  0.11005189713E+04  0.12614296177E+04  0.61013327025E+03 0.  0.
    5000001    2    3    3    0    0  0.12181060792E+03  0.18594636912E+02  0.26285131259E+02  0.17668616205E+03  0.12386891059E+03 0.  0.
        -13    1    4    4    0    0 -0.56208239342E+01  0.25389193036E+02  0.36926152209E+02  0.45163665327E+02  0.10566000000E+00 0. -1.
     200003    1    4    4    0    0  0.12743143185E+03 -0.67945561244E+01 -0.10641020951E+02  0.13152249672E+03  0.30000000000E+02 0. -1.
     200000    1    3    3    0    0 -0.68037972684E+02 -0.88655827389E+02  0.10742338400E+04  0.10847434556E+04  0.10100000000E+03 0.  1.
    -200001    1    1    2    0    0 -0.53772635237E+02  0.70061190478E+02  0.11168964668E+04  0.12771165899E+04  0.61300000000E+03 0.  1.
<mgrwt>
<rscale>  0 0.12358340E+04</rscale>
<asrwt>0</asrwt>
<pdfrwt beam="1">  1        2 0.33971153E+00 0.12358340E+04</pdfrwt>
<pdfrwt beam="2">  1       -2 0.22937913E-01 0.12358340E+04</pdfrwt>
<totfact> 0.84555671E+01</totfact>
</mgrwt>
</event>
<event>
 8    1  0.7685004E-052  0.1655547E+04  0.7818608E-02  0.8787131E-01
         -2   -1    0    0    0  501 -0.00000000000E+00  0.00000000000E+00  0.79654893189E+03  0.79654893190E+03  0.25500000000E-02 0. -1.
          2   -1    0    0  501    0  0.00000000000E+00 -0.00000000000E+00 -0.86022255027E+03  0.86022255028E+03  0.25500000000E-02 0.  1.
     200001    2    1    2    0    0  0.16811113605E+03 -0.48810588114E+02  0.49660935225E+03  0.80804901002E+03  0.61292619970E+03 0.  0.
    5000001    2    3    3    0    0  0.89645909160E+02  0.14595940971E+03  0.53955613659E+03  0.57111532696E+03  0.75573499605E+02 0.  0.
        -13    1    4    4    0    0  0.45058293092E+02  0.68523353465E+02  0.15712662534E+03  0.17724132504E+03  0.10566000000E+00 0. -1.
     200003    1    4    4    0    0  0.44587616068E+02  0.77436056241E+02  0.38242951125E+03  0.39387400192E+03  0.30000000000E+02 0. -1.
     200000    1    3    3    0    0  0.78465226892E+02 -0.19476999782E+03 -0.42946784345E+02  0.23693368306E+03  0.10100000000E+03 0. -1.
    -200001    1    1    2    0    0 -0.16811113605E+03  0.48810588114E+02 -0.56028297063E+03  0.84872247216E+03  0.61300000000E+03 0.  1.
<mgrwt>
<rscale>  0 0.16555475E+04</rscale>
<asrwt>0</asrwt>
<pdfrwt beam="1">  1        2 0.12288894E+00 0.16555475E+04</pdfrwt>
<pdfrwt beam="2">  1       -2 0.11379271E+00 0.16555475E+04</pdfrwt>
<totfact> 0.20016155E+01</totfact>
</mgrwt>
</event>
<event>
 8    1  0.7685004E-052  0.1834583E+04  0.7818608E-02  0.8688122E-01
         -2   -1    0    0    0  501 -0.00000000000E+00  0.00000000000E+00  0.40860316749E+03  0.40860316750E+03  0.25500000000E-02 0. -1.
          2   -1    0    0  501    0  0.00000000000E+00 -0.00000000000E+00 -0.20592692857E+04  0.20592692857E+04  0.25500000000E-02 0.  1.
     200001    2    1    2    0    0  0.23946036598E+03 -0.63515749807E+03 -0.72063329939E+03  0.11634582712E+04  0.61119267200E+03 0.  0.
    5000001    2    3    3    0    0  0.38724280740E+03 -0.38192854798E+03 -0.29867699386E+03  0.63980507015E+03  0.15593644051E+03 0.  0.
        -13    1    4    4    0    0  0.12039872683E+03 -0.19788732783E+03 -0.70030197461E+02  0.24199067680E+03  0.10566000000E+00 0. -1.
     200003    1    4    4    0    0  0.26684408057E+03 -0.18404122015E+03 -0.22864679640E+03  0.39781439335E+03  0.30000000000E+02 0. -1.
     200000    1    3    3    0    0 -0.14778244141E+03 -0.25322895008E+03 -0.42195630553E+03  0.52365320101E+03  0.10100000000E+03 0. -1.
    -200001    1    1    2    0    0 -0.23946036598E+03  0.63515749807E+03 -0.93003281882E+03  0.13044141820E+04  0.61300000000E+03 0. -1.
<mgrwt>
<rscale>  0 0.18345833E+04</rscale>
<asrwt>0</asrwt>
<pdfrwt beam="1">  1        2 0.29418132E+00 0.18345833E+04</pdfrwt>
<pdfrwt beam="2">  1       -2 0.58371882E-01 0.18345833E+04</pdfrwt>
<totfact> 0.19379622E+01</totfact>
</mgrwt>
</event>
<event>
 8    1  0.7685004E-052  0.1716708E+04  0.7818608E-02  0.8751892E-01
         -2   -1    0    0    0  501 -0.00000000000E+00  0.00000000000E+00  0.33528633997E+03  0.33528633998E+03  0.25500000000E-02 0. -1.
          2   -1    0    0  501    0  0.00000000000E+00 -0.00000000000E+00 -0.21974389544E+04  0.21974389544E+04  0.25500000000E-02 0.  1.
     200001    2    1    2    0    0 -0.10665937084E+03 -0.54941821895E+03 -0.60958226264E+03  0.10300815951E+04  0.61338483597E+03 0.  0.
    5000001    2    3    3    0    0  0.24363737459E+03 -0.24359284269E+03 -0.29554971122E+03  0.45994616036E+03  0.74190264389E+02 0.  0.
        -13    1    4    4    0    0  0.38195544043E+02 -0.59255321031E+02 -0.90870156153E+02  0.11501082166E+03  0.10566000000E+00 0. -1.
     200003    1    4    4    0    0  0.20544183054E+03 -0.18433752166E+03 -0.20467955506E+03  0.34493533870E+03  0.30000000000E+02 0. -1.
     200000    1    3    3    0    0 -0.35029674542E+03 -0.30582537627E+03 -0.31403255142E+03  0.57013543477E+03  0.10100000000E+03 0. -1.
    -200001    1    1    2    0    0  0.10665937084E+03  0.54941821895E+03 -0.12525703517E+04  0.15026436992E+04  0.61300000000E+03 0. -1.
<mgrwt>
<rscale>  0 0.17167076E+04</rscale>
<asrwt>0</asrwt>
<pdfrwt beam="1">  1        2 0.31391984E+00 0.17167076E+04</pdfrwt>
<pdfrwt beam="2">  1       -2 0.47898050E-01 0.17167076E+04</pdfrwt>
<totfact> 0.24960069E+01</totfact>
</mgrwt>
</event>
<event>
 8    1  0.7685004E-052  0.1549512E+04  0.7818608E-02  0.8852179E-01
          2   -1    0    0  501    0  0.00000000000E+00  0.00000000000E+00  0.91241870786E+03  0.91241870786E+03  0.25500000000E-02 0.  1.
         -2   -1    0    0    0  501 -0.00000000000E+00 -0.00000000000E+00 -0.65786380191E+03  0.65786380191E+03  0.25500000000E-02 0. -1.
     200001    2    1    2    0    0 -0.24159254683E+03  0.12797963908E+01 -0.28543202493E+03  0.71838845411E+03  0.61338563203E+03 0.  0.
    5000001    2    3    3    0    0 -0.11307122501E+03 -0.41066128247E+02 -0.45309841918E+03  0.48043062747E+03  0.10508987363E+03 0.  0.
        -13    1    4    4    0    0 -0.13641992148E+02 -0.29012791116E+02 -0.27690779064E+02  0.42363149166E+02  0.10566000000E+00 0. -1.
     200003    1    4    4    0    0 -0.99429232859E+02 -0.12053337131E+02 -0.42540764011E+03  0.43806747831E+03  0.30000000000E+02 0. -1.
     200000    1    3    3    0    0 -0.12852132182E+03  0.42345924637E+02  0.16766639425E+03  0.23795782664E+03  0.10100000000E+03 0.  1.
    -200001    1    1    2    0    0  0.24159254683E+03 -0.12797963908E+01  0.53998693088E+03  0.85189405567E+03  0.61300000000E+03 0.  1.
<mgrwt>
<rscale>  0 0.15495125E+04</rscale>
<asrwt>0</asrwt>
<pdfrwt beam="1">  1        2 0.13034553E+00 0.15495125E+04</pdfrwt>
<pdfrwt beam="2">  1       -2 0.93980543E-01 0.15495125E+04</pdfrwt>
<totfact> 0.29434564E+01</totfact>
</mgrwt>
</event>
<event>
 8    1  0.7685004E-052  0.1391835E+04  0.7818608E-02  0.8959750E-01
         -2   -1    0    0    0  501 -0.00000000000E+00  0.00000000000E+00  0.27197869416E+03  0.27197869417E+03  0.25500000000E-02 0. -1.
          2   -1    0    0  501    0  0.00000000000E+00 -0.00000000000E+00 -0.17806581296E+04  0.17806581296E+04  0.25500000000E-02 0.  1.
     200001    2    1    2    0    0  0.13658111690E+03 -0.29974852012E+03 -0.73511130618E+03  0.10121176133E+04  0.61277226916E+03 0.  0.
    5000001    2    3    3    0    0  0.30102078421E+03 -0.37081928217E+03 -0.57651345593E+03  0.75241444522E+03  0.75095139342E+02 0.  0.
        -13    1    4    4    0    0  0.14028506008E+02 -0.26933880456E+01 -0.85815354726E+01  0.16664550252E+02  0.10566000000E+00 0. -1.
     200003    1    4    4    0    0  0.28699227820E+03 -0.36812589412E+03 -0.56793192046E+03  0.73574989497E+03  0.30000000000E+02 0. -1.
     200000    1    3    3    0    0 -0.16443966731E+03  0.71070762047E+02 -0.15859785025E+03  0.25970316807E+03  0.10100000000E+03 0. -1.
    -200001    1    1    2    0    0 -0.13658111690E+03  0.29974852012E+03 -0.77356812929E+03  0.10405192105E+04  0.61300000000E+03 0. -1.
<mgrwt>
<rscale>  0 0.13918349E+04</rscale>
<asrwt>0</asrwt>
<pdfrwt beam="1">  1        2 0.25437973E+00 0.13918349E+04</pdfrwt>
<pdfrwt beam="2">  1       -2 0.38854100E-01 0.13918349E+04</pdfrwt>
<totfact> 0.63534154E+01</totfact>
</mgrwt>
</event>
<event>
 8    1  0.7685004E-052  0.1330302E+04  0.7818608E-02  0.9005875E-01
         -2   -1    0    0    0  501 -0.00000000000E+00  0.00000000000E+00  0.57315689232E+03  0.57315689233E+03  0.25500000000E-02 0. -1.
          2   -1    0    0  501    0  0.00000000000E+00 -0.00000000000E+00 -0.77191002744E+03  0.77191002744E+03  0.25500000000E-02 0.  1.
     200001    2    1    2    0    0  0.61870559426E+02  0.24865882908E+03 -0.55664032655E+02  0.66543270150E+03  0.61159056263E+03 0.  0.
    5000001    2    3    3    0    0 -0.25315817972E+03  0.48988253086E+02 -0.76388445790E+02  0.27846765566E+03  0.72250451216E+02 0.  0.
        -13    1    4    4    0    0 -0.57940130406E+02  0.36507588542E+02 -0.73873130890E+01  0.68879941139E+02  0.10566000000E+00 0. -1.
     200003    1    4    4    0    0 -0.19521804931E+03  0.12480664544E+02 -0.69001132701E+02  0.20958771452E+03  0.30000000000E+02 0. -1.
     200000    1    3    3    0    0  0.31502873914E+03  0.19967057599E+03  0.20724413136E+02  0.38696504584E+03  0.10100000000E+03 0. -1.
    -200001    1    1    2    0    0 -0.61870559426E+02 -0.24865882908E+03 -0.14308910246E+03  0.67963421827E+03  0.61300000000E+03 0. -1.
<mgrwt>
<rscale>  0 0.13303015E+04</rscale>
<asrwt>0</asrwt>
<pdfrwt beam="1">  1        2 0.11027286E+00 0.13303015E+04</pdfrwt>
<pdfrwt beam="2">  1       -2 0.81879556E-01 0.13303015E+04</pdfrwt>
<totfact> 0.51148294E+01</totfact>
</mgrwt>
</event>
<event>
 8    1  0.7685004E-052  0.1312696E+04  0.7818608E-02  0.9019557E-01
         -2   -1    0    0    0  501 -0.00000000000E+00  0.00000000000E+00  0.81181133615E+03  0.81181133616E+03  0.25500000000E-02 0. -1.
          2   -1    0    0  501    0  0.00000000000E+00 -0.00000000000E+00 -0.53065636909E+03  0.53065636910E+03  0.25500000000E-02 0.  1.
     200001    2    1    2    0    0 -0.18773152539E+03 -0.10577341292E+03  0.23442177257E+03  0.69101998520E+03  0.61328941943E+03 0.  0.
    5000001    2    3    3    0    0 -0.30645213534E+03 -0.23779379225E+03  0.17460855781E+02  0.39303172502E+03  0.60911874877E+02 0.  0.
        -13    1    4    4    0    0 -0.22922672949E+03 -0.16814070321E+03  0.17065914564E+02  0.28479369058E+03  0.10566000000E+00 0. -1.
     200003    1    4    4    0    0 -0.77225405848E+02 -0.69653089045E+02  0.39494121678E+00  0.10823803444E+03  0.30000000000E+02 0. -1.
     200000    1    3    3    0    0  0.11872060996E+03  0.13202037934E+03  0.21696091679E+03  0.29798826017E+03  0.10100000000E+03 0.  1.
    -200001    1    1    2    0    0  0.18773152539E+03  0.10577341292E+03  0.46733194495E+02  0.65144772006E+03  0.61300000000E+03 0.  1.
<mgrwt>
<rscale>  0 0.13126962E+04</rscale>
<asrwt>0</asrwt>
<pdfrwt beam="1">  1        2 0.75808053E-01 0.13126962E+04</pdfrwt>
<pdfrwt beam="2">  1       -2 0.11597305E+00 0.13126962E+04</pdfrwt>
<totfact> 0.35502922E+01</totfact>
</mgrwt>
</event>
<event>
 8    1  0.7685004E-052  0.1379181E+04  0.7818608E-02  0.8969028E-01
         -2   -1    0    0    0  501 -0.00000000000E+00  0.00000000000E+00  0.52863099742E+03  0.52863099742E+03  0.25500000000E-02 0. -1.
          2   -1    0    0  501    0  0.00000000000E+00 -0.00000000000E+00 -0.89955968079E+03  0.89955968079E+03  0.25500000000E-02 0.  1.
     200001    2    1    2    0    0  0.18283872536E+03  0.98214317403E+02 -0.43562741017E+03  0.77778236271E+03  0.60999845214E+03 0.  0.
    5000001    2    3    3    0    0  0.21747047306E+03  0.28153803821E+03 -0.42907447338E+03  0.56553042387E+03  0.95721904485E+02 0.  0.
        -13    1    4    4    0    0  0.88775800232E+02  0.13502512076E+03 -0.13076631765E+03  0.20787680712E+03  0.10566000000E+00 0. -1.
     200003    1    4    4    0    0  0.12869467282E+03  0.14651291745E+03 -0.29830815573E+03  0.35765361674E+03  0.30000000000E+02 0. -1.
     200000    1    3    3    0    0 -0.34631747701E+02 -0.18332372081E+03 -0.65529367914E+01  0.21225193884E+03  0.10100000000E+03 0.  1.
    -200001    1    1    2    0    0 -0.18283872536E+03 -0.98214317403E+02  0.64698726797E+02  0.65040831551E+03  0.61300000000E+03 0. -1.
<mgrwt>
<rscale>  0 0.13791811E+04</rscale>
<asrwt>0</asrwt>
<pdfrwt beam="1">  1        2 0.12850853E+00 0.13791811E+04</pdfrwt>
<pdfrwt beam="2">  1       -2 0.75518714E-01 0.13791811E+04</pdfrwt>
<totfact> 0.49961788E+01</totfact>
</mgrwt>
</event>
<event>
 8    1  0.7685004E-052  0.2410845E+04  0.7818608E-02  0.8435454E-01
         -2   -1    0    0    0  501 -0.00000000000E+00  0.00000000000E+00  0.22264222414E+04  0.22264222414E+04  0.25500000000E-02 0. -1.
          2   -1    0    0  501    0  0.00000000000E+00 -0.00000000000E+00 -0.65263620725E+03  0.65263620725E+03  0.25500000000E-02 0.  1.
     200001    2    1    2    0    0  0.84179692640E+03 -0.22248750159E+03  0.11228503653E+03  0.10707783487E+04  0.61305431167E+03 0.  0.
    5000001    2    3    3    0    0  0.25579445962E+03 -0.36260043870E+03 -0.10936459763E+02  0.44754880567E+03  0.57187792295E+02 0.  0.
        -13    1    4    4    0    0  0.11271543520E+03 -0.13880468533E+03 -0.21076567696E+02  0.18004372489E+03  0.10566000000E+00 0. -1.
     200003    1    4    4    0    0  0.14307902442E+03 -0.22379575337E+03  0.10140107933E+02  0.26750508078E+03  0.30000000000E+02 0. -1.
     200000    1    3    3    0    0  0.58600246678E+03  0.14011293710E+03  0.12322149629E+03  0.62322954308E+03  0.10100000000E+03 0.  1.
    -200001    1    1    2    0    0 -0.84179692640E+03  0.22248750159E+03  0.14615009976E+04  0.18082800999E+04  0.61300000000E+03 0. -1.
<mgrwt>
<rscale>  0 0.24108453E+04</rscale>
<asrwt>0</asrwt>
<pdfrwt beam="1">  1        2 0.93233744E-01 0.24108453E+04</pdfrwt>
<pdfrwt beam="2">  1       -2 0.31806032E+00 0.24108453E+04</pdfrwt>
<totfact> 0.10899318E+00</totfact>
</mgrwt>
</event>
<event>
 8    1  0.7685004E-052  0.1690390E+04  0.7818608E-02  0.8766864E-01
         -2   -1    0    0    0  501 -0.00000000000E+00  0.00000000000E+00  0.39371713700E+03  0.39371713701E+03  0.25500000000E-02 0. -1.
          2   -1    0    0  501    0  0.00000000000E+00 -0.00000000000E+00 -0.18143847984E+04  0.18143847984E+04  0.25500000000E-02 0.  1.
     200001    2    1    2    0    0  0.76267666670E+02  0.57214504118E+03 -0.78100430343E+03  0.11506971328E+04  0.61722723874E+03 0.  0.
    5000001    2    3    3    0    0 -0.24439767472E+03  0.21432866642E+03 -0.32901091399E+03  0.48334576855E+03  0.14038500558E+03 0.  0.
        -13    1    4    4    0    0 -0.50121002632E+02  0.45015079122E+01 -0.56464150484E+01  0.50638637870E+02  0.10566000000E+00 0. -1.
     200003    1    4    4    0    0 -0.19427667209E+03  0.20982715851E+03 -0.32336449894E+03  0.43270713068E+03  0.30000000000E+02 0. -1.
     200000    1    3    3    0    0  0.32066534139E+03  0.35781637476E+03 -0.45199338944E+03  0.66735136421E+03  0.10100000000E+03 0.  1.
    -200001    1    1    2    0    0 -0.76267666670E+02 -0.57214504118E+03 -0.63966335794E+03  0.10574048026E+04  0.61300000000E+03 0. -1.
<mgrwt>
<rscale>  0 0.16903898E+04</rscale>
<asrwt>0</asrwt>
<pdfrwt beam="1">  1        2 0.25919782E+00 0.16903898E+04</pdfrwt>
<pdfrwt beam="2">  1       -2 0.56245306E-01 0.16903898E+04</pdfrwt>
<totfact> 0.28330153E+01</totfact>
</mgrwt>
</event>
<event>
 8    1  0.7685004E-052  0.1755092E+04  0.7818608E-02  0.8730552E-01
          2   -1    0    0  501    0  0.00000000000E+00  0.00000000000E+00  0.32287558270E+04  0.32287558270E+04  0.25500000000E-02 0.  1.
         -2   -1    0    0    0  501 -0.00000000000E+00 -0.00000000000E+00 -0.23850891891E+03  0.23850891892E+03  0.25500000000E-02 0. -1.
     200001    2    1    2    0    0  0.48182486826E+03 -0.38918857486E+03  0.12899274103E+04  0.15566422440E+04  0.61286164942E+03 0.  0.
    5000001    2    3    3    0    0  0.60009876869E+03 -0.26683234651E+03  0.10754010159E+04  0.12647821130E+04  0.10894225566E+03 0.  0.
        -13    1    4    4    0    0  0.93231328609E+02 -0.58058663521E+01  0.12435847046E+03  0.15553401254E+03  0.10566000000E+00 0. -1.
     200003    1    4    4    0    0  0.50686744008E+03 -0.26102648016E+03  0.95104254543E+03  0.11092481005E+04  0.30000000000E+02 0. -1.
     200000    1    3    3    0    0 -0.11827390043E+03 -0.12235622835E+03  0.21452639442E+03  0.29186013096E+03  0.10100000000E+03 0.  1.
    -200001    1    1    2    0    0 -0.48182486826E+03  0.38918857486E+03  0.17003194978E+04  0.19106225020E+04  0.61300000000E+03 0.  1.
<mgrwt>
<rscale>  0 0.17550921E+04</rscale>
<asrwt>0</asrwt>
<pdfrwt beam="1">  1        2 0.46125082E+00 0.17550921E+04</pdfrwt>
<pdfrwt beam="2">  1       -2 0.34072703E-01 0.17550921E+04</pdfrwt>
<totfact> 0.13422803E+01</totfact>
</mgrwt>
</event>
<event>
 8    1  0.7685004E-052  0.1336063E+04  0.7818608E-02  0.9001445E-01
         -2   -1    0    0    0  501 -0.00000000000E+00  0.00000000000E+00  0.26973270801E+03  0.26973270803E+03  0.25500000000E-02 0.  1.
          2   -1    0    0  501    0  0.00000000000E+00 -0.00000000000E+00 -0.16544763894E+04  0.16544763894E+04  0.25500000000E-02 0. -1.
     200001    2    1    2    0    0  0.20168373356E+03  0.16359846604E+03 -0.77316242931E+03  0.10201950409E+04  0.61284336738E+03 0.  0.
    5000001    2    3    3    0    0  0.17441119539E+03  0.35366805970E+03 -0.66448358542E+03  0.77753821970E+03  0.86757629447E+02 0.  0.
        -13    1    4    4    0    0  0.43299407822E+02  0.12257848859E+03 -0.28573570356E+03  0.31391914252E+03  0.10566000000E+00 0. -1.
     200003    1    4    4    0    0  0.13111178757E+03  0.23108957111E+03 -0.37874788186E+03  0.46361907718E+03  0.30000000000E+02 0. -1.
     200000    1    3    3    0    0  0.27272538167E+02 -0.19006959366E+03 -0.10867884389E+03  0.24265682122E+03  0.10100000000E+03 0.  1.
    -200001    1    1    2    0    0 -0.20168373356E+03 -0.16359846604E+03 -0.61158125206E+03  0.90401405650E+03  0.61300000000E+03 0. -1.
<mgrwt>
<rscale>  0 0.13360635E+04</rscale>
<asrwt>0</asrwt>
<pdfrwt beam="1">  1        2 0.23635376E+00 0.13360635E+04</pdfrwt>
<pdfrwt beam="2">  1       -2 0.38533245E-01 0.13360635E+04</pdfrwt>
<totfact> 0.75379812E+01</totfact>
</mgrwt>
</event>
<event>
 8    1  0.7685004E-052  0.1427520E+04  0.7818608E-02  0.8934136E-01
          2   -1    0    0  501    0  0.00000000000E+00  0.00000000000E+00  0.34269034348E+04  0.34269034348E+04  0.25500000000E-02 0.  1.
         -2   -1    0    0    0  501 -0.00000000000E+00 -0.00000000000E+00 -0.14866279412E+03  0.14866279414E+03  0.25500000000E-02 0. -1.
     200001    2    1    2    0    0 -0.10151827488E+03  0.10692213845E+03  0.24775495655E+04  0.25564423396E+04  0.61270489035E+03 0.  0.
    5000001    2    3    3    0    0  0.56349966729E+02  0.11595499513E+02  0.32461725018E+02  0.10233046416E+03  0.78153604806E+02 0.  0.
        -13    1    4    4    0    0 -0.13348658266E+02  0.13519037348E+02  0.15580854612E+02  0.24570820963E+02  0.10566000000E+00 0. -1.
     200003    1    4    4    0    0  0.69698624995E+02 -0.19235378358E+01  0.16880870406E+02  0.77759643194E+02  0.30000000000E+02 0. -1.
     200000    1    3    3    0    0 -0.15786824161E+03  0.95326638941E+02  0.24450878404E+04  0.24541118755E+04  0.10100000000E+03 0.  1.
    -200001    1    1    2    0    0  0.10151827488E+03 -0.10692213845E+03  0.80069107519E+03  0.10191238893E+04  0.61300000000E+03 0. -1.
<mgrwt>
<rscale>  0 0.14275196E+04</rscale>
<asrwt>0</asrwt>
<pdfrwt beam="1">  1        2 0.48955762E+00 0.14275196E+04</pdfrwt>
<pdfrwt beam="2">  1       -2 0.21237543E-01 0.14275196E+04</pdfrwt>
<totfact> 0.25181594E+01</totfact>
</mgrwt>
</event>
<event>
 8    1  0.7685004E-052  0.1671189E+04  0.7818608E-02  0.8777969E-01
         -2   -1    0    0    0  501 -0.00000000000E+00  0.00000000000E+00  0.14588173662E+03  0.14588173665E+03  0.25500000000E-02 0. -1.
          2   -1    0    0  501    0  0.00000000000E+00 -0.00000000000E+00 -0.47861935329E+04  0.47861935329E+04  0.25500000000E-02 0.  1.
     200001    2    1    2    0    0 -0.48299428507E+03 -0.24134650320E+03 -0.18017261766E+04  0.19782863580E+04  0.61308081409E+03 0.  0.
    5000001    2    3    3    0    0 -0.55620530291E+03 -0.99438788051E+02 -0.10228027469E+04  0.11767750591E+04  0.13936164911E+03 0.  0.
        -13    1    4    4    0    0 -0.28531798823E+03 -0.11330622515E+03 -0.59073343306E+03  0.66574068162E+03  0.10566000000E+00 0. -1.
     200003    1    4    4    0    0 -0.27088731468E+03  0.13867437099E+02 -0.43206931382E+03  0.51103437752E+03  0.30000000000E+02 0. -1.
     200000    1    3    3    0    0  0.73211017838E+02 -0.14190771515E+03 -0.77892342975E+03  0.80151129884E+03  0.10100000000E+03 0. -1.
    -200001    1    1    2    0    0  0.48299428507E+03  0.24134650320E+03 -0.28385856197E+04  0.29537889116E+04  0.61300000000E+03 0.  1.
<mgrwt>
<rscale>  0 0.16711891E+04</rscale>
<asrwt>0</asrwt>
<pdfrwt beam="1">  1        2 0.68374184E+00 0.16711891E+04</pdfrwt>
<pdfrwt beam="2">  1       -2 0.20840251E-01 0.16711891E+04</pdfrwt>
<totfact> 0.27170616E+00</totfact>
</mgrwt>
</event>
<event>
 8    1  0.7685004E-052  0.1569270E+04  0.7818608E-02  0.8839652E-01
         -2   -1    0    0    0  501 -0.00000000000E+00  0.00000000000E+00  0.18116413127E+03  0.18116413129E+03  0.25500000000E-02 0. -1.
          2   -1    0    0  501    0  0.00000000000E+00 -0.00000000000E+00 -0.33983112727E+04  0.33983112727E+04  0.25500000000E-02 0.  1.
     200001    2    1    2    0    0 -0.12390442161E+03 -0.32667669570E+03 -0.23846662471E+04  0.24882085216E+04  0.61844851652E+03 0.  0.
    5000001    2    3    3    0    0 -0.10877376510E+03 -0.27616989347E+03 -0.23491327344E+04  0.23688623680E+04  0.70588757803E+02 0.  0.
        -13    1    4    4    0    0 -0.47570291299E+02 -0.18452228839E+03 -0.15211702404E+04  0.15330591375E+04  0.10566000000E+00 0. -1.
     200003    1    4    4    0    0 -0.61203473801E+02 -0.91647605084E+02 -0.82796249398E+03  0.83580323053E+03  0.30000000000E+02 0. -1.
     200000    1    3    3    0    0 -0.15130656506E+02 -0.50506802225E+02 -0.35533512649E+02  0.11934615351E+03  0.10100000000E+03 0. -1.
    -200001    1    1    2    0    0  0.12390442161E+03  0.32667669570E+03 -0.83248089432E+03  0.10912668824E+04  0.61300000000E+03 0. -1.
<mgrwt>
<rscale>  0 0.15692700E+04</rscale>
<asrwt>0</asrwt>
<pdfrwt beam="1">  1        2 0.48547300E+00 0.15692700E+04</pdfrwt>
<pdfrwt beam="2">  1       -2 0.25880592E-01 0.15692700E+04</pdfrwt>
<totfact> 0.18112988E+01</totfact>
</mgrwt>
</event>
<event>
 8    1  0.7685004E-052  0.1674645E+04  0.7818608E-02  0.8775959E-01
          2   -1    0    0  501    0  0.00000000000E+00  0.00000000000E+00  0.12154679973E+04  0.12154679973E+04  0.25500000000E-02 0.  1.
         -2   -1    0    0    0  501 -0.00000000000E+00 -0.00000000000E+00 -0.57682246578E+03  0.57682246578E+03  0.25500000000E-02 0. -1.
     200001    2    1    2    0    0  0.36476931036E+03  0.86684567203E+02 -0.13995796558E+03  0.73277959968E+03  0.61384594615E+03 0.  0.
    5000001    2    3    3    0    0  0.66298619239E+02  0.11072262468E+03 -0.28480288616E+03  0.38515389194E+03  0.22489070675E+03 0.  0.
        -13    1    4    4    0    0 -0.71384049239E+02  0.88642704701E+02 -0.98477095667E+02  0.15050236250E+03  0.10566000000E+00 0. -1.
     200003    1    4    4    0    0  0.13768266848E+03  0.22079919981E+02 -0.18632579049E+03  0.23465152944E+03  0.30000000000E+02 0. -1.
     200000    1    3    3    0    0  0.29847069112E+03 -0.24038057478E+02  0.14484492058E+03  0.34762570774E+03  0.10100000000E+03 0.  1.
    -200001    1    1    2    0    0 -0.36476931036E+03 -0.86684567203E+02  0.77860349711E+03  0.10595108634E+04  0.61300000000E+03 0.  1.
<mgrwt>
<rscale>  0 0.16746453E+04</rscale>
<asrwt>0</asrwt>
<pdfrwt beam="1">  1        2 0.17363828E+00 0.16746453E+04</pdfrwt>
<pdfrwt beam="2">  1       -2 0.82403210E-01 0.16746453E+04</pdfrwt>
<totfact> 0.25884446E+01</totfact>
</mgrwt>
</event>
<event>
 8    1  0.7685004E-052  0.1433470E+04  0.7818608E-02  0.8929941E-01
          2   -1    0    0  501    0  0.00000000000E+00  0.00000000000E+00  0.15930342497E+04  0.15930342497E+04  0.25500000000E-02 0.  1.
         -2   -1    0    0    0  501 -0.00000000000E+00 -0.00000000000E+00 -0.32247207705E+03  0.32247207706E+03  0.25500000000E-02 0. -1.
     200001    2    1    2    0    0 -0.19144749455E+02 -0.20279517791E+03  0.22000444161E+03  0.68224522227E+03  0.61283291635E+03 0.  0.
    5000001    2    3    3    0    0 -0.20880597007E+03 -0.32550124880E+03  0.10608886120E+03  0.40983759040E+03  0.84622738871E+02 0.  0.
        -13    1    4    4    0    0  0.29238879083E+01 -0.13289239480E+02 -0.64134583799E+01  0.15043158541E+02  0.10566000000E+00 0. -1.
     200003    1    4    4    0    0 -0.21172985798E+03 -0.31221200932E+03  0.11250231958E+03  0.39479443186E+03  0.30000000000E+02 0. -1.
     200000    1    3    3    0    0  0.18966122061E+03  0.12270607089E+03  0.11391558041E+03  0.27240763186E+03  0.10100000000E+03 0. -1.
    -200001    1    1    2    0    0  0.19144749455E+02  0.20279517791E+03  0.10505577311E+04  0.12332611045E+04  0.61300000000E+03 0.  1.
<mgrwt>
<rscale>  0 0.14334700E+04</rscale>
<asrwt>0</asrwt>
<pdfrwt beam="1">  1        2 0.22757633E+00 0.14334700E+04</pdfrwt>
<pdfrwt beam="2">  1       -2 0.46067438E-01 0.14334700E+04</pdfrwt>
<totfact> 0.56660139E+01</totfact>
</mgrwt>
</event>
<event>
 8    1  0.7685004E-052  0.2875840E+04  0.7818608E-02  0.8280102E-01
         -2   -1    0    0    0  501 -0.00000000000E+00  0.00000000000E+00  0.15619065477E+04  0.15619065477E+04  0.25500000000E-02 0. -1.
          2   -1    0    0  501    0  0.00000000000E+00 -0.00000000000E+00 -0.13237757383E+04  0.13237757383E+04  0.25500000000E-02 0.  1.
     200001    2    1    2    0    0 -0.22758986200E+03  0.10078983090E+03 -0.11620151324E+04  0.13370915093E+04  0.61284484265E+03 0.  0.
    5000001    2    3    3    0    0 -0.76746595783E+02 -0.13212151223E+03 -0.97030524585E+03  0.98501898085E+03  0.73647732856E+02 0.  0.
        -13    1    4    4    0    0 -0.25595659706E+02 -0.21326637478E+02 -0.38155122686E+03  0.38300301976E+03  0.10566000000E+00 0. -1.
     200003    1    4    4    0    0 -0.51150936077E+02 -0.11079487475E+03 -0.58875401898E+03  0.60201596108E+03  0.30000000000E+02 0. -1.
     200000    1    3    3    0    0 -0.15084326622E+03  0.23291134314E+03 -0.19170988655E+03  0.35207252850E+03  0.10100000000E+03 0. -1.
    -200001    1    1    2    0    0  0.22758986200E+03 -0.10078983090E+03  0.14001459418E+04  0.15485907767E+04  0.61300000000E+03 0. -1.
<mgrwt>
<rscale>  0 0.28758400E+04</rscale>
<asrwt>0</asrwt>
<pdfrwt beam="1">  1        2 0.18911082E+00 0.28758400E+04</pdfrwt>
<pdfrwt beam="2">  1       -2 0.22312951E+00 0.28758400E+04</pdfrwt>
<totfact> 0.14976594E+00</totfact>
</mgrwt>
</event>
<event>
 8    1  0.7685004E-052  0.1957934E+04  0.7818608E-02  0.8626544E-01
          2   -1    0    0  501    0  0.00000000000E+00  0.00000000000E+00  0.44150191167E+04  0.44150191167E+04  0.25500000000E-02 0.  1.
         -2   -1    0    0    0  501 -0.00000000000E+00 -0.00000000000E+00 -0.21707183789E+03  0.21707183791E+03  0.25500000000E-02 0. -1.
     200001    2    1    2    0    0  0.39762148129E+03  0.55632029250E+03  0.29013535906E+04  0.30432173591E+04  0.61296339758E+03 0.  0.
    5000001    2    3    3    0    0  0.23693139274E+03  0.55471667604E+03  0.26970979543E+04  0.27643890228E+04  0.60516269763E+02 0.  0.
        -13    1    4    4    0    0  0.98311910454E+02  0.21349022913E+03  0.11498248371E+04  0.11736014983E+04  0.10566000000E+00 0. -1.
     200003    1    4    4    0    0  0.13861948228E+03  0.34122644692E+03  0.15472731172E+04  0.15907875245E+04  0.30000000000E+02 0.  1.
     200000    1    3    3    0    0  0.16069008855E+03  0.16036164553E+01  0.20425563630E+03  0.27882833626E+03  0.10100000000E+03 0. -1.
    -200001    1    1    2    0    0 -0.39762148129E+03 -0.55632029250E+03  0.12965936882E+04  0.15888735955E+04  0.61300000000E+03 0. -1.
<mgrwt>
<rscale>  0 0.19579339E+04</rscale>
<asrwt>0</asrwt>
<pdfrwt beam="1">  1        2 0.63071698E+00 0.19579339E+04</pdfrwt>
<pdfrwt beam="2">  1       -2 0.31010264E-01 0.19579339E+04</pdfrwt>
<totfact> 0.25822884E+00</totfact>
</mgrwt>
</event>
<event>
 8    1  0.7685004E-052  0.1984877E+04  0.7818608E-02  0.8613724E-01
         -2   -1    0    0    0  501 -0.00000000000E+00  0.00000000000E+00  0.65763030168E+03  0.65763030169E+03  0.25500000000E-02 0. -1.
          2   -1    0    0  501    0  0.00000000000E+00 -0.00000000000E+00 -0.14977026641E+04  0.14977026641E+04  0.25500000000E-02 0.  1.
     200001    2    1    2    0    0  0.13565599239E+03 -0.57017119517E+03 -0.97976540186E+03  0.12958093272E+04  0.61293052600E+03 0.  0.
    5000001    2    3    3    0    0  0.28369668466E+03 -0.59915929519E+03 -0.78421303544E+03  0.10289796352E+04  0.65828070338E+02 0.  0.
        -13    1    4    4    0    0  0.43804872145E+02 -0.93309127754E+02 -0.91699139503E+02  0.13796450085E+03  0.10566000000E+00 0. -1.
     200003    1    4    4    0    0  0.23989181251E+03 -0.50585016743E+03 -0.69251389593E+03  0.89101513436E+03  0.30000000000E+02 0. -1.
     200000    1    3    3    0    0 -0.14804069227E+03  0.28988100021E+02 -0.19555236643E+03  0.26682969198E+03  0.10100000000E+03 0. -1.
    -200001    1    1    2    0    0 -0.13565599239E+03  0.57017119517E+03  0.13969303942E+03  0.85952363861E+03  0.61300000000E+03 0.  1.
<mgrwt>
<rscale>  0 0.19848775E+04</rscale>
<asrwt>0</asrwt>
<pdfrwt beam="1">  1        2 0.21395752E+00 0.19848775E+04</pdfrwt>
<pdfrwt beam="2">  1       -2 0.93947187E-01 0.19848775E+04</pdfrwt>
<totfact> 0.13097324E+01</totfact>
</mgrwt>
</event>
<event>
 8    1  0.7685004E-052  0.1255371E+04  0.7818608E-02  0.9065725E-01
          2   -1    0    0  501    0  0.00000000000E+00  0.00000000000E+00  0.22741404475E+04  0.22741404475E+04  0.25500000000E-02 0.  1.
         -2   -1    0    0    0  501 -0.00000000000E+00 -0.00000000000E+00 -0.17324743737E+03  0.17324743739E+03  0.25500000000E-02 0. -1.
     200001    2    1    2    0    0 -0.10221742510E+02  0.86727688854E+02  0.12229880852E+04  0.13730917278E+04  0.61810586491E+03 0.  0.
    5000001    2    3    3    0    0  0.74117296006E+02 -0.13544916730E+03  0.64687379545E+02  0.18635791027E+03  0.81883839406E+02 0.  0.
        -13    1    4    4    0    0  0.71467407867E+02 -0.71627342993E+02  0.20940420544E+02  0.10332753277E+03  0.10566000000E+00 0. -1.
     200003    1    4    4    0    0  0.26498881387E+01 -0.63821824310E+02  0.43746959001E+02  0.83030377497E+02  0.30000000000E+02 0. -1.
     200000    1    3    3    0    0 -0.84339038516E+02  0.22217685616E+03  0.11583007057E+04  0.11867338175E+04  0.10100000000E+03 0.  1.
    -200001    1    1    2    0    0  0.10221742510E+02 -0.86727688854E+02  0.87790492489E+03  0.10742961571E+04  0.61300000000E+03 0. -1.
<mgrwt>
<rscale>  0 0.12553709E+04</rscale>
<asrwt>0</asrwt>
<pdfrwt beam="1">  1        2 0.32487720E+00 0.12553709E+04</pdfrwt>
<pdfrwt beam="2">  1       -2 0.24749634E-01 0.12553709E+04</pdfrwt>
<totfact> 0.83326131E+01</totfact>
</mgrwt>
</event>
<event>
 8    1  0.7685004E-052  0.2208681E+04  0.7818608E-02  0.8514824E-01
          2   -1    0    0  501    0  0.00000000000E+00  0.00000000000E+00  0.38314745354E+04  0.38314745354E+04  0.25500000000E-02 0.  1.
         -2   -1    0    0    0  501 -0.00000000000E+00 -0.00000000000E+00 -0.31830236151E+03  0.31830236152E+03  0.25500000000E-02 0. -1.
     200001    2    1    2    0    0 -0.36104123510E+03  0.75570904067E+03  0.24648920136E+04  0.26746134408E+04  0.61352872133E+03 0.  0.
    5000001    2    3    3    0    0  0.31523117753E+02  0.75494152539E+02  0.31395442970E+02  0.11553047537E+03  0.75289726255E+02 0.  0.
        -13    1    4    4    0    0  0.25936468338E+02  0.75302299609E+02  0.15558148844E+02  0.81149269102E+02  0.10566000000E+00 0. -1.
     200003    1    4    4    0    0  0.55866494159E+01  0.19185292985E+00  0.15837294126E+02  0.34381206268E+02  0.30000000000E+02 0. -1.
     200000    1    3    3    0    0 -0.39256435285E+03  0.68021488813E+03  0.24334965706E+04  0.25590829655E+04  0.10100000000E+03 0. -1.
    -200001    1    1    2    0    0  0.36104123510E+03 -0.75570904067E+03  0.10482801604E+04  0.14751634561E+04  0.61300000000E+03 0.  1.
<mgrwt>
<rscale>  0 0.22086805E+04</rscale>
<asrwt>0</asrwt>
<pdfrwt beam="1">  1        2 0.54735348E+00 0.22086805E+04</pdfrwt>
<pdfrwt beam="2">  1       -2 0.45471768E-01 0.22086805E+04</pdfrwt>
<totfact> 0.31225720E+00</totfact>
</mgrwt>
</event>
<event>
 8    1  0.7685004E-052  0.1279780E+04  0.7818608E-02  0.9045755E-01
          2   -1    0    0  501    0  0.00000000000E+00  0.00000000000E+00  0.84298954269E+03  0.84298954269E+03  0.25500000000E-02 0.  1.
         -2   -1    0    0    0  501 -0.00000000000E+00 -0.00000000000E+00 -0.48572263363E+03  0.48572263363E+03  0.25500000000E-02 0. -1.
     200001    2    1    2    0    0 -0.12306387314E+03 -0.34406410960E+02  0.31661565990E+03  0.70121712292E+03  0.61247976244E+03 0.  0.
    5000001    2    3    3    0    0 -0.16581807730E+03 -0.18194546966E+03  0.12803416135E+03  0.43785486782E+03  0.33870983173E+03 0.  0.
        -13    1    4    4    0    0 -0.14260455395E+03  0.18082200457E+02  0.17743411257E+03  0.22835476839E+03  0.10566000000E+00 0. -1.
     200003    1    4    4    0    0 -0.23213523350E+02 -0.20002767012E+03 -0.49399951215E+02  0.20950009943E+03  0.30000000000E+02 0. -1.
     200000    1    3    3    0    0  0.42754204157E+02  0.14753905870E+03  0.18858149855E+03  0.26336225510E+03  0.10100000000E+03 0.  1.
    -200001    1    1    2    0    0  0.12306387314E+03  0.34406410960E+02  0.40651249163E+02  0.62749505340E+03  0.61300000000E+03 0. -1.
<mgrwt>
<rscale>  0 0.12797798E+04</rscale>
<asrwt>0</asrwt>
<pdfrwt beam="1">  1        2 0.12042708E+00 0.12797798E+04</pdfrwt>
<pdfrwt beam="2">  1       -2 0.69388947E-01 0.12797798E+04</pdfrwt>
<totfact> 0.66104037E+01</totfact>
</mgrwt>
</event>
<event>
 8    1  0.7685004E-052  0.1594580E+04  0.7818608E-02  0.8823884E-01
         -2   -1    0    0    0  501 -0.00000000000E+00  0.00000000000E+00  0.58732987827E+03  0.58732987828E+03  0.25500000000E-02 0. -1.
          2   -1    0    0  501    0  0.00000000000E+00 -0.00000000000E+00 -0.10823075952E+04  0.10823075952E+04  0.25500000000E-02 0.  1.
     200001    2    1    2    0    0 -0.44629100717E+03 -0.13059593640E+02  0.10358371436E+02  0.75833084109E+03  0.61287205241E+03 0.  0.
    5000001    2    3    3    0    0 -0.18039383680E+03  0.12365970946E+03  0.26386962710E+03  0.35353159480E+03  0.86739542962E+02 0.  0.
        -13    1    4    4    0    0 -0.92734998892E+02  0.97072449071E+02  0.18723289337E+03  0.23038881898E+03  0.10566000000E+00 0. -1.
     200003    1    4    4    0    0 -0.87658837907E+02  0.26587260389E+02  0.76636733734E+02  0.12314277582E+03  0.30000000000E+02 0. -1.
     200000    1    3    3    0    0 -0.26589717037E+03 -0.13671930310E+03 -0.25351125567E+03  0.40479924629E+03  0.10100000000E+03 0.  1.
    -200001    1    1    2    0    0  0.44629100717E+03  0.13059593640E+02 -0.50533608841E+03  0.91130663243E+03  0.61300000000E+03 0. -1.
<mgrwt>
<rscale>  0 0.15945803E+04</rscale>
<asrwt>0</asrwt>
<pdfrwt beam="1">  1        2 0.15461537E+00 0.15945803E+04</pdfrwt>
<pdfrwt beam="2">  1       -2 0.83904269E-01 0.15945803E+04</pdfrwt>
<totfact> 0.29872611E+01</totfact>
</mgrwt>
</event>
<event>
 8    1  0.7685004E-052  0.1339713E+04  0.7818608E-02  0.8998652E-01
          2   -1    0    0  501    0  0.00000000000E+00  0.00000000000E+00  0.12282014943E+04  0.12282014943E+04  0.25500000000E-02 0.  1.
         -2   -1    0    0    0  501 -0.00000000000E+00 -0.00000000000E+00 -0.36533731640E+03  0.36533731641E+03  0.25500000000E-02 0. -1.
     200001    2    1    2    0    0 -0.18596910800E+03  0.16261637563E+03  0.56126405409E+03  0.86706773113E+03  0.61299308088E+03 0.  0.
    5000001    2    3    3    0    0 -0.35811212761E+03 -0.11973940181E+02  0.42864302099E+03  0.57058107714E+03  0.11593211361E+03 0.  0.
        -13    1    4    4    0    0 -0.22579537124E+03  0.14056657987E+02  0.19274165783E+03  0.29720447024E+03  0.10566000000E+00 0. -1.
     200003    1    4    4    0    0 -0.13231675637E+03 -0.26030598168E+02  0.23590136316E+03  0.27337660689E+03  0.30000000000E+02 0.  1.
     200000    1    3    3    0    0  0.17214301961E+03  0.17459031581E+03  0.13262103310E+03  0.29648665399E+03  0.10100000000E+03 0.  1.
    -200001    1    1    2    0    0  0.18596910800E+03 -0.16261637563E+03  0.30160012378E+03  0.72647107955E+03  0.61300000000E+03 0.  1.
<mgrwt>
<rscale>  0 0.13397132E+04</rscale>
<asrwt>0</asrwt>
<pdfrwt beam="1">  1        2 0.17545736E+00 0.13397132E+04</pdfrwt>
<pdfrwt beam="2">  1       -2 0.52191045E-01 0.13397132E+04</pdfrwt>
<totfact> 0.69813609E+01</totfact>
</mgrwt>
</event>
<event>
 8    1  0.7685004E-052  0.1788824E+04  0.7818608E-02  0.8712265E-01
         -2   -1    0    0    0  501 -0.00000000000E+00  0.00000000000E+00  0.94641779311E+03  0.94641779311E+03  0.25500000000E-02 0. -1.
          2   -1    0    0  501    0  0.00000000000E+00 -0.00000000000E+00 -0.84526395905E+03  0.84526395905E+03  0.25500000000E-02 0.  1.
     200001    2    1    2    0    0 -0.59988308400E+03 -0.19300633882E+03  0.19449832352E+03  0.90760406609E+03  0.62354180425E+03 0.  0.
    5000001    2    3    3    0    0 -0.17449579493E+03 -0.29234923966E+03  0.28039052614E+03  0.45109357539E+03  0.94602887013E+02 0.  0.
        -13    1    4    4    0    0 -0.12711832224E+03 -0.24538425977E+03  0.19272708213E+03  0.33692171515E+03  0.10566000000E+00 0. -1.
     200003    1    4    4    0    0 -0.47377472690E+02 -0.46964979895E+02  0.87663444007E+02  0.11417186024E+03  0.30000000000E+02 0.  1.
     200000    1    3    3    0    0 -0.42538728907E+03  0.99342900844E+02 -0.85892202617E+02  0.45651049070E+03  0.10100000000E+03 0.  1.
    -200001    1    1    2    0    0  0.59988308400E+03  0.19300633882E+03 -0.93344489467E+02  0.88407768607E+03  0.61300000000E+03 0. -1.
<mgrwt>
<rscale>  0 0.17888240E+04</rscale>
<asrwt>0</asrwt>
<pdfrwt beam="1">  1        2 0.12075199E+00 0.17888240E+04</pdfrwt>
<pdfrwt beam="2">  1       -2 0.13520254E+00 0.17888240E+04</pdfrwt>
<totfact> 0.13172833E+01</totfact>
</mgrwt>
</event>
<event>
 8    1  0.7685004E-052  0.1337456E+04  0.7818608E-02  0.9000379E-01
          2   -1    0    0  501    0  0.00000000000E+00  0.00000000000E+00  0.17746515063E+04  0.17746515063E+04  0.25500000000E-02 0.  1.
         -2   -1    0    0    0  501 -0.00000000000E+00 -0.00000000000E+00 -0.25199137774E+03  0.25199137775E+03  0.25500000000E-02 0. -1.
     200001    2    1    2    0    0 -0.25446732566E+03 -0.81716758396E+02  0.73791520498E+03  0.99561192258E+03  0.61261162429E+03 0.  0.
    5000001    2    3    3    0    0 -0.12190542220E+03  0.46287329160E+02 -0.60602186814E+02  0.16990693309E+03  0.90511281401E+02 0.  0.
        -13    1    4    4    0    0 -0.82748111461E+02  0.84850498012E-01 -0.60182154020E+02  0.10231891309E+03  0.10566000000E+00 0. -1.
     200003    1    4    4    0    0 -0.39157310741E+02  0.46202478662E+02 -0.42003279385E+00  0.67588019993E+02  0.30000000000E+02 0.  1.
     200000    1    3    3    0    0 -0.13256190346E+03 -0.12800408756E+03  0.79851739180E+03  0.82570498950E+03  0.10100000000E+03 0.  1.
    -200001    1    1    2    0    0  0.25446732566E+03  0.81716758396E+02  0.78474492356E+03  0.10310309615E+04  0.61300000000E+03 0. -1.
<mgrwt>
<rscale>  0 0.13374556E+04</rscale>
<asrwt>0</asrwt>
<pdfrwt beam="1">  1        2 0.25352164E+00 0.13374556E+04</pdfrwt>
<pdfrwt beam="2">  1       -2 0.35998769E-01 0.13374556E+04</pdfrwt>
<totfact> 0.74452423E+01</totfact>
</mgrwt>
</event>
<event>
 8    1  0.7685004E-052  0.1966952E+04  0.7818608E-02  0.8622229E-01
         -2   -1    0    0    0  501 -0.00000000000E+00  0.00000000000E+00  0.59163817580E+03  0.59163817581E+03  0.25500000000E-02 0. -1.
          2   -1    0    0  501    0  0.00000000000E+00 -0.00000000000E+00 -0.16348252748E+04  0.16348252748E+04  0.25500000000E-02 0.  1.
     200001    2    1    2    0    0 -0.16964347835E+03  0.41713793416E+03  0.18420126398E+03  0.78249871440E+03  0.61285493106E+03 0.  0.
    5000001    2    3    3    0    0  0.75515688305E+02 -0.10621075537E+03 -0.39430174205E+02  0.15463815028E+03  0.73313540010E+02 0.  0.
        -13    1    4    4    0    0  0.38649373788E+01 -0.27522114162E+02 -0.34029122384E+02  0.43936281626E+02  0.10566000000E+00 0. -1.
     200003    1    4    4    0    0  0.71650750926E+02 -0.78688641208E+02 -0.54010518218E+01  0.11070186866E+03  0.30000000000E+02 0. -1.
     200000    1    3    3    0    0 -0.24515916665E+03  0.52334868953E+03  0.22363143818E+03  0.62786056411E+03  0.10100000000E+03 0. -1.
    -200001    1    1    2    0    0  0.16964347835E+03 -0.41713793416E+03 -0.12273883630E+04  0.14439647362E+04  0.61300000000E+03 0.  1.
<mgrwt>
<rscale>  0 0.19669520E+04</rscale>
<asrwt>0</asrwt>
<pdfrwt beam="1">  1        2 0.23354647E+00 0.19669520E+04</pdfrwt>
<pdfrwt beam="2">  1       -2 0.84519740E-01 0.19669520E+04</pdfrwt>
<totfact> 0.14160582E+01</totfact>
</mgrwt>
</event>
<event>
 8    1  0.7685004E-052  0.1784740E+04  0.7818608E-02  0.8714457E-01
          2   -1    0    0  501    0  0.00000000000E+00  0.00000000000E+00  0.13365840817E+04  0.13365840817E+04  0.25500000000E-02 0.  1.
         -2   -1    0    0    0  501 -0.00000000000E+00 -0.00000000000E+00 -0.59579030755E+03  0.59579030755E+03  0.25500000000E-02 0. -1.
     200001    2    1    2    0    0  0.62807156500E+03 -0.66351786657E+02  0.21092804911E+03  0.90504623481E+03  0.61297764631E+03 0.  0.
    5000001    2    3    3    0    0  0.60621824024E+03 -0.56133263490E+02  0.36879082056E+03  0.71609216465E+03  0.78293172646E+02 0.  0.
        -13    1    4    4    0    0  0.37546379853E+03 -0.53880728118E+02  0.20164217689E+03  0.42957627441E+03  0.10566000000E+00 0. -1.
     200003    1    4    4    0    0  0.23075444171E+03 -0.22525353718E+01  0.16714864366E+03  0.28651589025E+03  0.30000000000E+02 0.  1.
     200000    1    3    3    0    0  0.21853324759E+02 -0.10218523166E+02 -0.15786277144E+03  0.18895407015E+03  0.10100000000E+03 0. -1.
    -200001    1    1    2    0    0 -0.62807156500E+03  0.66351786657E+02  0.52986572504E+03  0.10273281545E+04  0.61300000000E+03 0. -1.
<mgrwt>
<rscale>  0 0.17847396E+04</rscale>
<asrwt>0</asrwt>
<pdfrwt beam="1">  1        2 0.19094059E+00 0.17847396E+04</pdfrwt>
<pdfrwt beam="2">  1       -2 0.85112900E-01 0.17847396E+04</pdfrwt>
<totfact> 0.20410818E+01</totfact>
</mgrwt>
</event>
<event>
 8    1  0.7685004E-052  0.1273289E+04  0.7818608E-02  0.9051020E-01
          2   -1    0    0  501    0  0.00000000000E+00  0.00000000000E+00  0.11322648363E+04  0.11322648363E+04  0.25500000000E-02 0.  1.
         -2   -1    0    0    0  501 -0.00000000000E+00 -0.00000000000E+00 -0.35796917094E+03  0.35796917095E+03  0.25500000000E-02 0. -1.
     200001    2    1    2    0    0 -0.46089746367E+01 -0.50922603200E+02  0.19526141786E+03  0.64544763549E+03  0.61307526021E+03 0.  0.
    5000001    2    3    3    0    0  0.28214133960E+03  0.17073825412E+02  0.38351467433E+02  0.29663394659E+03  0.81397863559E+02 0.  0.
        -13    1    4    4    0    0  0.10900807166E+03 -0.69774370706E+01 -0.17655949784E+02  0.11064894053E+03  0.10566000000E+00 0. -1.
     200003    1    4    4    0    0  0.17313326794E+03  0.24051262482E+02  0.56007417218E+02  0.18598500606E+03  0.30000000000E+02 0. -1.
     200000    1    3    3    0    0 -0.28675031423E+03 -0.67996428612E+02  0.15690995043E+03  0.34881368889E+03  0.10100000000E+03 0.  1.
    -200001    1    1    2    0    0  0.46089746367E+01  0.50922603200E+02  0.57903424754E+03  0.84478637181E+03  0.61300000000E+03 0.  1.
<mgrwt>
<rscale>  0 0.12732885E+04</rscale>
<asrwt>0</asrwt>
<pdfrwt beam="1">  1        2 0.16175212E+00 0.12732885E+04</pdfrwt>
<pdfrwt beam="2">  1       -2 0.51138454E-01 0.12732885E+04</pdfrwt>
<totfact> 0.83018626E+01</totfact>
</mgrwt>
</event>
<event>
 8    1  0.7685004E-052  0.1588556E+04  0.7818608E-02  0.8827610E-01
          2   -1    0    0  501    0  0.00000000000E+00  0.00000000000E+00  0.17989828192E+04  0.17989828192E+04  0.25500000000E-02 0.  1.
         -2   -1    0    0    0  501 -0.00000000000E+00 -0.00000000000E+00 -0.35068547645E+03  0.35068547646E+03  0.25500000000E-02 0. -1.
     200001    2    1    2    0    0  0.22049533771E+03  0.38655780242E+03  0.39635568810E+03  0.85336764637E+03  0.61081370303E+03 0.  0.
    5000001    2    3    3    0    0  0.20247777412E+02  0.26227538606E+03 -0.10059111055E+03  0.29416971619E+03  0.84964108765E+02 0.  0.
        -13    1    4    4    0    0 -0.15862133113E+02  0.97001619786E+01 -0.13234498970E+02  0.22822434934E+02  0.10566000000E+00 0. -1.
     200003    1    4    4    0    0  0.36109910525E+02  0.25257522408E+03 -0.87356611584E+02  0.27134728126E+03  0.30000000000E+02 0. -1.
     200000    1    3    3    0    0  0.20024756030E+03  0.12428241636E+03  0.49694679865E+03  0.55919793018E+03  0.10100000000E+03 0.  1.
    -200001    1    1    2    0    0 -0.22049533771E+03 -0.38655780242E+03  0.10519416546E+04  0.12963006493E+04  0.61300000000E+03 0.  1.
<mgrwt>
<rscale>  0 0.15885555E+04</rscale>
<asrwt>0</asrwt>
<pdfrwt beam="1">  1        2 0.25699755E+00 0.15885555E+04</pdfrwt>
<pdfrwt beam="2">  1       -2 0.50097924E-01 0.15885555E+04</pdfrwt>
<totfact> 0.36924310E+01</totfact>
</mgrwt>
</event>
<event>
 8    1  0.7685004E-052  0.1476589E+04  0.7818608E-02  0.8900172E-01
         -2   -1    0    0    0  501 -0.00000000000E+00  0.00000000000E+00  0.17862024643E+04  0.17862024643E+04  0.25500000000E-02 0. -1.
          2   -1    0    0  501    0  0.00000000000E+00 -0.00000000000E+00 -0.30516080181E+03  0.30516080182E+03  0.25500000000E-02 0.  1.
     200001    2    1    2    0    0  0.23995471530E+03  0.29122484565E+03  0.50018820325E+03  0.87471513103E+03  0.61036722197E+03 0.  0.
    5000001    2    3    3    0    0  0.31115244642E+03  0.43508539581E+02  0.50337577936E+03  0.59786924275E+03  0.73154755496E+02 0.  0.
        -13    1    4    4    0    0  0.19226789566E+03  0.42896251667E+02  0.26976610519E+03  0.33403711587E+03  0.10566000000E+00 0. -1.
     200003    1    4    4    0    0  0.11888455076E+03  0.61228791408E+00  0.23360967418E+03  0.26383212688E+03  0.30000000000E+02 0.  1.
     200000    1    3    3    0    0 -0.71197731120E+02  0.24771630607E+03 -0.31875761136E+01  0.27684588827E+03  0.10100000000E+03 0. -1.
    -200001    1    1    2    0    0 -0.23995471530E+03 -0.29122484565E+03  0.98085345922E+03  0.12166481351E+04  0.61300000000E+03 0. -1.
<mgrwt>
<rscale>  0 0.14765893E+04</rscale>
<asrwt>0</asrwt>
<pdfrwt beam="1">  1        2 0.43594399E-01 0.14765893E+04</pdfrwt>
<pdfrwt beam="2">  1       -2 0.25517179E+00 0.14765893E+04</pdfrwt>
<totfact> 0.67847189E+00</totfact>
</mgrwt>
</event>
<event>
 8    1  0.7685004E-052  0.1279505E+04  0.7818608E-02  0.9045977E-01
          2   -1    0    0  501    0  0.00000000000E+00  0.00000000000E+00  0.23785732137E+03  0.23785732138E+03  0.25500000000E-02 0.  1.
         -2   -1    0    0    0  501 -0.00000000000E+00 -0.00000000000E+00 -0.17207097489E+04  0.17207097489E+04  0.25500000000E-02 0. -1.
     200001    2    1    2    0    0  0.10241680544E+03  0.93234092474E+02 -0.92622438086E+03  0.11190519838E+04  0.61253893002E+03 0.  0.
    5000001    2    3    3    0    0  0.19020875017E+03 -0.73561435881E+02 -0.87163747198E+03  0.89835104487E+03  0.75445767116E+02 0.  0.
        -13    1    4    4    0    0  0.11773805713E+03 -0.19875554223E+02 -0.55777211824E+03  0.57040953253E+03  0.10566000000E+00 0. -1.
     200003    1    4    4    0    0  0.72470693039E+02 -0.53685881658E+02 -0.31386535374E+03  0.32794151234E+03  0.30000000000E+02 0.  1.
     200000    1    3    3    0    0 -0.87791944724E+02  0.16679552835E+03 -0.54586908878E+02  0.22070093896E+03  0.10100000000E+03 0.  1.
    -200001    1    1    2    0    0 -0.10241680544E+03 -0.93234092474E+02 -0.55662804669E+03  0.83951508647E+03  0.61300000000E+03 0.  1.
<mgrwt>
<rscale>  0 0.12795052E+04</rscale>
<asrwt>0</asrwt>
<pdfrwt beam="1">  1        2 0.33979618E-01 0.12795052E+04</pdfrwt>
<pdfrwt beam="2">  1       -2 0.24581567E+00 0.12795052E+04</pdfrwt>
<totfact> 0.10385523E+01</totfact>
</mgrwt>
</event>
<event>
 8    1  0.7685004E-052  0.1626313E+04  0.7818608E-02  0.8804544E-01
         -2   -1    0    0    0  501 -0.00000000000E+00  0.00000000000E+00  0.68718097739E+03  0.68718097739E+03  0.25500000000E-02 0. -1.
          2   -1    0    0  501    0  0.00000000000E+00 -0.00000000000E+00 -0.96222568022E+03  0.96222568022E+03  0.25500000000E-02 0.  1.
     200001    2    1    2    0    0  0.22998504956E+03  0.45532659681E+03 -0.29979964737E+03  0.85153621697E+03  0.61238767742E+03 0.  0.
    5000001    2    3    3    0    0  0.15389931788E+03  0.62593791406E+02  0.15046930007E+03  0.24082251969E+03  0.88042563341E+02 0.  0.
        -13    1    4    4    0    0  0.93305709630E+02  0.59905670463E+02  0.12839407132E+03  0.16964578838E+03  0.10566000000E+00 0. -1.
     200003    1    4    4    0    0  0.60593608250E+02  0.26881209425E+01  0.22075228755E+02  0.71176731307E+02  0.30000000000E+02 0. -1.
     200000    1    3    3    0    0  0.76085731683E+02  0.39273280541E+03 -0.45026894744E+03  0.61071369728E+03  0.10100000000E+03 0.  1.
    -200001    1    1    2    0    0 -0.22998504956E+03 -0.45532659681E+03  0.24754944543E+02  0.79787044065E+03  0.61300000000E+03 0. -1.
<mgrwt>
<rscale>  0 0.16263126E+04</rscale>
<asrwt>0</asrwt>
<pdfrwt beam="1">  1        2 0.13746081E+00 0.16263126E+04</pdfrwt>
<pdfrwt beam="2">  1       -2 0.98168711E-01 0.16263126E+04</pdfrwt>
<totfact> 0.24553466E+01</totfact>
</mgrwt>
</event>
<event>
 8    1  0.7685004E-052  0.1309735E+04  0.7818608E-02  0.9021881E-01
         -2   -1    0    0    0  501 -0.00000000000E+00  0.00000000000E+00  0.60897680477E+03  0.60897680477E+03  0.25500000000E-02 0. -1.
          2   -1    0    0  501    0  0.00000000000E+00 -0.00000000000E+00 -0.70421601771E+03  0.70421601772E+03  0.25500000000E-02 0.  1.
     200001    2    1    2    0    0  0.24681105423E+02 -0.10299131540E+03  0.15327093887E+03  0.64331024803E+03  0.61574323098E+03 0.  0.
    5000001    2    3    3    0    0 -0.54254625278E+02 -0.27386067094E+03  0.27509655153E+03  0.39740444057E+03  0.65642556824E+02 0.  0.
        -13    1    4    4    0    0 -0.52830341695E+02 -0.19888210862E+03  0.19003237410E+03  0.28010257497E+03  0.10566000000E+00 0. -1.
     200003    1    4    4    0    0 -0.14242835836E+01 -0.74978562314E+02  0.85064177430E+02  0.11730186560E+03  0.30000000000E+02 0.  1.
     200000    1    3    3    0    0  0.78935730702E+02  0.17086935553E+03 -0.12182561266E+03  0.24590580746E+03  0.10100000000E+03 0.  1.
    -200001    1    1    2    0    0 -0.24681105423E+02  0.10299131540E+03 -0.24851015181E+03  0.66988257446E+03  0.61300000000E+03 0.  1.
<mgrwt>
<rscale>  0 0.13097347E+04</rscale>
<asrwt>0</asrwt>
<pdfrwt beam="1">  1        2 0.10060229E+00 0.13097347E+04</pdfrwt>
<pdfrwt beam="2">  1       -2 0.86996687E-01 0.13097347E+04</pdfrwt>
<totfact> 0.50084195E+01</totfact>
</mgrwt>
</event>
<event>
 8    1  0.7685004E-052  0.1956830E+04  0.7818608E-02  0.8627074E-01
         -2   -1    0    0    0  501 -0.00000000000E+00  0.00000000000E+00  0.30737729473E+03  0.30737729474E+03  0.25500000000E-02 0. -1.
          2   -1    0    0  501    0  0.00000000000E+00 -0.00000000000E+00 -0.31144014269E+04  0.31144014269E+04  0.25500000000E-02 0.  1.
     200001    2    1    2    0    0 -0.32939140839E+03 -0.36803428796E+03 -0.38228107913E+03  0.87244629721E+03  0.60915989774E+03 0.  0.
    5000001    2    3    3    0    0 -0.99708536205E+02 -0.37388374659E+03 -0.46061935107E+03  0.60952744510E+03  0.98095216981E+02 0.  0.
        -13    1    4    4    0    0 -0.24739511364E+02 -0.16171782415E+03 -0.25655645196E+03  0.30427934908E+03  0.10566000000E+00 0. -1.
     200003    1    4    4    0    0 -0.74969024842E+02 -0.21216592244E+03 -0.20406289911E+03  0.30524809602E+03  0.30000000000E+02 0. -1.
     200000    1    3    3    0    0 -0.22968287218E+03  0.58494586369E+01  0.78338271941E+02  0.26291885210E+03  0.10100000000E+03 0. -1.
    -200001    1    1    2    0    0  0.32939140839E+03  0.36803428796E+03 -0.24247430530E+04  0.25493324244E+04  0.61300000000E+03 0.  1.
<mgrwt>
<rscale>  0 0.19568304E+04</rscale>
<asrwt>0</asrwt>
<pdfrwt beam="1">  1        2 0.44491447E+00 0.19568304E+04</pdfrwt>
<pdfrwt beam="2">  1       -2 0.43911044E-01 0.19568304E+04</pdfrwt>
<totfact> 0.93641364E+00</totfact>
</mgrwt>
</event>
<event>
 8    1  0.7685004E-052  0.1710763E+04  0.7818608E-02  0.8755250E-01
          2   -1    0    0  501    0  0.00000000000E+00  0.00000000000E+00  0.93647945084E+03  0.93647945085E+03  0.25500000000E-02 0.  1.
         -2   -1    0    0    0  501 -0.00000000000E+00 -0.00000000000E+00 -0.78130638234E+03  0.78130638235E+03  0.25500000000E-02 0. -1.
     200001    2    1    2    0    0 -0.54874849803E+03 -0.18696868160E+03  0.21833648050E+03  0.87171206655E+03  0.61329349114E+03 0.  0.
    5000001    2    3    3    0    0 -0.77393207000E+02 -0.30559382621E+03  0.14426035100E+03  0.36977979196E+03  0.12864194717E+03 0.  0.
        -13    1    4    4    0    0 -0.48883981227E+02 -0.11252853071E+03  0.11864831554E+03  0.17067439113E+03  0.10566000000E+00 0. -1.
     200003    1    4    4    0    0 -0.28509225773E+02 -0.19306529550E+03  0.25612035454E+02  0.19910540083E+03  0.30000000000E+02 0. -1.
     200000    1    3    3    0    0 -0.47135529103E+03  0.11862514461E+03  0.74076129502E+02  0.50193227459E+03  0.10100000000E+03 0.  1.
    -200001    1    1    2    0    0  0.54874849803E+03  0.18696868160E+03 -0.63163411999E+02  0.84607376664E+03  0.61300000000E+03 0. -1.
<mgrwt>
<rscale>  0 0.17107628E+04</rscale>
<asrwt>0</asrwt>
<pdfrwt beam="1">  1        2 0.13378278E+00 0.17107628E+04</pdfrwt>
<pdfrwt beam="2">  1       -2 0.11161520E+00 0.17107628E+04</pdfrwt>
<totfact> 0.18621630E+01</totfact>
</mgrwt>
</event>
<event>
 8    1  0.7685004E-052  0.1685110E+04  0.7818608E-02  0.8769902E-01
          2   -1    0    0  501    0  0.00000000000E+00  0.00000000000E+00  0.14807073448E+04  0.14807073448E+04  0.25500000000E-02 0.  1.
         -2   -1    0    0    0  501 -0.00000000000E+00 -0.00000000000E+00 -0.47943247560E+03  0.47943247561E+03  0.25500000000E-02 0. -1.
     200001    2    1    2    0    0 -0.13516168848E+03  0.53981714274E+03  0.68278047215E+03  0.10730778662E+04  0.61289126616E+03 0.  0.
    5000001    2    3    3    0    0  0.12430941381E+03  0.11614038483E+03  0.83469072918E+02  0.28809226036E+03  0.21699918201E+03 0.  0.
        -13    1    4    4    0    0 -0.43715703207E+02  0.80698750160E+02 -0.63346678645E+01  0.91997229118E+02  0.10566000000E+00 0. -1.
     200003    1    4    4    0    0  0.16802511702E+03  0.35441634665E+02  0.89803740782E+02  0.19609503124E+03  0.30000000000E+02 0. -1.
     200000    1    3    3    0    0 -0.25947110230E+03  0.42367675791E+03  0.59931139923E+03  0.78498560583E+03  0.10100000000E+03 0.  1.
    -200001    1    1    2    0    0  0.13516168848E+03 -0.53981714274E+03  0.31849439702E+03  0.88706195418E+03  0.61300000000E+03 0. -1.
<mgrwt>
<rscale>  0 0.16851103E+04</rscale>
<asrwt>0</asrwt>
<pdfrwt beam="1">  1        2 0.21152962E+00 0.16851103E+04</pdfrwt>
<pdfrwt beam="2">  1       -2 0.68490354E-01 0.16851103E+04</pdfrwt>
<totfact> 0.27869490E+01</totfact>
</mgrwt>
</event>
<event>
 8    1  0.7685004E-052  0.1545812E+04  0.7818608E-02  0.8854547E-01
         -2   -1    0    0    0  501 -0.00000000000E+00  0.00000000000E+00  0.59019910561E+03  0.59019910562E+03  0.25500000000E-02 0. -1.
          2   -1    0    0  501    0  0.00000000000E+00 -0.00000000000E+00 -0.10121727517E+04  0.10121727517E+04  0.25500000000E-02 0.  1.
     200001    2    1    2    0    0  0.93361090413E+02  0.18509866471E+03 -0.64832895868E+03  0.91681840463E+03  0.61420496540E+03 0.  0.
    5000001    2    3    3    0    0  0.21711851691E+03  0.23831215772E+03 -0.11255504383E+03  0.35521154544E+03  0.97844106742E+02 0.  0.
        -13    1    4    4    0    0  0.46257690530E+02  0.97774208755E+02 -0.73693819122E+01  0.10841535309E+03  0.10566000000E+00 0. -1.
     200003    1    4    4    0    0  0.17086082638E+03  0.14053794896E+03 -0.10518566192E+03  0.24679619236E+03  0.30000000000E+02 0. -1.
     200000    1    3    3    0    0 -0.12375742649E+03 -0.53213493003E+02 -0.53577391485E+03  0.56160685919E+03  0.10100000000E+03 0.  1.
    -200001    1    1    2    0    0 -0.93361090413E+02 -0.18509866471E+03  0.22635531264E+03  0.68555345265E+03  0.61300000000E+03 0. -1.
<mgrwt>
<rscale>  0 0.15458117E+04</rscale>
<asrwt>0</asrwt>
<pdfrwt beam="1">  1        2 0.14459611E+00 0.15458117E+04</pdfrwt>
<pdfrwt beam="2">  1       -2 0.84314158E-01 0.15458117E+04</pdfrwt>
<totfact> 0.32695427E+01</totfact>
</mgrwt>
</event>
<event>
 8    1  0.7685004E-052  0.2737737E+04  0.7818608E-02  0.8322864E-01
          2   -1    0    0  501    0  0.00000000000E+00  0.00000000000E+00  0.18176893234E+04  0.18176893234E+04  0.25500000000E-02 0.  1.
         -2   -1    0    0    0  501 -0.00000000000E+00 -0.00000000000E+00 -0.10308696355E+04  0.10308696356E+04  0.25500000000E-02 0. -1.
     200001    2    1    2    0    0 -0.10928818515E+04  0.39611197362E+03 -0.45612825452E+01  0.13144962884E+04  0.61366460702E+03 0.  0.
    5000001    2    3    3    0    0 -0.69261532297E+03  0.48045835842E+00  0.16079838783E+03  0.71928001651E+03  0.10858823214E+03 0.  0.
        -13    1    4    4    0    0 -0.56738192065E+03 -0.30533386299E+02  0.12065281868E+03  0.58087145341E+03  0.10566000000E+00 0. -1.
     200003    1    4    4    0    0 -0.12523340232E+03  0.31013844658E+02  0.40145569145E+02  0.13840856310E+03  0.30000000000E+02 0. -1.
     200000    1    3    3    0    0 -0.40026652851E+03  0.39563151526E+03 -0.16535967037E+03  0.59521627187E+03  0.10100000000E+03 0. -1.
    -200001    1    1    2    0    0  0.10928818515E+04 -0.39611197362E+03  0.79138097041E+03  0.15340626706E+04  0.61300000000E+03 0.  1.
<mgrwt>
<rscale>  0 0.27377368E+04</rscale>
<asrwt>0</asrwt>
<pdfrwt beam="1">  1        2 0.25966990E+00 0.27377368E+04</pdfrwt>
<pdfrwt beam="2">  1       -2 0.14726709E+00 0.27377368E+04</pdfrwt>
<totfact> 0.27611407E+00</totfact>
</mgrwt>
</event>
<event>
 8    1  0.7685004E-052  0.1527683E+04  0.7818608E-02  0.8866250E-01
          2   -1    0    0  501    0  0.00000000000E+00  0.00000000000E+00  0.42572932589E+04  0.42572932589E+04  0.25500000000E-02 0.  1.
         -2   -1    0    0    0  501 -0.00000000000E+00 -0.00000000000E+00 -0.13704805464E+03  0.13704805467E+03  0.25500000000E-02 0. -1.
     200001    2    1    2    0    0  0.14087758476E+03 -0.37612206100E+03  0.26801633577E+04  0.27785074658E+04  0.61279182041E+03 0.  0.
    5000001    2    3    3    0    0 -0.10685891210E+03 -0.41996419097E+03  0.12991456324E+04  0.13711317301E+04  0.66589023582E+02 0.  0.
        -13    1    4    4    0    0 -0.35449382771E+02 -0.18573620861E+03  0.63921108381E+03  0.66659239326E+03  0.10566000000E+00 0. -1.
     200003    1    4    4    0    0 -0.71409529333E+02 -0.23422798236E+03  0.65993454864E+03  0.70453933680E+03  0.30000000000E+02 0. -1.
     200000    1    3    3    0    0  0.24773649686E+03  0.43842129972E+02  0.13810177252E+04  0.14073757358E+04  0.10100000000E+03 0.  1.
    -200001    1    1    2    0    0 -0.14087758476E+03  0.37612206100E+03  0.14400818466E+04  0.16158338477E+04  0.61300000000E+03 0. -1.
<mgrwt>
<rscale>  0 0.15276829E+04</rscale>
<asrwt>0</asrwt>
<pdfrwt beam="1">  1        2 0.60818474E+00 0.15276829E+04</pdfrwt>
<pdfrwt beam="2">  1       -2 0.19578294E-01 0.15276829E+04</pdfrwt>
<totfact> 0.81705019E+00</totfact>
</mgrwt>
</event>
<event>
 8    1  0.7685004E-052  0.1355060E+04  0.7818608E-02  0.8987007E-01
          2   -1    0    0  501    0  0.00000000000E+00  0.00000000000E+00  0.17338124291E+04  0.17338124291E+04  0.25500000000E-02 0.  1.
         -2   -1    0    0    0  501 -0.00000000000E+00 -0.00000000000E+00 -0.26476149460E+03  0.26476149461E+03  0.25500000000E-02 0. -1.
     200001    2    1    2    0    0  0.10523371342E+03  0.10219055364E+03  0.37638989005E+03  0.73714845950E+03  0.61660478292E+03 0.  0.
    5000001    2    3    3    0    0 -0.81683114846E+02  0.10281275800E+03  0.47819456066E+03  0.50155669652E+03  0.75143113619E+02 0.  0.
        -13    1    4    4    0    0 -0.12934469549E+01  0.41760842728E+02  0.19475775872E+03  0.19918894732E+03  0.10566000000E+00 0. -1.
     200003    1    4    4    0    0 -0.80389667891E+02  0.61051915276E+02  0.28343680194E+03  0.30236774920E+03  0.30000000000E+02 0. -1.
     200000    1    3    3    0    0  0.18691682827E+03 -0.62220435933E+00 -0.10180467061E+03  0.23559176298E+03  0.10100000000E+03 0. -1.
    -200001    1    1    2    0    0 -0.10523371342E+03 -0.10219055364E+03  0.10926610444E+04  0.12614254642E+04  0.61300000000E+03 0.  1.
<mgrwt>
<rscale>  0 0.13550598E+04</rscale>
<asrwt>0</asrwt>
<pdfrwt beam="1">  1        2 0.24768750E+00 0.13550598E+04</pdfrwt>
<pdfrwt beam="2">  1       -2 0.37823069E-01 0.13550598E+04</pdfrwt>
<totfact> 0.70970687E+01</totfact>
</mgrwt>
</event>
<event>
 8    1  0.7685004E-052  0.1355536E+04  0.7818608E-02  0.8986648E-01
          2   -1    0    0  501    0  0.00000000000E+00  0.00000000000E+00  0.16063228079E+04  0.16063228079E+04  0.25500000000E-02 0.  1.
         -2   -1    0    0    0  501 -0.00000000000E+00 -0.00000000000E+00 -0.28597581375E+03  0.28597581376E+03  0.25500000000E-02 0. -1.
     200001    2    1    2    0    0  0.20649947318E+03 -0.60886936960E+02  0.92981085666E+03  0.11342506507E+04  0.61288421256E+03 0.  0.
    5000001    2    3    3    0    0 -0.10230639111E+03  0.11755235345E+03  0.59653598238E+03  0.63577820013E+03  0.15515665639E+03 0.  0.
        -13    1    4    4    0    0 -0.13048357558E+02  0.10028500500E+01  0.32805780519E+03  0.32831874764E+03  0.10566000000E+00 0. -1.
     200003    1    4    4    0    0 -0.89258033554E+02  0.11654950340E+03  0.26847817719E+03  0.30745945248E+03  0.30000000000E+02 0. -1.
     200000    1    3    3    0    0  0.30880586430E+03 -0.17843929041E+03  0.33327487428E+03  0.49847245060E+03  0.10100000000E+03 0.  1.
    -200001    1    1    2    0    0 -0.20649947318E+03  0.60886936960E+02  0.39053613745E+03  0.75804797089E+03  0.61300000000E+03 0. -1.
<mgrwt>
<rscale>  0 0.13555360E+04</rscale>
<asrwt>0</asrwt>
<pdfrwt beam="1">  1        2 0.22947469E+00 0.13555360E+04</pdfrwt>
<pdfrwt beam="2">  1       -2 0.40853686E-01 0.13555360E+04</pdfrwt>
<totfact> 0.71163917E+01</totfact>
</mgrwt>
</event>
<event>
 8    1  0.7685004E-052  0.1268443E+04  0.7818608E-02  0.9054972E-01
         -2   -1    0    0    0  501 -0.00000000000E+00  0.00000000000E+00  0.16755866505E+03  0.16755866507E+03  0.25500000000E-02 0.  1.
          2   -1    0    0  501    0  0.00000000000E+00 -0.00000000000E+00 -0.24005723150E+04  0.24005723150E+04  0.25500000000E-02 0. -1.
     200001    2    1    2    0    0 -0.14573292129E+03  0.23461136517E+02 -0.12459096603E+04  0.13968360575E+04  0.61406154467E+03 0.  0.
    5000001    2    3    3    0    0  0.34988538826E+02 -0.20224501259E+03 -0.92119922443E+03  0.95047143183E+03  0.11251972570E+03 0.  0.
        -13    1    4    4    0    0  0.69523392339E+01 -0.68845801915E+02 -0.13212601987E+03  0.14914883758E+03  0.10566000000E+00 0. -1.
     200003    1    4    4    0    0  0.28036199592E+02 -0.13339921068E+03 -0.78907320456E+03  0.80132259425E+03  0.30000000000E+02 0. -1.
     200000    1    3    3    0    0 -0.18072146012E+03  0.22570614911E+03 -0.32471043590E+03  0.44636462570E+03  0.10100000000E+03 0.  1.
    -200001    1    1    2    0    0  0.14573292129E+03 -0.23461136517E+02 -0.98710398964E+03  0.11712949226E+04  0.61300000000E+03 0.  1.
<mgrwt>
<rscale>  0 0.12684427E+04</rscale>
<asrwt>0</asrwt>
<pdfrwt beam="1">  1        2 0.34293888E+00 0.12684427E+04</pdfrwt>
<pdfrwt beam="2">  1       -2 0.23936954E-01 0.12684427E+04</pdfrwt>
<totfact> 0.76039299E+01</totfact>
</mgrwt>
</event>
<event>
 8    1  0.7685004E-052  0.1397643E+04  0.7818608E-02  0.8955527E-01
         -2   -1    0    0    0  501 -0.00000000000E+00  0.00000000000E+00  0.10282205601E+04  0.10282205601E+04  0.25500000000E-02 0. -1.
          2   -1    0    0  501    0  0.00000000000E+00 -0.00000000000E+00 -0.47494798658E+03  0.47494798658E+03  0.25500000000E-02 0.  1.
     200001    2    1    2    0    0 -0.70466767689E+01  0.39643779440E+02 -0.82398367682E+02  0.61916185530E+03  0.61233212162E+03 0.  0.
    5000001    2    3    3    0    0 -0.26078920917E+03  0.63415797691E+02 -0.17172917751E+03  0.33083673467E+03  0.89047513055E+02 0.  0.
        -13    1    4    4    0    0 -0.11829402513E+01  0.13433605423E+02 -0.21229912835E+02  0.25151172245E+02  0.10566000000E+00 0. -1.
     200003    1    4    4    0    0 -0.25960626892E+03  0.49982192268E+02 -0.15049926468E+03  0.30568556243E+03  0.30000000000E+02 0. -1.
     200000    1    3    3    0    0  0.25374253241E+03 -0.23772018251E+02  0.89330809829E+02  0.28832512063E+03  0.10100000000E+03 0. -1.
    -200001    1    1    2    0    0  0.70466767689E+01 -0.39643779440E+02  0.63567094118E+03  0.88400669135E+03  0.61300000000E+03 0. -1.
<mgrwt>
<rscale>  0 0.13976427E+04</rscale>
<asrwt>0</asrwt>
<pdfrwt beam="1">  1        2 0.67849712E-01 0.13976427E+04</pdfrwt>
<pdfrwt beam="2">  1       -2 0.14688865E+00 0.13976427E+04</pdfrwt>
<totfact> 0.21975054E+01</totfact>
</mgrwt>
</event>
<event>
 8    1  0.7685004E-052  0.1312691E+04  0.7818608E-02  0.9019561E-01
         -2   -1    0    0    0  501 -0.00000000000E+00  0.00000000000E+00  0.11197969534E+04  0.11197969534E+04  0.25500000000E-02 0. -1.
          2   -1    0    0  501    0  0.00000000000E+00 -0.00000000000E+00 -0.38470315092E+03  0.38470315092E+03  0.25500000000E-02 0.  1.
     200001    2    1    2    0    0  0.22045542893E+03 -0.78396400506E+02  0.38661313091E+03  0.76156378793E+03  0.61299518622E+03 0.  0.
    5000001    2    3    3    0    0  0.16445006038E+02  0.91874076476E+02 -0.12406756262E+03  0.17709132602E+03  0.85189750010E+02 0.  0.
        -13    1    4    4    0    0 -0.14601891395E+02  0.58067899816E+02 -0.27164537221E+02  0.65749672758E+02  0.10566000000E+00 0. -1.
     200003    1    4    4    0    0  0.31046897433E+02  0.33806176660E+02 -0.96903025398E+02  0.11134165327E+03  0.30000000000E+02 0. -1.
     200000    1    3    3    0    0  0.20401042290E+03 -0.17027047698E+03  0.51068069353E+03  0.58447246190E+03  0.10100000000E+03 0. -1.
    -200001    1    1    2    0    0 -0.22045542893E+03  0.78396400506E+02  0.34848067157E+03  0.74293631639E+03  0.61300000000E+03 0.  1.
<mgrwt>
<rscale>  0 0.13126910E+04</rscale>
<asrwt>0</asrwt>
<pdfrwt beam="1">  1        2 0.54957594E-01 0.13126910E+04</pdfrwt>
<pdfrwt beam="2">  1       -2 0.15997099E+00 0.13126910E+04</pdfrwt>
<totfact> 0.22306224E+01</totfact>
</mgrwt>
</event>
<event>
 8    1  0.7685004E-052  0.1343454E+04  0.7818608E-02  0.8995798E-01
          2   -1    0    0  501    0  0.00000000000E+00  0.00000000000E+00  0.33596937169E+04  0.33596937169E+04  0.25500000000E-02 0.  1.
         -2   -1    0    0    0  501 -0.00000000000E+00 -0.00000000000E+00 -0.13430313870E+03  0.13430313872E+03  0.25500000000E-02 0. -1.
     200001    2    1    2    0    0  0.78252779814E+02 -0.10378673179E+03  0.97114266023E+03  0.11542751074E+04  0.61019486552E+03 0.  0.
    5000001    2    3    3    0    0  0.12542137828E+03 -0.29958705688E+03  0.78341403493E+03  0.86100785605E+03  0.14870793951E+03 0.  0.
        -13    1    4    4    0    0  0.57429489784E+02 -0.26817154845E+03  0.56188021516E+03  0.62523876483E+03  0.10566000000E+00 0. -1.
     200003    1    4    4    0    0  0.67991888499E+02 -0.31415508426E+02  0.22153381977E+03  0.23576909121E+03  0.30000000000E+02 0.  1.
     200000    1    3    3    0    0 -0.47168598469E+02  0.19580032508E+03  0.18772862531E+03  0.29326725140E+03  0.10100000000E+03 0. -1.
    -200001    1    1    2    0    0 -0.78252779814E+02  0.10378673179E+03  0.22542479179E+04  0.23397217482E+04  0.61300000000E+03 0.  1.
<mgrwt>
<rscale>  0 0.13434544E+04</rscale>
<asrwt>0</asrwt>
<pdfrwt beam="1">  1        2 0.47995623E+00 0.13434544E+04</pdfrwt>
<pdfrwt beam="2">  1       -2 0.19186163E-01 0.13434544E+04</pdfrwt>
<totfact> 0.33281174E+01</totfact>
</mgrwt>
</event>
<event>
 8    1  0.7685004E-052  0.1285943E+04  0.7818608E-02  0.9040787E-01
         -2   -1    0    0    0  501 -0.00000000000E+00  0.00000000000E+00  0.32557108344E+03  0.32557108345E+03  0.25500000000E-02 0. -1.
          2   -1    0    0  501    0  0.00000000000E+00 -0.00000000000E+00 -0.12698075812E+04  0.12698075812E+04  0.25500000000E-02 0.  1.
     200001    2    1    2    0    0 -0.14624039633E+03 -0.99133341263E+02 -0.57477449203E+03  0.85816441728E+03  0.61226365034E+03 0.  0.
    5000001    2    3    3    0    0  0.65319691395E+02  0.13617522702E+03 -0.48424350513E+03  0.51389032209E+03  0.82347655364E+02 0.  0.
        -13    1    4    4    0    0  0.58802586507E+01  0.88924973780E+02 -0.22156401891E+03  0.23881552304E+03  0.10566000000E+00 0. -1.
     200003    1    4    4    0    0  0.59439432744E+02  0.47250253242E+02 -0.26267948622E+03  0.27507479906E+03  0.30000000000E+02 0. -1.
     200000    1    3    3    0    0 -0.21156008773E+03 -0.23530856829E+03 -0.90530986906E+02  0.34427409519E+03  0.10100000000E+03 0. -1.
    -200001    1    1    2    0    0  0.14624039633E+03  0.99133341263E+02 -0.36946200574E+03  0.73721424739E+03  0.61300000000E+03 0. -1.
<mgrwt>
<rscale>  0 0.12859434E+04</rscale>
<asrwt>0</asrwt>
<pdfrwt beam="1">  1        2 0.18140108E+00 0.12859434E+04</pdfrwt>
<pdfrwt beam="2">  1       -2 0.46510155E-01 0.12859434E+04</pdfrwt>
<totfact> 0.83922201E+01</totfact>
</mgrwt>
</event>
<event>
 8    1  0.7685004E-052  0.1259760E+04  0.7818608E-02  0.9062099E-01
          2   -1    0    0  501    0  0.00000000000E+00  0.00000000000E+00  0.12361577864E+04  0.12361577864E+04  0.25500000000E-02 0.  1.
         -2   -1    0    0    0  501 -0.00000000000E+00 -0.00000000000E+00 -0.32095343980E+03  0.32095343981E+03  0.25500000000E-02 0. -1.
     200001    2    1    2    0    0  0.36279361058E+00 -0.74219229602E+02  0.61611082914E+03  0.87101024394E+03  0.61119364002E+03 0.  0.
    5000001    2    3    3    0    0 -0.73917753984E+02 -0.41653716385E+02  0.70393428903E+03  0.71451081100E+03  0.88336568390E+02 0.  0.
        -13    1    4    4    0    0  0.32312007042E+01  0.13751105143E+02  0.28905597529E+02  0.32172632518E+02  0.10566000000E+00 0. -1.
     200003    1    4    4    0    0 -0.77148954688E+02 -0.55404821528E+02  0.67502869150E+03  0.68233817848E+03  0.30000000000E+02 0. -1.
     200000    1    3    3    0    0  0.74280547595E+02 -0.32565513217E+02 -0.87823459895E+02  0.15649943294E+03  0.10100000000E+03 0. -1.
    -200001    1    1    2    0    0 -0.36279361058E+00  0.74219229602E+02  0.29909351743E+03  0.68610098224E+03  0.61300000000E+03 0. -1.
<mgrwt>
<rscale>  0 0.12597604E+04</rscale>
<asrwt>0</asrwt>
<pdfrwt beam="1">  1        2 0.17659397E+00 0.12597604E+04</pdfrwt>
<pdfrwt beam="2">  1       -2 0.45850492E-01 0.12597604E+04</pdfrwt>
<totfact> 0.90361235E+01</totfact>
</mgrwt>
</event>
<event>
 8    1  0.7685004E-052  0.1433010E+04  0.7818608E-02  0.8930265E-01
          2   -1    0    0  501    0  0.00000000000E+00  0.00000000000E+00  0.61115674768E+03  0.61115674768E+03  0.25500000000E-02 0.  1.
         -2   -1    0    0    0  501 -0.00000000000E+00 -0.00000000000E+00 -0.84001238717E+03  0.84001238717E+03  0.25500000000E-02 0. -1.
     200001    2    1    2    0    0 -0.12548542186E+03  0.24803088020E+03  0.13573293403E+03  0.68568906550E+03  0.61194783808E+03 0.  0.
    5000001    2    3    3    0    0 -0.21280166395E+03  0.40529825736E+02  0.30855186769E+03  0.38444465050E+03  0.75274293659E+02 0.  0.
        -13    1    4    4    0    0 -0.10723218282E+03 -0.11547288521E+02  0.14596078423E+03  0.18148455196E+03  0.10566000000E+00 0. -1.
     200003    1    4    4    0    0 -0.10556948113E+03  0.52077114257E+02  0.16259108347E+03  0.20296009854E+03  0.30000000000E+02 0. -1.
     200000    1    3    3    0    0  0.87316242087E+02  0.20750105447E+03 -0.17281893367E+03  0.30124441500E+03  0.10100000000E+03 0. -1.
    -200001    1    1    2    0    0  0.12548542186E+03 -0.24803088020E+03 -0.36458857352E+03  0.76548006935E+03  0.61300000000E+03 0. -1.
<mgrwt>
<rscale>  0 0.14330098E+04</rscale>
<asrwt>0</asrwt>
<pdfrwt beam="1">  1        2 0.87308107E-01 0.14330098E+04</pdfrwt>
<pdfrwt beam="2">  1       -2 0.12000177E+00 0.14330098E+04</pdfrwt>
<totfact> 0.27412895E+01</totfact>
</mgrwt>
</event>
<event>
 8    1  0.7685004E-052  0.1424673E+04  0.7818608E-02  0.8936150E-01
         -2   -1    0    0    0  501 -0.00000000000E+00  0.00000000000E+00  0.17997348387E+03  0.17997348388E+03  0.25500000000E-02 0. -1.
          2   -1    0    0  501    0  0.00000000000E+00 -0.00000000000E+00 -0.28194318144E+04  0.28194318144E+04  0.25500000000E-02 0.  1.
     200001    2    1    2    0    0  0.14915282212E+03 -0.20535035029E+03 -0.18659004551E+04  0.19802997506E+04  0.61285174643E+03 0.  0.
    5000001    2    3    3    0    0 -0.32813317963E+02  0.12530187674E+03 -0.12388588464E+03  0.19501032445E+03  0.76837751637E+02 0.  0.
        -13    1    4    4    0    0  0.19132209476E+02  0.14039326446E+02 -0.14218116960E+02  0.27664239379E+02  0.10566000000E+00 0. -1.
     200003    1    4    4    0    0 -0.51945527439E+02  0.11126255030E+03 -0.10966776768E+03  0.16734608507E+03  0.30000000000E+02 0. -1.
     200000    1    3    3    0    0  0.18196614008E+03 -0.33065222703E+03 -0.17420145705E+04  0.17852894261E+04  0.10100000000E+03 0.  1.
    -200001    1    1    2    0    0 -0.14915282212E+03  0.20535035029E+03 -0.77355787543E+03  0.10191055477E+04  0.61300000000E+03 0. -1.
<mgrwt>
<rscale>  0 0.14246725E+04</rscale>
<asrwt>0</asrwt>
<pdfrwt beam="1">  1        2 0.40277595E+00 0.14246725E+04</pdfrwt>
<pdfrwt beam="2">  1       -2 0.25710499E-01 0.14246725E+04</pdfrwt>
<totfact> 0.39549685E+01</totfact>
</mgrwt>
</event>
<event>
 8    1  0.7685004E-052  0.1382777E+04  0.7818608E-02  0.8966380E-01
          2   -1    0    0  501    0  0.00000000000E+00  0.00000000000E+00  0.22682568951E+04  0.22682568951E+04  0.25500000000E-02 0.  1.
         -2   -1    0    0    0  501 -0.00000000000E+00 -0.00000000000E+00 -0.21074254759E+03  0.21074254760E+03  0.25500000000E-02 0. -1.
     200001    2    1    2    0    0 -0.22532939516E+03 -0.19852819867E+03  0.12259989883E+04  0.14031864596E+04  0.61292082614E+03 0.  0.
    5000001    2    3    3    0    0 -0.36407543915E+03 -0.12854964470E+03  0.47402242405E+03  0.62870778597E+03  0.14662975512E+03 0.  0.
        -13    1    4    4    0    0 -0.15474143943E+03 -0.11573738237E+03  0.16535238330E+03  0.25432553270E+03  0.10566000000E+00 0. -1.
     200003    1    4    4    0    0 -0.20933399972E+03 -0.12812262323E+02  0.30867004075E+03  0.37438225327E+03  0.30000000000E+02 0. -1.
     200000    1    3    3    0    0  0.13874604399E+03 -0.69978553978E+02  0.75197656427E+03  0.77447867366E+03  0.10100000000E+03 0.  1.
    -200001    1    1    2    0    0  0.22532939516E+03  0.19852819867E+03  0.83151535917E+03  0.10758129831E+04  0.61300000000E+03 0. -1.
<mgrwt>
<rscale>  0 0.13827773E+04</rscale>
<asrwt>0</asrwt>
<pdfrwt beam="1">  1        2 0.32403670E+00 0.13827773E+04</pdfrwt>
<pdfrwt beam="2">  1       -2 0.30106078E-01 0.13827773E+04</pdfrwt>
<totfact> 0.57981876E+01</totfact>
</mgrwt>
</event>
<event>
 8    1  0.7685004E-052  0.1650151E+04  0.7818608E-02  0.8790317E-01
         -2   -1    0    0    0  501 -0.00000000000E+00  0.00000000000E+00  0.20684373339E+03  0.20684373340E+03  0.25500000000E-02 0. -1.
          2   -1    0    0  501    0  0.00000000000E+00 -0.00000000000E+00 -0.32911283885E+04  0.32911283885E+04  0.25500000000E-02 0.  1.
     200001    2    1    2    0    0  0.22650270007E+03  0.49902489900E+03 -0.14008774625E+04  0.16244839049E+04  0.61331963079E+03 0.  0.
    5000001    2    3    3    0    0 -0.17274662222E+03  0.24532916840E+03 -0.40925465867E+03  0.52118053318E+03  0.11879383891E+03 0.  0.
        -13    1    4    4    0    0 -0.80599538316E+02  0.31314029443E+02 -0.13165419463E+03  0.15751092706E+03  0.10566000000E+00 0. -1.
     200003    1    4    4    0    0 -0.92147083904E+02  0.21401513896E+03 -0.27760046404E+03  0.36366960612E+03  0.30000000000E+02 0. -1.
     200000    1    3    3    0    0  0.39924932228E+03  0.25369573060E+03 -0.99162280381E+03  0.11033033717E+04  0.10100000000E+03 0. -1.
    -200001    1    1    2    0    0 -0.22650270007E+03 -0.49902489900E+03 -0.16834071927E+04  0.18734882170E+04  0.61300000000E+03 0.  1.
<mgrwt>
<rscale>  0 0.16501506E+04</rscale>
<asrwt>0</asrwt>
<pdfrwt beam="1">  1        2 0.47016117E+00 0.16501506E+04</pdfrwt>
<pdfrwt beam="2">  1       -2 0.29549107E-01 0.16501506E+04</pdfrwt>
<totfact> 0.16294631E+01</totfact>
</mgrwt>
</event>
<event>
 8    1  0.7685004E-052  0.1419165E+04  0.7818608E-02  0.8940062E-01
         -2   -1    0    0    0  501 -0.00000000000E+00  0.00000000000E+00  0.28730768730E+03  0.28730768731E+03  0.25500000000E-02 0. -1.
          2   -1    0    0  501    0  0.00000000000E+00 -0.00000000000E+00 -0.17525018878E+04  0.17525018878E+04  0.25500000000E-02 0.  1.
     200001    2    1    2    0    0 -0.31798516707E+02  0.19220238581E+02 -0.12441913283E+04  0.13871290769E+04  0.61215557760E+03 0.  0.
    5000001    2    3    3    0    0 -0.23125636749E+03  0.17705989915E+03 -0.79537958173E+03  0.86145828962E+03  0.15700952306E+03 0.  0.
        -13    1    4    4    0    0 -0.38612802161E+02 -0.51880374227E+01 -0.25324951510E+02  0.46467499998E+02  0.10566000000E+00 0. -1.
     200003    1    4    4    0    0 -0.19264356533E+03  0.18224793657E+03 -0.77005463022E+03  0.81499078962E+03  0.30000000000E+02 0. -1.
     200000    1    3    3    0    0  0.19945785079E+03 -0.15783966056E+03 -0.44881174660E+03  0.52567078725E+03  0.10100000000E+03 0.  1.
    -200001    1    1    2    0    0  0.31798516707E+02 -0.19220238581E+02 -0.22100287214E+03  0.65268049820E+03  0.61300000000E+03 0. -1.
<mgrwt>
<rscale>  0 0.14191649E+04</rscale>
<asrwt>0</asrwt>
<pdfrwt beam="1">  1        2 0.25035741E+00 0.14191649E+04</pdfrwt>
<pdfrwt beam="2">  1       -2 0.41043956E-01 0.14191649E+04</pdfrwt>
<totfact> 0.58905076E+01</totfact>
</mgrwt>
</event>
<event>
 8    1  0.7685004E-052  0.1252653E+04  0.7818608E-02  0.9067978E-01
          2   -1    0    0  501    0  0.00000000000E+00  0.00000000000E+00  0.16540186735E+04  0.16540186735E+04  0.25500000000E-02 0.  1.
         -2   -1    0    0    0  501 -0.00000000000E+00 -0.00000000000E+00 -0.23717065739E+03  0.23717065741E+03  0.25500000000E-02 0. -1.
     200001    2    1    2    0    0  0.80129376421E+02  0.88271088503E+02  0.62326770154E+03  0.88136201017E+03  0.61165665463E+03 0.  0.
    5000001    2    3    3    0    0  0.17436413635E+02 -0.20875752198E+03  0.74409152496E+02  0.24606435561E+03  0.10548560861E+03 0.  0.
        -13    1    4    4    0    0 -0.38549657745E+00  0.97257394609E+00  0.28540316659E+02  0.28559680438E+02  0.10566000000E+00 0. -1.
     200003    1    4    4    0    0  0.17821910213E+02 -0.20973009592E+03  0.45868835837E+02  0.21750467517E+03  0.30000000000E+02 0. -1.
     200000    1    3    3    0    0  0.62692962786E+02  0.29702861048E+03  0.54885854905E+03  0.63529765456E+03  0.10100000000E+03 0.  1.
    -200001    1    1    2    0    0 -0.80129376421E+02 -0.88271088503E+02  0.79358031453E+03  0.10098273207E+04  0.61300000000E+03 0.  1.
<mgrwt>
<rscale>  0 0.12526527E+04</rscale>
<asrwt>0</asrwt>
<pdfrwt beam="1">  1        2 0.23628838E+00 0.12526527E+04</pdfrwt>
<pdfrwt beam="2">  1       -2 0.33881523E-01 0.12526527E+04</pdfrwt>
<totfact> 0.97126652E+01</totfact>
</mgrwt>
</event>
<event>
 8    1  0.7685004E-052  0.1377672E+04  0.7818608E-02  0.8970141E-01
         -2   -1    0    0    0  501 -0.00000000000E+00  0.00000000000E+00  0.25531407089E+03  0.25531407090E+03  0.25500000000E-02 0. -1.
          2   -1    0    0  501    0  0.00000000000E+00 -0.00000000000E+00 -0.18584753108E+04  0.18584753108E+04  0.25500000000E-02 0.  1.
     200001    2    1    2    0    0 -0.23604345712E+03  0.13727568690E+03 -0.55475749079E+03  0.86900805591E+03  0.61062099521E+03 0.  0.
    5000001    2    3    3    0    0  0.27584790438E+02  0.10191535395E+03  0.95969300843E+02  0.15879923915E+03  0.69709623551E+02 0.  0.
        -13    1    4    4    0    0  0.25291850671E+02  0.65667837343E+01  0.14907549896E+02  0.30083991872E+02  0.10566000000E+00 0. -1.
     200003    1    4    4    0    0  0.22929397668E+01  0.95348570219E+02  0.81061750947E+02  0.12871524728E+03  0.30000000000E+02 0. -1.
     200000    1    3    3    0    0 -0.26362824756E+03  0.35360332943E+02 -0.65072679163E+03  0.71020881676E+03  0.10100000000E+03 0.  1.
    -200001    1    1    2    0    0  0.23604345712E+03 -0.13727568690E+03 -0.10484037491E+04  0.12447813258E+04  0.61300000000E+03 0.  1.
<mgrwt>
<rscale>  0 0.13776718E+04</rscale>
<asrwt>0</asrwt>
<pdfrwt beam="1">  1        2 0.26549647E+00 0.13776718E+04</pdfrwt>
<pdfrwt beam="2">  1       -2 0.36473440E-01 0.13776718E+04</pdfrwt>
<totfact> 0.65529657E+01</totfact>
</mgrwt>
</event>
<event>
 8    1  0.7685004E-052  0.1492559E+04  0.7818608E-02  0.8889416E-01
         -2   -1    0    0    0  501 -0.00000000000E+00  0.00000000000E+00  0.41531040610E+03  0.41531040611E+03  0.25500000000E-02 0. -1.
          2   -1    0    0  501    0  0.00000000000E+00 -0.00000000000E+00 -0.13410039264E+04  0.13410039264E+04  0.25500000000E-02 0.  1.
     200001    2    1    2    0    0 -0.45928453333E+02  0.42408443116E+03 -0.46050234914E+03  0.87646840661E+03  0.61170043864E+03 0.  0.
    5000001    2    3    3    0    0 -0.45277558611E+02  0.38409716813E+03 -0.53367731133E+02  0.45509090121E+03  0.23383524490E+03 0.  0.
        -13    1    4    4    0    0 -0.12148633940E+03  0.26510683038E+03  0.21464610844E+02  0.29240605817E+03  0.10566000000E+00 0. -1.
     200003    1    4    4    0    0  0.76208780791E+02  0.11899033776E+03 -0.74832341977E+02  0.16268484304E+03  0.30000000000E+02 0. -1.
     200000    1    3    3    0    0 -0.65089472188E+00  0.39987263029E+02 -0.40713461801E+03  0.42137750539E+03  0.10100000000E+03 0.  1.
    -200001    1    1    2    0    0  0.45928453333E+02 -0.42408443116E+03 -0.46519117112E+03  0.87984592587E+03  0.61300000000E+03 0.  1.
<mgrwt>
<rscale>  0 0.14925587E+04</rscale>
<asrwt>0</asrwt>
<pdfrwt beam="1">  1        2 0.19157199E+00 0.14925587E+04</pdfrwt>
<pdfrwt beam="2">  1       -2 0.59330059E-01 0.14925587E+04</pdfrwt>
<totfact> 0.45756501E+01</totfact>
</mgrwt>
</event>
<event>
 8    1  0.7685004E-052  0.1490042E+04  0.7818608E-02  0.8891102E-01
         -2   -1    0    0    0  501 -0.00000000000E+00  0.00000000000E+00  0.54705684967E+03  0.54705684968E+03  0.25500000000E-02 0. -1.
          2   -1    0    0  501    0  0.00000000000E+00 -0.00000000000E+00 -0.10146222694E+04  0.10146222694E+04  0.25500000000E-02 0.  1.
     200001    2    1    2    0    0 -0.17421823396E+03  0.70467850851E+02  0.16406049738E+03  0.66165800256E+03  0.61282767113E+03 0.  0.
    5000001    2    3    3    0    0 -0.26892558467E+02 -0.10110842424E+03 -0.12993629496E+03  0.27723845735E+03  0.22143079807E+03 0.  0.
        -13    1    4    4    0    0 -0.11636588109E+03 -0.61612467179E+02 -0.31753099467E+02  0.13544513606E+03  0.10566000000E+00 0. -1.
     200003    1    4    4    0    0  0.89473322623E+02 -0.39495957061E+02 -0.98183195490E+02  0.14179332129E+03  0.30000000000E+02 0. -1.
     200000    1    3    3    0    0 -0.14732567549E+03  0.17157627509E+03  0.29399679234E+03  0.38441954521E+03  0.10100000000E+03 0. -1.
    -200001    1    1    2    0    0  0.17421823396E+03 -0.70467850851E+02 -0.63162591715E+03  0.90002111656E+03  0.61300000000E+03 0.  1.
<mgrwt>
<rscale>  0 0.14900417E+04</rscale>
<asrwt>0</asrwt>
<pdfrwt beam="1">  1        2 0.14494604E+00 0.14900417E+04</pdfrwt>
<pdfrwt beam="2">  1       -2 0.78150979E-01 0.14900417E+04</pdfrwt>
<totfact> 0.38825605E+01</totfact>
</mgrwt>
</event>
<event>
 8    1  0.7685004E-052  0.3016200E+04  0.7818608E-02  0.8239120E-01
          2   -1    0    0  501    0  0.00000000000E+00  0.00000000000E+00  0.14667509850E+04  0.14667509850E+04  0.25500000000E-02 0.  1.
         -2   -1    0    0    0  501 -0.00000000000E+00 -0.00000000000E+00 -0.15506142986E+04  0.15506142986E+04  0.25500000000E-02 0. -1.
     200001    2    1    2    0    0  0.12119171341E+04  0.11824714867E+03 -0.68675449727E+03  0.15267371248E+04  0.61365216593E+03 0.  0.
    5000001    2    3    3    0    0  0.35071449503E+03  0.84011633627E+02  0.67277107327E+02  0.37712557446E+03  0.87400675825E+02 0.  0.
        -13    1    4    4    0    0 -0.68781720580E+00  0.53941659873E+00  0.10196029901E+02  0.10233975403E+02  0.10566000000E+00 0. -1.
     200003    1    4    4    0    0  0.35140231223E+03  0.83472217028E+02  0.57081077426E+02  0.36689159906E+03  0.30000000000E+02 0. -1.
     200000    1    3    3    0    0  0.86120263908E+03  0.34235515048E+02 -0.75403160460E+03  0.11496115504E+04  0.10100000000E+03 0. -1.
    -200001    1    1    2    0    0 -0.12119171341E+04 -0.11824714867E+03  0.60289118367E+03  0.14906281587E+04  0.61300000000E+03 0.  1.
<mgrwt>
<rscale>  0 0.30161996E+04</rscale>
<asrwt>0</asrwt>
<pdfrwt beam="1">  1        2 0.20953586E+00 0.30161996E+04</pdfrwt>
<pdfrwt beam="2">  1       -2 0.22151633E+00 0.30161996E+04</pdfrwt>
<totfact> 0.12682390E+00</totfact>
</mgrwt>
</event>
<event>
 8    1  0.7685004E-052  0.1421303E+04  0.7818608E-02  0.8938541E-01
         -2   -1    0    0    0  501 -0.00000000000E+00  0.00000000000E+00  0.19026735845E+03  0.19026735846E+03  0.25500000000E-02 0. -1.
          2   -1    0    0  501    0  0.00000000000E+00 -0.00000000000E+00 -0.26542935410E+04  0.26542935410E+04  0.25500000000E-02 0.  1.
     200001    2    1    2    0    0  0.22424619509E+03 -0.99577045102E+02 -0.70811111929E+03  0.96860550199E+03  0.61365569931E+03 0.  0.
    5000001    2    3    3    0    0  0.23684525392E+03 -0.29652082886E+03 -0.61957047682E+03  0.72988802124E+03  0.69632403045E+02 0.  0.
        -13    1    4    4    0    0  0.16552934907E+03 -0.21344898297E+03 -0.47038548967E+03  0.54242322387E+03  0.10566000000E+00 0. -1.
     200003    1    4    4    0    0  0.71315904843E+02 -0.83071845890E+02 -0.14918498715E+03  0.18746479737E+03  0.30000000000E+02 0.  1.
     200000    1    3    3    0    0 -0.12599058829E+02  0.19694378376E+03 -0.88540642476E+02  0.23871748075E+03  0.10100000000E+03 0. -1.
    -200001    1    1    2    0    0 -0.22424619509E+03  0.99577045102E+02 -0.17559150633E+04  0.18759553975E+04  0.61300000000E+03 0.  1.
<mgrwt>
<rscale>  0 0.14213028E+04</rscale>
<asrwt>0</asrwt>
<pdfrwt beam="1">  1        2 0.37918477E+00 0.14213028E+04</pdfrwt>
<pdfrwt beam="2">  1       -2 0.27181053E-01 0.14213028E+04</pdfrwt>
<totfact> 0.43842575E+01</totfact>
</mgrwt>
</event>
<event>
 8    1  0.7685004E-052  0.1994210E+04  0.7818608E-02  0.8609333E-01
         -2   -1    0    0    0  501 -0.00000000000E+00  0.00000000000E+00  0.96855628628E+03  0.96855628628E+03  0.25500000000E-02 0. -1.
          2   -1    0    0  501    0  0.00000000000E+00 -0.00000000000E+00 -0.10264948878E+04  0.10264948878E+04  0.25500000000E-02 0.  1.
     200001    2    1    2    0    0 -0.68697694293E+03  0.11812904422E+03  0.33350965143E+03  0.98763243001E+03  0.61505880857E+03 0.  0.
    5000001    2    3    3    0    0 -0.50800723363E+03  0.33072868361E+03  0.31513687641E+03  0.69137692815E+03  0.10600940681E+03 0.  0.
        -13    1    4    4    0    0 -0.14457706912E+03  0.50382521449E+02  0.10517552655E+03  0.18574937397E+03  0.10566000000E+00 0. -1.
     200003    1    4    4    0    0 -0.36343016451E+03  0.28034616216E+03  0.20996134986E+03  0.50562755418E+03  0.30000000000E+02 0. -1.
     200000    1    3    3    0    0 -0.17896970930E+03 -0.21259963939E+03  0.18372775019E+02  0.29625550185E+03  0.10100000000E+03 0. -1.
    -200001    1    1    2    0    0  0.68697694293E+03 -0.11812904422E+03 -0.39144825296E+03  0.10074187441E+04  0.61300000000E+03 0. -1.
<mgrwt>
<rscale>  0 0.19942097E+04</rscale>
<asrwt>0</asrwt>
<pdfrwt beam="1">  1        2 0.14664213E+00 0.19942097E+04</pdfrwt>
<pdfrwt beam="2">  1       -2 0.13836518E+00 0.19942097E+04</pdfrwt>
<totfact> 0.93460276E+00</totfact>
</mgrwt>
</event>
<event>
 8    1  0.7685004E-052  0.1532884E+04  0.7818608E-02  0.8862875E-01
          2   -1    0    0  501    0  0.00000000000E+00  0.00000000000E+00  0.50028814567E+03  0.50028814567E+03  0.25500000000E-02 0.  1.
         -2   -1    0    0    0  501 -0.00000000000E+00 -0.00000000000E+00 -0.11741903683E+04  0.11741903683E+04  0.25500000000E-02 0. -1.
     200001    2    1    2    0    0  0.31445987356E+03 -0.33840422381E+03 -0.34275845511E+03  0.83851940881E+03  0.61010573643E+03 0.  0.
    5000001    2    3    3    0    0  0.54162945175E+02 -0.38180840005E+03 -0.39052201837E+03  0.55195218909E+03  0.58587483569E+02 0.  0.
        -13    1    4    4    0    0  0.19205047804E+02 -0.15914364701E+03 -0.19185801915E+03  0.25001008964E+03  0.10566000000E+00 0. -1.
     200003    1    4    4    0    0  0.34957897370E+02 -0.22266475304E+03 -0.19866399922E+03  0.30194209945E+03  0.30000000000E+02 0. -1.
     200000    1    3    3    0    0  0.26029692839E+03  0.43404176246E+02  0.47763563257E+02  0.28656721972E+03  0.10100000000E+03 0. -1.
    -200001    1    1    2    0    0 -0.31445987356E+03  0.33840422381E+03 -0.33114376754E+03  0.83595910519E+03  0.61300000000E+03 0.  1.
<mgrwt>
<rscale>  0 0.15328842E+04</rscale>
<asrwt>0</asrwt>
<pdfrwt beam="1">  1        2 0.71469736E-01 0.15328842E+04</pdfrwt>
<pdfrwt beam="2">  1       -2 0.16774148E+00 0.15328842E+04</pdfrwt>
<totfact> 0.14321852E+01</totfact>
</mgrwt>
</event>
<event>
 8    1  0.7685004E-052  0.1439237E+04  0.7818608E-02  0.8925897E-01
         -2   -1    0    0    0  501 -0.00000000000E+00  0.00000000000E+00  0.20001380869E+03  0.20001380870E+03  0.25500000000E-02 0. -1.
          2   -1    0    0  501    0  0.00000000000E+00 -0.00000000000E+00 -0.25890737364E+04  0.25890737364E+04  0.25500000000E-02 0.  1.
     200001    2    1    2    0    0  0.36468001489E+03  0.85329048408E+02 -0.12860400639E+04  0.14727690503E+04  0.61227205541E+03 0.  0.
    5000001    2    3    3    0    0  0.47923226400E+03  0.18833973336E+03 -0.81468447127E+03  0.96669542554E+03  0.75192020806E+02 0.  0.
        -13    1    4    4    0    0  0.51223913272E+02  0.29503957754E+00 -0.66278210612E+02  0.83766274271E+02  0.10566000000E+00 0. -1.
     200003    1    4    4    0    0  0.42800835073E+03  0.18804469378E+03 -0.74840626066E+03  0.88292915127E+03  0.30000000000E+02 0. -1.
     200000    1    3    3    0    0 -0.11455224912E+03 -0.10301068495E+03 -0.47135559265E+03  0.50607362480E+03  0.10100000000E+03 0. -1.
    -200001    1    1    2    0    0 -0.36468001489E+03 -0.85329048408E+02 -0.11030198638E+04  0.13163184948E+04  0.61300000000E+03 0. -1.
<mgrwt>
<rscale>  0 0.14392366E+04</rscale>
<asrwt>0</asrwt>
<pdfrwt beam="1">  1        2 0.36986766E+00 0.14392366E+04</pdfrwt>
<pdfrwt beam="2">  1       -2 0.28573403E-01 0.14392366E+04</pdfrwt>
<totfact> 0.43240928E+01</totfact>
</mgrwt>
</event>
<event>
 8    1  0.7685004E-052  0.2341320E+04  0.7818608E-02  0.8461805E-01
         -2   -1    0    0    0  501 -0.00000000000E+00  0.00000000000E+00  0.54125560800E+03  0.54125560801E+03  0.25500000000E-02 0. -1.
          2   -1    0    0  501    0  0.00000000000E+00 -0.00000000000E+00 -0.25319724106E+04  0.25319724106E+04  0.25500000000E-02 0.  1.
     200001    2    1    2    0    0  0.53011246246E+03 -0.53748759672E+03 -0.14318543044E+03  0.98539342013E+03  0.61691651418E+03 0.  0.
    5000001    2    3    3    0    0  0.60335763074E+03 -0.54786520276E+03 -0.20587305004E+03  0.84538168121E+03  0.89943111017E+02 0.  0.
        -13    1    4    4    0    0  0.16040349178E+03 -0.14468658577E+03 -0.92753839443E+02  0.23508886441E+03  0.10566000000E+00 0. -1.
     200003    1    4    4    0    0  0.44295413896E+03 -0.40317861699E+03 -0.11311921060E+03  0.61029281679E+03  0.30000000000E+02 0. -1.
     200000    1    3    3    0    0 -0.73245168284E+02  0.10377606038E+02  0.62687619606E+02  0.14001173892E+03  0.10100000000E+03 0. -1.
    -200001    1    1    2    0    0 -0.53011246246E+03  0.53748759672E+03 -0.18475313722E+04  0.20878345985E+04  0.61300000000E+03 0. -1.
<mgrwt>
<rscale>  0 0.23413195E+04</rscale>
<asrwt>0</asrwt>
<pdfrwt beam="1">  1        2 0.36171034E+00 0.23413195E+04</pdfrwt>
<pdfrwt beam="2">  1       -2 0.77322231E-01 0.23413195E+04</pdfrwt>
<totfact> 0.57429948E+00</totfact>
</mgrwt>
</event>
<event>
 8    1  0.7685004E-052  0.1259004E+04  0.7818608E-02  0.9062722E-01
         -2   -1    0    0    0  501 -0.00000000000E+00  0.00000000000E+00  0.13326925768E+04  0.13326925768E+04  0.25500000000E-02 0. -1.
          2   -1    0    0  501    0  0.00000000000E+00 -0.00000000000E+00 -0.29734765586E+03  0.29734765588E+03  0.25500000000E-02 0.  1.
     200001    2    1    2    0    0 -0.38079662888E+02  0.18094150665E+02  0.34033893016E+03  0.70236583601E+03  0.61295164670E+03 0.  0.
    5000001    2    3    3    0    0 -0.16069973432E+03 -0.59779203026E+02 -0.11354137377E+03  0.21522286785E+03  0.63492374045E+02 0.  0.
        -13    1    4    4    0    0 -0.52404529118E+02 -0.28271894561E+02 -0.66846489971E+02  0.89520942129E+02  0.10566000000E+00 0. -1.
     200003    1    4    4    0    0 -0.10829520520E+03 -0.31507308465E+02 -0.46694883801E+02  0.12570192572E+03  0.30000000000E+02 0. -1.
     200000    1    3    3    0    0  0.12262007143E+03  0.77873353690E+02  0.45388030393E+03  0.48714296816E+03  0.10100000000E+03 0. -1.
    -200001    1    1    2    0    0  0.38079662888E+02 -0.18094150665E+02  0.69500599077E+03  0.92767439666E+03  0.61300000000E+03 0. -1.
<mgrwt>
<rscale>  0 0.12590044E+04</rscale>
<asrwt>0</asrwt>
<pdfrwt beam="1">  1        2 0.42478236E-01 0.12590044E+04</pdfrwt>
<pdfrwt beam="2">  1       -2 0.19038466E+00 0.12590044E+04</pdfrwt>
<totfact> 0.18249026E+01</totfact>
</mgrwt>
</event>
<event>
 8    1  0.7685004E-052  0.1436739E+04  0.7818608E-02  0.8927646E-01
          2   -1    0    0  501    0  0.00000000000E+00  0.00000000000E+00  0.67710097024E+03  0.67710097024E+03  0.25500000000E-02 0.  1.
         -2   -1    0    0    0  501 -0.00000000000E+00 -0.00000000000E+00 -0.76215318460E+03  0.76215318460E+03  0.25500000000E-02 0. -1.
     200001    2    1    2    0    0 -0.10285508041E+03  0.29532767391E+02  0.31918667982E+03  0.69721006216E+03  0.61054924640E+03 0.  0.
    5000001    2    3    3    0    0  0.35243868600E+02 -0.12698710940E+03  0.39964543119E+03  0.45176271094E+03  0.16433265074E+03 0.  0.
        -13    1    4    4    0    0  0.96544607736E+02 -0.81711433624E+02  0.20935583958E+03  0.24459660341E+03  0.10566000000E+00 0. -1.
     200003    1    4    4    0    0 -0.61300739136E+02 -0.45275675773E+02  0.19028959161E+03  0.20716610753E+03  0.30000000000E+02 0. -1.
     200000    1    3    3    0    0 -0.13809894901E+03  0.15651987679E+03 -0.80458751368E+02  0.24544735122E+03  0.10100000000E+03 0. -1.
    -200001    1    1    2    0    0  0.10285508041E+03 -0.29532767391E+02 -0.40423889419E+03  0.74204409268E+03  0.61300000000E+03 0. -1.
<mgrwt>
<rscale>  0 0.14367389E+04</rscale>
<asrwt>0</asrwt>
<pdfrwt beam="1">  1        2 0.96728710E-01 0.14367389E+04</pdfrwt>
<pdfrwt beam="2">  1       -2 0.10887903E+00 0.14367389E+04</pdfrwt>
<totfact> 0.30715472E+01</totfact>
</mgrwt>
</event>
<event>
 8    1  0.7685004E-052  0.1397770E+04  0.7818608E-02  0.8955435E-01
          2   -1    0    0  501    0  0.00000000000E+00  0.00000000000E+00  0.17237766873E+04  0.17237766873E+04  0.25500000000E-02 0.  1.
         -2   -1    0    0    0  501 -0.00000000000E+00 -0.00000000000E+00 -0.28335460491E+03  0.28335460492E+03  0.25500000000E-02 0. -1.
     200001    2    1    2    0    0 -0.33331879667E+03  0.20313569498E+02  0.76614792567E+03  0.10366011795E+04  0.61322532560E+03 0.  0.
    5000001    2    3    3    0    0 -0.23811338376E+03  0.24204320731E+03  0.67069805595E+03  0.75814152250E+03  0.98284221351E+02 0.  0.
        -13    1    4    4    0    0 -0.10520000872E+03  0.92279157801E+02  0.37048409032E+03  0.39603151029E+03  0.10566000000E+00 0. -1.
     200003    1    4    4    0    0 -0.13291337503E+03  0.14976404951E+03  0.30021396563E+03  0.36211001221E+03  0.30000000000E+02 0. -1.
     200000    1    3    3    0    0 -0.95205412909E+02 -0.22172963781E+03  0.95449869725E+02  0.27845965697E+03  0.10100000000E+03 0. -1.
    -200001    1    1    2    0    0  0.33331879667E+03 -0.20313569498E+02  0.67427415670E+03  0.97053011273E+03  0.61300000000E+03 0.  1.
<mgrwt>
<rscale>  0 0.13977697E+04</rscale>
<asrwt>0</asrwt>
<pdfrwt beam="1">  1        2 0.24625380E+00 0.13977697E+04</pdfrwt>
<pdfrwt beam="2">  1       -2 0.40479231E-01 0.13977697E+04</pdfrwt>
<totfact> 0.62737950E+01</totfact>
</mgrwt>
</event>
<event>
 8    1  0.7685004E-052  0.1283971E+04  0.7818608E-02  0.9042374E-01
         -2   -1    0    0    0  501 -0.00000000000E+00  0.00000000000E+00  0.74199738572E+03  0.74199738572E+03  0.25500000000E-02 0. -1.
          2   -1    0    0  501    0  0.00000000000E+00 -0.00000000000E+00 -0.55545411998E+03  0.55545411999E+03  0.25500000000E-02 0.  1.
     200001    2    1    2    0    0  0.17551374119E+03 -0.52371457410E+02  0.13743871229E+03  0.65579108145E+03  0.61451175739E+03 0.  0.
    5000001    2    3    3    0    0 -0.18762188352E+03 -0.13522916779E+03 -0.29537123275E+01  0.24512830618E+03  0.81180435315E+02 0.  0.
        -13    1    4    4    0    0 -0.10420715240E+03 -0.48868393414E+02  0.26069111753E+02  0.11801211903E+03  0.10566000000E+00 0. -1.
     200003    1    4    4    0    0 -0.83414731122E+02 -0.86360774374E+02 -0.29022824081E+02  0.12711618715E+03  0.30000000000E+02 0. -1.
     200000    1    3    3    0    0  0.36313562471E+03  0.82857710378E+02  0.14039242462E+03  0.41066277527E+03  0.10100000000E+03 0. -1.
    -200001    1    1    2    0    0 -0.17551374119E+03  0.52371457410E+02  0.49104553451E+02  0.64166042426E+03  0.61300000000E+03 0.  1.
<mgrwt>
<rscale>  0 0.12839712E+04</rscale>
<asrwt>0</asrwt>
<pdfrwt beam="1">  1        2 0.79350588E-01 0.12839712E+04</pdfrwt>
<pdfrwt beam="2">  1       -2 0.10599963E+00 0.12839712E+04</pdfrwt>
<totfact> 0.41961568E+01</totfact>
</mgrwt>
</event>
<event>
 8    1  0.7685004E-052  0.1325682E+04  0.7818608E-02  0.9009444E-01
         -2   -1    0    0    0  501 -0.00000000000E+00  0.00000000000E+00  0.56001105728E+03  0.56001105729E+03  0.25500000000E-02 0. -1.
          2   -1    0    0  501    0  0.00000000000E+00 -0.00000000000E+00 -0.78455217334E+03  0.78455217334E+03  0.25500000000E-02 0.  1.
     200001    2    1    2    0    0 -0.23648336122E+03  0.64764195799E+02 -0.44508381674E+02  0.66023906283E+03  0.61140481095E+03 0.  0.
    5000001    2    3    3    0    0 -0.38068784381E+03  0.19134601400E+03 -0.39986434576E+02  0.44335352273E+03  0.11587449965E+03 0.  0.
        -13    1    4    4    0    0 -0.14026230650E+03  0.59310474184E+02 -0.66456982889E+02  0.16615591688E+03  0.10566000000E+00 0. -1.
     200003    1    4    4    0    0 -0.24042553730E+03  0.13203553982E+03  0.26470548314E+02  0.27719760585E+03  0.30000000000E+02 0. -1.
     200000    1    3    3    0    0  0.14420448259E+03 -0.12658181820E+03 -0.45219470982E+01  0.21688554010E+03  0.10100000000E+03 0. -1.
    -200001    1    1    2    0    0  0.23648336122E+03 -0.64764195799E+02 -0.18003273438E+03  0.68432416780E+03  0.61300000000E+03 0.  1.
<mgrwt>
<rscale>  0 0.13256815E+04</rscale>
<asrwt>0</asrwt>
<pdfrwt beam="1">  1        2 0.11207888E+00 0.13256815E+04</pdfrwt>
<pdfrwt beam="2">  1       -2 0.80001579E-01 0.13256815E+04</pdfrwt>
<totfact> 0.52802610E+01</totfact>
</mgrwt>
</event>
<event>
 8    1  0.7685004E-052  0.1574319E+04  0.7818608E-02  0.8836482E-01
          2   -1    0    0  501    0  0.00000000000E+00  0.00000000000E+00  0.11324835012E+04  0.11324835012E+04  0.25500000000E-02 0.  1.
         -2   -1    0    0    0  501 -0.00000000000E+00 -0.00000000000E+00 -0.54713403613E+03  0.54713403614E+03  0.25500000000E-02 0. -1.
     200001    2    1    2    0    0 -0.43983836861E+03  0.22425900422E+03  0.29521752133E+03  0.84075197230E+03  0.61315626275E+03 0.  0.
    5000001    2    3    3    0    0 -0.61397910328E+02 -0.27942888291E+02  0.33927917638E+03  0.37281457852E+03  0.13903180223E+03 0.  0.
        -13    1    4    4    0    0  0.19594172684E+01  0.35753625596E+02  0.20727150524E+03  0.21034174361E+03  0.10566000000E+00 0. -1.
     200003    1    4    4    0    0 -0.63357327597E+02 -0.63696513887E+02  0.13200767114E+03  0.16247283490E+03  0.30000000000E+02 0. -1.
     200000    1    3    3    0    0 -0.37844045828E+03  0.25220189251E+03 -0.44061655050E+02  0.46793739378E+03  0.10100000000E+03 0. -1.
    -200001    1    1    2    0    0  0.43983836861E+03 -0.22425900422E+03  0.29013194376E+03  0.83886556507E+03  0.61300000000E+03 0.  1.
<mgrwt>
<rscale>  0 0.15743192E+04</rscale>
<asrwt>0</asrwt>
<pdfrwt beam="1">  1        2 0.16178336E+00 0.15743192E+04</pdfrwt>
<pdfrwt beam="2">  1       -2 0.78162006E-01 0.15743192E+04</pdfrwt>
<totfact> 0.32789286E+01</totfact>
</mgrwt>
</event>
<event>
 8    1  0.7685004E-052  0.2216488E+04  0.7818608E-02  0.8511597E-01
          2   -1    0    0  501    0  0.00000000000E+00  0.00000000000E+00  0.22856133694E+04  0.22856133694E+04  0.25500000000E-02 0.  1.
         -2   -1    0    0    0  501 -0.00000000000E+00 -0.00000000000E+00 -0.53736311145E+03  0.53736311146E+03  0.25500000000E-02 0. -1.
     200001    2    1    2    0    0 -0.20889121559E+03  0.23946650745E+03  0.19792295073E+04  0.20948967038E+04  0.60849240681E+03 0.  0.
    5000001    2    3    3    0    0 -0.89893007281E+02  0.27145436748E+03  0.35715814688E+03  0.46501931735E+03  0.83143233318E+02 0.  0.
        -13    1    4    4    0    0 -0.12124930262E+02  0.71312281212E+01  0.15345090905E+01  0.14150414502E+02  0.10566000000E+00 0. -1.
     200003    1    4    4    0    0 -0.77768077018E+02  0.26432313936E+03  0.35562363779E+03  0.45086890285E+03  0.30000000000E+02 0. -1.
     200000    1    3    3    0    0 -0.11899820831E+03 -0.31987860029E+02  0.16220713604E+04  0.16298773865E+04  0.10100000000E+03 0.  1.
    -200001    1    1    2    0    0  0.20889121559E+03 -0.23946650745E+03 -0.23097924930E+03  0.72807977705E+03  0.61300000000E+03 0. -1.
<mgrwt>
<rscale>  0 0.22164876E+04</rscale>
<asrwt>0</asrwt>
<pdfrwt beam="1">  1        2 0.32651621E+00 0.22164876E+04</pdfrwt>
<pdfrwt beam="2">  1       -2 0.76766156E-01 0.22164876E+04</pdfrwt>
<totfact> 0.79370670E+00</totfact>
</mgrwt>
</event>
<event>
 8    1  0.7685004E-052  0.1908802E+04  0.7818608E-02  0.8650488E-01
          2   -1    0    0  501    0  0.00000000000E+00  0.00000000000E+00  0.22871456724E+04  0.22871456724E+04  0.25500000000E-02 0.  1.
         -2   -1    0    0    0  501 -0.00000000000E+00 -0.00000000000E+00 -0.39826095122E+03  0.39826095123E+03  0.25500000000E-02 0. -1.
     200001    2    1    2    0    0  0.47907073406E+03 -0.36761904641E+03  0.15246396205E+04  0.17510105487E+04  0.61388878274E+03 0.  0.
    5000001    2    3    3    0    0  0.41628647610E+03  0.14641040653E+02  0.10364561009E+04  0.11196716650E+04  0.76906424054E+02 0.  0.
        -13    1    4    4    0    0  0.32019233841E+03  0.30403211286E+02  0.77919450519E+03  0.84296594054E+03  0.10566000000E+00 0. -1.
     200003    1    4    4    0    0  0.96094137695E+02 -0.15762170633E+02  0.25726159567E+03  0.27670572443E+03  0.30000000000E+02 0.  1.
     200000    1    3    3    0    0  0.62784257960E+02 -0.38226008707E+03  0.48818351968E+03  0.63133888372E+03  0.10100000000E+03 0.  1.
    -200001    1    1    2    0    0 -0.47907073406E+03  0.36761904641E+03  0.36424510062E+03  0.93439607493E+03  0.61300000000E+03 0. -1.
<mgrwt>
<rscale>  0 0.19088015E+04</rscale>
<asrwt>0</asrwt>
<pdfrwt beam="1">  1        2 0.32673509E+00 0.19088015E+04</pdfrwt>
<pdfrwt beam="2">  1       -2 0.56894422E-01 0.19088015E+04</pdfrwt>
<totfact> 0.15500418E+01</totfact>
</mgrwt>
</event>
<event>
 8    1  0.7685004E-052  0.1240941E+04  0.7818608E-02  0.9077757E-01
          2   -1    0    0  501    0  0.00000000000E+00  0.00000000000E+00  0.81778015190E+03  0.81778015191E+03  0.25500000000E-02 0.  1.
         -2   -1    0    0    0  501 -0.00000000000E+00 -0.00000000000E+00 -0.47076680370E+03  0.47076680370E+03  0.25500000000E-02 0. -1.
     200001    2    1    2    0    0  0.54928758050E+02 -0.39273251755E+00  0.89252083952E+02  0.62129348649E+03  0.61239067528E+03 0.  0.
    5000001    2    3    3    0    0 -0.16150301728E+03 -0.86463679663E+01 -0.18531594751E+03  0.25728876156E+03  0.75481932649E+02 0.  0.
        -13    1    4    4    0    0 -0.14227534749E+03 -0.96266689852E+01 -0.14283785357E+03  0.20183560349E+03  0.10566000000E+00 0. -1.
     200003    1    4    4    0    0 -0.19227669786E+02  0.98030101895E+00 -0.42478093944E+02  0.55453158076E+02  0.30000000000E+02 0.  1.
     200000    1    3    3    0    0  0.21643177533E+03  0.82536354487E+01  0.27456803146E+03  0.36400472493E+03  0.10100000000E+03 0.  1.
    -200001    1    1    2    0    0 -0.54928758050E+02  0.39273251755E+00  0.25776126425E+03  0.66725346912E+03  0.61300000000E+03 0.  1.
<mgrwt>
<rscale>  0 0.12409412E+04</rscale>
<asrwt>0</asrwt>
<pdfrwt beam="1">  1        2 0.11682573E+00 0.12409412E+04</pdfrwt>
<pdfrwt beam="2">  1       -2 0.67252401E-01 0.12409412E+04</pdfrwt>
<totfact> 0.73817653E+01</totfact>
</mgrwt>
</event>
<event>
 8    1  0.7685004E-052  0.1432256E+04  0.7818608E-02  0.8930795E-01
         -2   -1    0    0    0  501 -0.00000000000E+00  0.00000000000E+00  0.75383529099E+03  0.75383529100E+03  0.25500000000E-02 0. -1.
          2   -1    0    0  501    0  0.00000000000E+00 -0.00000000000E+00 -0.68030708306E+03  0.68030708306E+03  0.25500000000E-02 0.  1.
     200001    2    1    2    0    0 -0.10646201040E+03 -0.22901309098E+03  0.30808071764E+03  0.73088919397E+03  0.61278391769E+03 0.  0.
    5000001    2    3    3    0    0 -0.18335728741E+03 -0.23870773915E+03  0.82684453989E+02  0.47202369705E+03  0.35407396413E+03 0.  0.
        -13    1    4    4    0    0 -0.23465967311E+03 -0.25371184803E+02  0.11456107177E+01  0.23603004637E+03  0.10566000000E+00 0. -1.
     200003    1    4    4    0    0  0.51302385706E+02 -0.21333655434E+03  0.81538843271E+02  0.23599365068E+03  0.30000000000E+02 0. -1.
     200000    1    3    3    0    0  0.76895277002E+02  0.96946481678E+01  0.22539626365E+03  0.25886549692E+03  0.10100000000E+03 0. -1.
    -200001    1    1    2    0    0  0.10646201040E+03  0.22901309098E+03 -0.23455250970E+03  0.70325318009E+03  0.61300000000E+03 0. -1.
<mgrwt>
<rscale>  0 0.14322562E+04</rscale>
<asrwt>0</asrwt>
<pdfrwt beam="1">  1        2 0.97186727E-01 0.14322562E+04</pdfrwt>
<pdfrwt beam="2">  1       -2 0.10769076E+00 0.14322562E+04</pdfrwt>
<totfact> 0.31368962E+01</totfact>
</mgrwt>
</event>
<event>
 8    1  0.7685004E-052  0.1305175E+04  0.7818608E-02  0.9025472E-01
          2   -1    0    0  501    0  0.00000000000E+00  0.00000000000E+00  0.24964837753E+04  0.24964837753E+04  0.25500000000E-02 0.  1.
         -2   -1    0    0    0  501 -0.00000000000E+00 -0.00000000000E+00 -0.17058805952E+03  0.17058805954E+03  0.25500000000E-02 0. -1.
     200001    2    1    2    0    0  0.10539049872E+03 -0.98268204878E+02  0.81196583094E+03  0.10274022055E+04  0.61278298268E+03 0.  0.
    5000001    2    3    3    0    0  0.29232564859E+02 -0.26751467407E+03  0.72312789530E+03  0.79819143557E+03  0.20439415637E+03 0.  0.
        -13    1    4    4    0    0  0.76831150958E+02 -0.26638472955E+03  0.54628007068E+03  0.61260572694E+03  0.10566000000E+00 0. -1.
     200003    1    4    4    0    0 -0.47598586099E+02 -0.11299445211E+01  0.17684782462E+03  0.18558570862E+03  0.30000000000E+02 0. -1.
     200000    1    3    3    0    0  0.76157933863E+02  0.16924646920E+03  0.88837935641E+02  0.22921076989E+03  0.10100000000E+03 0. -1.
    -200001    1    1    2    0    0 -0.10539049872E+03  0.98268204878E+02  0.15139298848E+04  0.16396696294E+04  0.61300000000E+03 0.  1.
<mgrwt>
<rscale>  0 0.13051748E+04</rscale>
<asrwt>0</asrwt>
<pdfrwt beam="1">  1        2 0.35664053E+00 0.13051748E+04</pdfrwt>
<pdfrwt beam="2">  1       -2 0.24369724E-01 0.13051748E+04</pdfrwt>
<totfact> 0.65415790E+01</totfact>
</mgrwt>
</event>
<event>
 8    1  0.7685004E-052  0.2003856E+04  0.7818608E-02  0.8604820E-01
         -2   -1    0    0    0  501 -0.00000000000E+00  0.00000000000E+00  0.31220441390E+03  0.31220441391E+03  0.25500000000E-02 0. -1.
          2   -1    0    0  501    0  0.00000000000E+00 -0.00000000000E+00 -0.32153914180E+04  0.32153914180E+04  0.25500000000E-02 0.  1.
     200001    2    1    2    0    0 -0.63741109846E+03  0.12417133404E+03 -0.22538146806E+04  0.24234378527E+04  0.60963840312E+03 0.  0.
    5000001    2    3    3    0    0 -0.63159775164E+03  0.20160405424E+03 -0.13015916158E+04  0.14627300998E+04  0.76672655631E+02 0.  0.
        -13    1    4    4    0    0 -0.47213949238E+03  0.13231873452E+03 -0.98510157535E+03  0.11003858745E+04  0.10566000000E+00 0. -1.
     200003    1    4    4    0    0 -0.15945825926E+03  0.69285319728E+02 -0.31649004043E+03  0.36234422538E+03  0.30000000000E+02 0.  1.
     200000    1    3    3    0    0 -0.58133468195E+01 -0.77432720207E+02 -0.95222306484E+03  0.96070775284E+03  0.10100000000E+03 0.  1.
    -200001    1    1    2    0    0  0.63741109846E+03 -0.12417133404E+03 -0.64937232350E+03  0.11041579793E+04  0.61300000000E+03 0. -1.
<mgrwt>
<rscale>  0 0.20038557E+04</rscale>
<asrwt>0</asrwt>
<pdfrwt beam="1">  1        2 0.45934161E+00 0.20038557E+04</pdfrwt>
<pdfrwt beam="2">  1       -2 0.44600632E-01 0.20038557E+04</pdfrwt>
<totfact> 0.79116624E+00</totfact>
</mgrwt>
</event>
<event>
 8    1  0.7685004E-052  0.1266775E+04  0.7818608E-02  0.9056336E-01
         -2   -1    0    0    0  501 -0.00000000000E+00  0.00000000000E+00  0.21866795776E+03  0.21866795778E+03  0.25500000000E-02 0. -1.
          2   -1    0    0  501    0  0.00000000000E+00 -0.00000000000E+00 -0.18346532663E+04  0.18346532663E+04  0.25500000000E-02 0.  1.
     200001    2    1    2    0    0  0.11727731877E+03 -0.10926086693E+03 -0.81496267997E+03  0.10319994540E+04  0.61250860957E+03 0.  0.
    5000001    2    3    3    0    0  0.19232604422E+03  0.75516491457E+02 -0.35230502635E+03  0.51816281867E+03  0.31887588070E+03 0.  0.
        -13    1    4    4    0    0 -0.32169735527E+02  0.77071858292E+02  0.16719412631E+02  0.85173429819E+02  0.10566000000E+00 0. -1.
     200003    1    4    4    0    0  0.22449577975E+03 -0.15553668349E+01 -0.36902443899E+03  0.43298938886E+03  0.30000000000E+02 0. -1.
     200000    1    3    3    0    0 -0.75048725450E+02 -0.18477735839E+03 -0.46265765362E+03  0.51383663534E+03  0.10100000000E+03 0.  1.
    -200001    1    1    2    0    0 -0.11727731877E+03  0.10926086693E+03 -0.80102262859E+03  0.10213217701E+04  0.61300000000E+03 0.  1.
<mgrwt>
<rscale>  0 0.12667752E+04</rscale>
<asrwt>0</asrwt>
<pdfrwt beam="1">  1        2 0.26209332E+00 0.12667752E+04</pdfrwt>
<pdfrwt beam="2">  1       -2 0.31238281E-01 0.12667752E+04</pdfrwt>
<totfact> 0.91194770E+01</totfact>
</mgrwt>
</event>
<event>
 8    1  0.7685004E-052  0.1339262E+04  0.7818608E-02  0.8998997E-01
          2   -1    0    0  501    0  0.00000000000E+00  0.00000000000E+00  0.90370765210E+03  0.90370765210E+03  0.25500000000E-02 0.  1.
         -2   -1    0    0    0  501 -0.00000000000E+00 -0.00000000000E+00 -0.49618428832E+03  0.49618428833E+03  0.25500000000E-02 0. -1.
     200001    2    1    2    0    0 -0.71742259067E+02  0.20579077915E+03  0.50252828755E+02  0.65766014934E+03  0.61846158224E+03 0.  0.
    5000001    2    3    3    0    0 -0.13512228057E+03  0.35608012528E+03 -0.11095377925E+03  0.40707586182E+03  0.91372478471E+02 0.  0.
        -13    1    4    4    0    0 -0.69363646830E+02  0.13895570281E+03 -0.62786214743E+01  0.15543305664E+03  0.10566000000E+00 0. -1.
     200003    1    4    4    0    0 -0.65758633743E+02  0.21712442247E+03 -0.10467515777E+03  0.25164280518E+03  0.30000000000E+02 0. -1.
     200000    1    3    3    0    0  0.63380021506E+02 -0.15028934613E+03  0.16120660800E+03  0.25058428751E+03  0.10100000000E+03 0. -1.
    -200001    1    1    2    0    0  0.71742259067E+02 -0.20579077915E+03  0.35727053502E+03  0.74223179110E+03  0.61300000000E+03 0.  1.
<mgrwt>
<rscale>  0 0.13392618E+04</rscale>
<asrwt>0</asrwt>
<pdfrwt beam="1">  1        2 0.12910109E+00 0.13392618E+04</pdfrwt>
<pdfrwt beam="2">  1       -2 0.70883470E-01 0.13392618E+04</pdfrwt>
<totfact> 0.57251662E+01</totfact>
</mgrwt>
</event>
<event>
 8    1  0.7685004E-052  0.2718332E+04  0.7818608E-02  0.8329081E-01
          2   -1    0    0  501    0  0.00000000000E+00  0.00000000000E+00  0.21441274543E+04  0.21441274543E+04  0.25500000000E-02 0.  1.
         -2   -1    0    0    0  501 -0.00000000000E+00 -0.00000000000E+00 -0.86157732715E+03  0.86157732715E+03  0.25500000000E-02 0. -1.
     200001    2    1    2    0    0 -0.67071876431E+03 -0.56158491778E+03  0.15705140843E+04  0.18993894913E+04  0.61312696061E+03 0.  0.
    5000001    2    3    3    0    0 -0.22065384998E+03 -0.40465926280E+03  0.34813119986E+03  0.58348485774E+03  0.82595438242E+02 0.  0.
        -13    1    4    4    0    0 -0.18534946805E+03 -0.28538847780E+03  0.25207369854E+03  0.42348809809E+03  0.10566000000E+00 0. -1.
     200003    1    4    4    0    0 -0.35304381925E+02 -0.11927078500E+03  0.96057501316E+02  0.15999675965E+03  0.30000000000E+02 0. -1.
     200000    1    3    3    0    0 -0.45006491433E+03 -0.15692565498E+03  0.12223828845E+04  0.13159046336E+04  0.10100000000E+03 0.  1.
    -200001    1    1    2    0    0  0.67071876431E+03  0.56158491778E+03 -0.28796395717E+03  0.11063152902E+04  0.61300000000E+03 0. -1.
<mgrwt>
<rscale>  0 0.27183315E+04</rscale>
<asrwt>0</asrwt>
<pdfrwt beam="1">  1        2 0.30630392E+00 0.27183315E+04</pdfrwt>
<pdfrwt beam="2">  1       -2 0.12308248E+00 0.27183315E+04</pdfrwt>
<totfact> 0.29718049E+00</totfact>
</mgrwt>
</event>
<event>
 8    1  0.7685004E-052  0.1562042E+04  0.7818608E-02  0.8844212E-01
         -2   -1    0    0    0  501 -0.00000000000E+00  0.00000000000E+00  0.20934506643E+03  0.20934506644E+03  0.25500000000E-02 0. -1.
          2   -1    0    0  501    0  0.00000000000E+00 -0.00000000000E+00 -0.29138197184E+04  0.29138197184E+04  0.25500000000E-02 0.  1.
     200001    2    1    2    0    0 -0.50679012660E+02  0.48021130375E+03 -0.14180309225E+04  0.16185459867E+04  0.61295036945E+03 0.  0.
    5000001    2    3    3    0    0 -0.15882031776E+03  0.20531832085E+03 -0.13979040281E+03  0.30273425244E+03  0.68754379324E+02 0.  0.
        -13    1    4    4    0    0  0.50311923576E+01  0.57800587244E+01 -0.13712059651E+00  0.76649815062E+01  0.10566000000E+00 0. -1.
     200003    1    4    4    0    0 -0.16385151012E+03  0.19953826212E+03 -0.13965328222E+03  0.29506927094E+03  0.30000000000E+02 0. -1.
     200000    1    3    3    0    0  0.10814130510E+03  0.27489298290E+03 -0.12782405197E+04  0.13158117343E+04  0.10100000000E+03 0.  1.
    -200001    1    1    2    0    0  0.50679012660E+02 -0.48021130375E+03 -0.12864437295E+04  0.15046187982E+04  0.61300000000E+03 0.  1.
<mgrwt>
<rscale>  0 0.15620420E+04</rscale>
<asrwt>0</asrwt>
<pdfrwt beam="1">  1        2 0.41625993E+00 0.15620420E+04</pdfrwt>
<pdfrwt beam="2">  1       -2 0.29906440E-01 0.15620420E+04</pdfrwt>
<totfact> 0.26272102E+01</totfact>
</mgrwt>
</event>
<event>
 8    1  0.7685004E-052  0.1458019E+04  0.7818608E-02  0.8912860E-01
          2   -1    0    0  501    0  0.00000000000E+00  0.00000000000E+00  0.19341836721E+04  0.19341836721E+04  0.25500000000E-02 0. -1.
         -2   -1    0    0    0  501 -0.00000000000E+00 -0.00000000000E+00 -0.27476975223E+03  0.27476975224E+03  0.25500000000E-02 0.  1.
     200001    2    1    2    0    0  0.88823273568E+02  0.24671594556E+03  0.38251970376E+03  0.76847219544E+03  0.61275595442E+03 0.  0.
    5000001    2    3    3    0    0 -0.73171799975E+02 -0.17145072566E+03  0.10293769058E+03  0.23044536445E+03  0.88087650736E+02 0.  0.
        -13    1    4    4    0    0 -0.55601016941E+02 -0.14008234861E+03  0.10482121799E+03  0.18358114386E+03  0.10566000000E+00 0. -1.
     200003    1    4    4    0    0 -0.17570783034E+02 -0.31368377054E+02 -0.18835274161E+01  0.46864220584E+02  0.30000000000E+02 0. -1.
     200000    1    3    3    0    0  0.16199507354E+03  0.41816667122E+03  0.27958201319E+03  0.53802683099E+03  0.10100000000E+03 0. -1.
    -200001    1    1    2    0    0 -0.88823273568E+02 -0.24671594556E+03  0.12768942161E+04  0.14404812289E+04  0.61300000000E+03 0. -1.
<mgrwt>
<rscale>  0 0.14580194E+04</rscale>
<asrwt>0</asrwt>
<pdfrwt beam="1">  1        2 0.27631197E+00 0.14580194E+04</pdfrwt>
<pdfrwt beam="2">  1       -2 0.39252819E-01 0.14580194E+04</pdfrwt>
<totfact> 0.51655976E+01</totfact>
</mgrwt>
</event>
<event>
 8    1  0.7685004E-052  0.1647861E+04  0.7818608E-02  0.8791673E-01
          2   -1    0    0  501    0  0.00000000000E+00  0.00000000000E+00  0.12672489651E+04  0.12672489651E+04  0.25500000000E-02 0.  1.
         -2   -1    0    0    0  501 -0.00000000000E+00 -0.00000000000E+00 -0.53569714030E+03  0.53569714031E+03  0.25500000000E-02 0. -1.
     200001    2    1    2    0    0  0.52553880699E+03 -0.12174347796E+03  0.48695832217E+03  0.95053335703E+03  0.61267670366E+03 0.  0.
    5000001    2    3    3    0    0  0.58792914402E+03  0.56752951299E+02  0.31003517113E+03  0.67258312625E+03  0.85817705142E+02 0.  0.
        -13    1    4    4    0    0  0.51444443415E+03  0.52326145036E+02  0.26175502260E+03  0.57957467535E+03  0.10566000000E+00 0. -1.
     200003    1    4    4    0    0  0.73484709870E+02  0.44268062632E+01  0.48280148530E+02  0.93008450909E+02  0.30000000000E+02 0.  1.
     200000    1    3    3    0    0 -0.62390337031E+02 -0.17849642926E+03  0.17692315104E+03  0.27795023077E+03  0.10100000000E+03 0.  1.
    -200001    1    1    2    0    0 -0.52553880699E+03  0.12174347796E+03  0.24459350262E+03  0.85241274838E+03  0.61300000000E+03 0.  1.
<mgrwt>
<rscale>  0 0.16478612E+04</rscale>
<asrwt>0</asrwt>
<pdfrwt beam="1">  1        2 0.18103556E+00 0.16478612E+04</pdfrwt>
<pdfrwt beam="2">  1       -2 0.76528165E-01 0.16478612E+04</pdfrwt>
<totfact> 0.28631382E+01</totfact>
</mgrwt>
</event>
<event>
 8    1  0.7685004E-052  0.1856054E+04  0.7818608E-02  0.8677046E-01
          2   -1    0    0  501    0  0.00000000000E+00  0.00000000000E+00  0.11457153587E+04  0.11457153587E+04  0.25500000000E-02 0.  1.
         -2   -1    0    0    0  501 -0.00000000000E+00 -0.00000000000E+00 -0.75169989899E+03  0.75169989899E+03  0.25500000000E-02 0. -1.
     200001    2    1    2    0    0 -0.34171279533E+03 -0.66890867117E+02 -0.41964863028E+03  0.82081864154E+03  0.61351140724E+03 0.  0.
    5000001    2    3    3    0    0 -0.32189236878E+03 -0.10948642385E+03 -0.54677567771E+03  0.65179344534E+03  0.10133646711E+03 0.  0.
        -13    1    4    4    0    0 -0.35412953589E+02 -0.45226015676E+02 -0.11837093145E+03  0.13157187523E+03  0.10566000000E+00 0. -1.
     200003    1    4    4    0    0 -0.28647941519E+03 -0.64260408172E+02 -0.42840474626E+03  0.52022157011E+03  0.30000000000E+02 0. -1.
     200000    1    3    3    0    0 -0.19820426548E+02  0.42595556731E+02  0.12712704743E+03  0.16902519620E+03  0.10100000000E+03 0.  1.
    -200001    1    1    2    0    0  0.34171279533E+03  0.66890867117E+02  0.81366409002E+03  0.10765966162E+04  0.61300000000E+03 0.  1.
<mgrwt>
<rscale>  0 0.18560540E+04</rscale>
<asrwt>0</asrwt>
<pdfrwt beam="1">  1        2 0.16367362E+00 0.18560540E+04</pdfrwt>
<pdfrwt beam="2">  1       -2 0.10738570E+00 0.18560540E+04</pdfrwt>
<totfact> 0.15085670E+01</totfact>
</mgrwt>
</event>
<event>
 8    1  0.7685004E-052  0.1605568E+04  0.7818608E-02  0.8817135E-01
          2   -1    0    0  501    0  0.00000000000E+00  0.00000000000E+00  0.98027175188E+03  0.98027175188E+03  0.25500000000E-02 0. -1.
         -2   -1    0    0    0  501 -0.00000000000E+00 -0.00000000000E+00 -0.65743175678E+03  0.65743175678E+03  0.25500000000E-02 0.  1.
     200001    2    1    2    0    0 -0.13582016801E+03 -0.51421494656E+02 -0.34693698060E+03  0.71821371246E+03  0.61186140596E+03 0.  0.
    5000001    2    3    3    0    0 -0.13476089577E+03 -0.21230979477E+03 -0.43456726557E+03  0.50900990271E+03  0.83704389151E+02 0.  0.
        -13    1    4    4    0    0 -0.28164445632E+02 -0.25589937495E+02 -0.12677141189E+03  0.13235967262E+03  0.10566000000E+00 0. -1.
     200003    1    4    4    0    0 -0.10659645014E+03 -0.18671985727E+03 -0.30779585368E+03  0.37665023009E+03  0.30000000000E+02 0. -1.
     200000    1    3    3    0    0 -0.10592722400E+01  0.16088830011E+03  0.87630284976E+02  0.20920380975E+03  0.10100000000E+03 0. -1.
    -200001    1    1    2    0    0  0.13582016801E+03  0.51421494656E+02  0.66977697570E+03  0.91948979620E+03  0.61300000000E+03 0. -1.
<mgrwt>
<rscale>  0 0.16055675E+04</rscale>
<asrwt>0</asrwt>
<pdfrwt beam="1">  1        2 0.14003882E+00 0.16055675E+04</pdfrwt>
<pdfrwt beam="2">  1       -2 0.93918822E-01 0.16055675E+04</pdfrwt>
<totfact> 0.26576541E+01</totfact>
</mgrwt>
</event>
<event>
 8    1  0.7685004E-052  0.1411059E+04  0.7818608E-02  0.8945852E-01
          2   -1    0    0  501    0  0.00000000000E+00  0.00000000000E+00  0.11882333891E+04  0.11882333891E+04  0.25500000000E-02 0.  1.
         -2   -1    0    0    0  501 -0.00000000000E+00 -0.00000000000E+00 -0.41891752002E+03  0.41891752003E+03  0.25500000000E-02 0. -1.
     200001    2    1    2    0    0 -0.73932887477E+02 -0.31832943889E+03  0.24254414628E+03  0.73533834241E+03  0.61245008891E+03 0.  0.
    5000001    2    3    3    0    0  0.83462471101E+02 -0.31613903475E+03 -0.91704805497E+02  0.35232207835E+03  0.93868003932E+02 0.  0.
        -13    1    4    4    0    0  0.91643143395E+02 -0.26386718721E+03 -0.73571366290E+02  0.28885483434E+03  0.10566000000E+00 0. -1.
     200003    1    4    4    0    0 -0.81806722941E+01 -0.52271847539E+02 -0.18133439207E+02  0.63467244007E+02  0.30000000000E+02 0.  1.
     200000    1    3    3    0    0 -0.15739535858E+03 -0.21904041402E+01  0.33424895178E+03  0.38301626406E+03  0.10100000000E+03 0.  1.
    -200001    1    1    2    0    0  0.73932887477E+02  0.31832943889E+03  0.52677172275E+03  0.87181256667E+03  0.61300000000E+03 0.  1.
<mgrwt>
<rscale>  0 0.14110589E+04</rscale>
<asrwt>0</asrwt>
<pdfrwt beam="1">  1        2 0.16974763E+00 0.14110589E+04</pdfrwt>
<pdfrwt beam="2">  1       -2 0.59845360E-01 0.14110589E+04</pdfrwt>
<totfact> 0.55038504E+01</totfact>
</mgrwt>
</event>
<event>
 8    1  0.7685004E-052  0.1308770E+04  0.7818608E-02  0.9022639E-01
          2   -1    0    0  501    0  0.00000000000E+00  0.00000000000E+00  0.13093939787E+04  0.13093939787E+04  0.25500000000E-02 0.  1.
         -2   -1    0    0    0  501 -0.00000000000E+00 -0.00000000000E+00 -0.32703649851E+03  0.32703649852E+03  0.25500000000E-02 0. -1.
     200001    2    1    2    0    0  0.20936730281E+03  0.89619874455E+01  0.37143461219E+03  0.74597512440E+03  0.61204593814E+03 0.  0.
    5000001    2    3    3    0    0  0.20534411272E+03  0.58228092037E+02  0.51422165398E+03  0.56422674222E+03  0.91494217747E+02 0.  0.
        -13    1    4    4    0    0  0.13616863738E+03  0.15110881933E+01  0.33655820177E+03  0.36306420305E+03  0.10566000000E+00 0. -1.
     200003    1    4    4    0    0  0.69175475333E+02  0.56717003844E+02  0.17766345222E+03  0.20116253917E+03  0.30000000000E+02 0. -1.
     200000    1    3    3    0    0  0.40231900985E+01 -0.49266104592E+02 -0.14278704180E+03  0.18174838218E+03  0.10100000000E+03 0. -1.
    -200001    1    1    2    0    0 -0.20936730281E+03 -0.89619874455E+01  0.61092286799E+03  0.89045535281E+03  0.61300000000E+03 0.  1.
<mgrwt>
<rscale>  0 0.13087698E+04</rscale>
<asrwt>0</asrwt>
<pdfrwt beam="1">  1        2 0.18705629E+00 0.13087698E+04</pdfrwt>
<pdfrwt beam="2">  1       -2 0.46719499E-01 0.13087698E+04</pdfrwt>
<totfact> 0.78936864E+01</totfact>
</mgrwt>
</event>
<event>
 8    1  0.7685004E-052  0.1913602E+04  0.7818608E-02  0.8648115E-01
         -2   -1    0    0    0  501 -0.00000000000E+00  0.00000000000E+00  0.62191526131E+03  0.62191526131E+03  0.25500000000E-02 0. -1.
          2   -1    0    0  501    0  0.00000000000E+00 -0.00000000000E+00 -0.14720147371E+04  0.14720147371E+04  0.25500000000E-02 0.  1.
     200001    2    1    2    0    0 -0.40153865083E+03 -0.24797348531E+03 -0.10405407581E+04  0.12972110897E+04  0.61425353420E+03 0.  0.
    5000001    2    3    3    0    0 -0.34942830309E+03  0.45847515030E+02 -0.22850891140E+03  0.42620994805E+03  0.72363413372E+02 0.  0.
        -13    1    4    4    0    0 -0.18286582551E+02  0.37505896441E+01 -0.33776864021E+02  0.38592145978E+02  0.10566000000E+00 0. -1.
     200003    1    4    4    0    0 -0.33114172054E+03  0.42096925386E+02 -0.19473204738E+03  0.38761780207E+03  0.30000000000E+02 0. -1.
     200000    1    3    3    0    0 -0.52110347744E+02 -0.29382100034E+03 -0.81203184673E+03  0.87100114161E+03  0.10100000000E+03 0.  1.
    -200001    1    1    2    0    0  0.40153865083E+03  0.24797348531E+03  0.19044128235E+03  0.79671890874E+03  0.61300000000E+03 0. -1.
<mgrwt>
<rscale>  0 0.19136023E+04</rscale>
<asrwt>0</asrwt>
<pdfrwt beam="1">  1        2 0.21028782E+00 0.19136023E+04</pdfrwt>
<pdfrwt beam="2">  1       -2 0.88845038E-01 0.19136023E+04</pdfrwt>
<totfact> 0.15469007E+01</totfact>
</mgrwt>
</event>
<event>
 8    1  0.7685004E-052  0.1799496E+04  0.7818608E-02  0.8706568E-01
          2   -1    0    0  501    0  0.00000000000E+00  0.00000000000E+00  0.14311354943E+04  0.14311354943E+04  0.25500000000E-02 0.  1.
         -2   -1    0    0    0  501 -0.00000000000E+00 -0.00000000000E+00 -0.56566724815E+03  0.56566724815E+03  0.25500000000E-02 0. -1.
     200001    2    1    2    0    0  0.14674465396E+03 -0.59732584023E+03  0.68735710909E+03  0.11103351852E+04  0.61810377385E+03 0.  0.
    5000001    2    3    3    0    0  0.19157192003E+03 -0.38656706477E+03  0.72487130893E+03  0.86942636345E+03  0.21054664766E+03 0.  0.
        -13    1    4    4    0    0  0.11076874848E+03 -0.15846954485E+03  0.14912505399E+03  0.24417330971E+03  0.10566000000E+00 0. -1.
     200003    1    4    4    0    0  0.80803171547E+02 -0.22809751992E+03  0.57574625495E+03  0.62525305374E+03  0.30000000000E+02 0. -1.
     200000    1    3    3    0    0 -0.44827266070E+02 -0.21075877546E+03 -0.37514199838E+02  0.24090882177E+03  0.10100000000E+03 0. -1.
    -200001    1    1    2    0    0 -0.14674465396E+03  0.59732584023E+03  0.17811113704E+03  0.88646755722E+03  0.61300000000E+03 0. -1.
<mgrwt>
<rscale>  0 0.17994960E+04</rscale>
<asrwt>0</asrwt>
<pdfrwt beam="1">  1        2 0.20444793E+00 0.17994960E+04</pdfrwt>
<pdfrwt beam="2">  1       -2 0.80809606E-01 0.17994960E+04</pdfrwt>
<totfact> 0.20368664E+01</totfact>
</mgrwt>
</event>
<event>
 8    1  0.7685004E-052  0.1502496E+04  0.7818608E-02  0.8882795E-01
         -2   -1    0    0    0  501 -0.00000000000E+00  0.00000000000E+00  0.74511697303E+03  0.74511697303E+03  0.25500000000E-02 0. -1.
          2   -1    0    0  501    0  0.00000000000E+00 -0.00000000000E+00 -0.75742957251E+03  0.75742957251E+03  0.25500000000E-02 0.  1.
     200001    2    1    2    0    0 -0.66373631331E+02 -0.57272312010E+02  0.41899601033E+03  0.74790643691E+03  0.61328688640E+03 0.  0.
    5000001    2    3    3    0    0  0.20155780085E+03 -0.98053274136E+02  0.38163202298E+03  0.45627755156E+03  0.11093336488E+03 0.  0.
        -13    1    4    4    0    0  0.97131340402E+01 -0.48630208798E+02  0.69873313012E+02  0.85682747481E+02  0.10566000000E+00 0. -1.
     200003    1    4    4    0    0  0.19184466681E+03 -0.49423065338E+02  0.31175870996E+03  0.37059480408E+03  0.30000000000E+02 0. -1.
     200000    1    3    3    0    0 -0.26793143218E+03  0.40780962126E+02  0.37363987357E+02  0.29162888535E+03  0.10100000000E+03 0.  1.
    -200001    1    1    2    0    0  0.66373631331E+02  0.57272312010E+02 -0.43130860982E+03  0.75464010864E+03  0.61300000000E+03 0.  1.
<mgrwt>
<rscale>  0 0.15024961E+04</rscale>
<asrwt>0</asrwt>
<pdfrwt beam="1">  1        2 0.10820422E+00 0.15024961E+04</pdfrwt>
<pdfrwt beam="2">  1       -2 0.10644528E+00 0.15024961E+04</pdfrwt>
<totfact> 0.28074926E+01</totfact>
</mgrwt>
</event>
<event>
 8    1  0.7685004E-052  0.1801492E+04  0.7818608E-02  0.8705507E-01
          2   -1    0    0  501    0  0.00000000000E+00  0.00000000000E+00  0.41713495172E+04  0.41713495172E+04  0.25500000000E-02 0.  1.
         -2   -1    0    0    0  501 -0.00000000000E+00 -0.00000000000E+00 -0.19450374268E+03  0.19450374270E+03  0.25500000000E-02 0. -1.
     200001    2    1    2    0    0  0.35965914502E+03  0.54946800376E+03  0.21418257977E+04  0.23227338060E+04  0.61351837613E+03 0.  0.
    5000001    2    3    3    0    0  0.57575300822E+02  0.26975558282E+03  0.16191703031E+04  0.16497825050E+04  0.15487689892E+03 0.  0.
        -13    1    4    4    0    0  0.29707661592E+02 -0.43247973694E+00  0.36388927249E+03  0.36510018624E+03  0.10566000000E+00 0. -1.
     200003    1    4    4    0    0  0.27867639230E+02  0.27018806256E+03  0.12552810306E+04  0.12846823188E+04  0.30000000000E+02 0. -1.
     200000    1    3    3    0    0  0.30208384420E+03  0.27971242094E+03  0.52265549467E+03  0.67295130095E+03  0.10100000000E+03 0. -1.
    -200001    1    1    2    0    0 -0.35965914502E+03 -0.54946800376E+03  0.18350199767E+04  0.20431194539E+04  0.61300000000E+03 0. -1.
<mgrwt>
<rscale>  0 0.18014917E+04</rscale>
<asrwt>0</asrwt>
<pdfrwt beam="1">  1        2 0.59590701E+00 0.18014917E+04</pdfrwt>
<pdfrwt beam="2">  1       -2 0.27786252E-01 0.18014917E+04</pdfrwt>
<totfact> 0.48841664E+00</totfact>
</mgrwt>
</event>
<event>
 8    1  0.7685004E-052  0.1880423E+04  0.7818608E-02  0.8664663E-01
          2   -1    0    0  501    0  0.00000000000E+00  0.00000000000E+00  0.14602979881E+04  0.14602979881E+04  0.25500000000E-02 0.  1.
         -2   -1    0    0    0  501 -0.00000000000E+00 -0.00000000000E+00 -0.60535405875E+03  0.60535405876E+03  0.25500000000E-02 0. -1.
     200001    2    1    2    0    0  0.12911992736E+03 -0.63965172861E+03  0.74251866115E+03  0.11633024857E+04  0.61328005155E+03 0.  0.
    5000001    2    3    3    0    0 -0.10095381587E+03 -0.54733861761E+03  0.68680839578E+03  0.88987923975E+03  0.10201986839E+03 0.  0.
        -13    1    4    4    0    0 -0.99539839989E+02 -0.48334257841E+03  0.62190662439E+03  0.79391188962E+03  0.10566000000E+00 0. -1.
     200003    1    4    4    0    0 -0.14139758803E+01 -0.63996039196E+02  0.64901771396E+02  0.95967350129E+02  0.30000000000E+02 0.  1.
     200000    1    3    3    0    0  0.23007374323E+03 -0.92313110998E+02  0.55710265365E+02  0.27342324600E+03  0.10100000000E+03 0. -1.
    -200001    1    1    2    0    0 -0.12911992736E+03  0.63965172861E+03  0.11242526822E+03  0.90234956114E+03  0.61300000000E+03 0. -1.
<mgrwt>
<rscale>  0 0.18804226E+04</rscale>
<asrwt>0</asrwt>
<pdfrwt beam="1">  1        2 0.20861400E+00 0.18804226E+04</pdfrwt>
<pdfrwt beam="2">  1       -2 0.86479152E-01 0.18804226E+04</pdfrwt>
<totfact> 0.16739235E+01</totfact>
</mgrwt>
</event>
<event>
 8    1  0.7685004E-052  0.1698778E+04  0.7818608E-02  0.8762061E-01
         -2   -1    0    0    0  501 -0.00000000000E+00  0.00000000000E+00  0.52666212178E+03  0.52666212179E+03  0.25500000000E-02 0. -1.
          2   -1    0    0  501    0  0.00000000000E+00 -0.00000000000E+00 -0.13698763850E+04  0.13698763850E+04  0.25500000000E-02 0.  1.
     200001    2    1    2    0    0  0.36943921265E+03  0.76199687372E+02  0.80982411801E+02  0.72512900609E+03  0.61397247516E+03 0.  0.
    5000001    2    3    3    0    0  0.16992651080E+03  0.43385236792E+02  0.33433699519E+03  0.38561221521E+03  0.78474558471E+02 0.  0.
        -13    1    4    4    0    0  0.13996480086E+03  0.49275787080E+02  0.27451112565E+03  0.31204906336E+03  0.10566000000E+00 0. -1.
     200003    1    4    4    0    0  0.29961709938E+02 -0.58905502886E+01  0.59825869534E+02  0.73563151854E+02  0.30000000000E+02 0.  1.
     200000    1    3    3    0    0  0.19951270185E+03  0.32814450580E+02 -0.25335458339E+03  0.33951679088E+03  0.10100000000E+03 0.  1.
    -200001    1    1    2    0    0 -0.36943921265E+03 -0.76199687372E+02 -0.92419667500E+03  0.11714095007E+04  0.61300000000E+03 0.  1.
<mgrwt>
<rscale>  0 0.16987784E+04</rscale>
<asrwt>0</asrwt>
<pdfrwt beam="1">  1        2 0.19569663E+00 0.16987784E+04</pdfrwt>
<pdfrwt beam="2">  1       -2 0.75237446E-01 0.16987784E+04</pdfrwt>
<totfact> 0.25996093E+01</totfact>
</mgrwt>
</event>
<event>
 8    1  0.7685004E-052  0.1511454E+04  0.7818608E-02  0.8876872E-01
         -2   -1    0    0    0  501 -0.00000000000E+00  0.00000000000E+00  0.21893796895E+04  0.21893796895E+04  0.25500000000E-02 0. -1.
          2   -1    0    0  501    0  0.00000000000E+00 -0.00000000000E+00 -0.26086083423E+03  0.26086083424E+03  0.25500000000E-02 0.  1.
     200001    2    1    2    0    0 -0.24573349059E+03  0.34235006580E+03  0.74784934768E+03  0.10547699930E+04  0.61292134522E+03 0.  0.
    5000001    2    3    3    0    0  0.76743348376E+02  0.13616172764E+03  0.61041923859E+03  0.63573183564E+03  0.84343123155E+02 0.  0.
        -13    1    4    4    0    0  0.28412951619E+02  0.11229227218E+03  0.40750866779E+03  0.42365100696E+03  0.10566000000E+00 0. -1.
     200003    1    4    4    0    0  0.48330396757E+02  0.23869455458E+02  0.20291057080E+03  0.21208082868E+03  0.30000000000E+02 0. -1.
     200000    1    3    3    0    0 -0.32247683896E+03  0.20618833816E+03  0.13743010910E+03  0.41903815739E+03  0.10100000000E+03 0.  1.
    -200001    1    1    2    0    0  0.24573349059E+03 -0.34235006580E+03  0.11806695076E+04  0.13954705307E+04  0.61300000000E+03 0.  1.
<mgrwt>
<rscale>  0 0.15114542E+04</rscale>
<asrwt>0</asrwt>
<pdfrwt beam="1">  1        2 0.37265835E-01 0.15114542E+04</pdfrwt>
<pdfrwt beam="2">  1       -2 0.31276852E+00 0.15114542E+04</pdfrwt>
<totfact> 0.35950483E+00</totfact>
</mgrwt>
</event>
<event>
 8    1  0.7685004E-052  0.1407928E+04  0.7818608E-02  0.8948100E-01
         -2   -1    0    0    0  501 -0.00000000000E+00  0.00000000000E+00  0.15568860883E+03  0.15568860885E+03  0.25500000000E-02 0. -1.
          2   -1    0    0  501    0  0.00000000000E+00 -0.00000000000E+00 -0.31830528525E+04  0.31830528525E+04  0.25500000000E-02 0.  1.
     200001    2    1    2    0    0 -0.33855160322E+03 -0.42393482965E+02 -0.16548246315E+04  0.17972978580E+04  0.61271578549E+03 0.  0.
    5000001    2    3    3    0    0 -0.10839147080E+03 -0.20487368610E+03 -0.13411602085E+04  0.13637544654E+04  0.85986039178E+02 0.  0.
        -13    1    4    4    0    0 -0.14602002800E+02  0.25221634126E+01 -0.43856934642E+02  0.46292782097E+02  0.10566000000E+00 0. -1.
     200003    1    4    4    0    0 -0.93789467996E+02 -0.20739584951E+03 -0.12973032738E+04  0.13174616833E+04  0.30000000000E+02 0. -1.
     200000    1    3    3    0    0 -0.23016013243E+03  0.16248020313E+03 -0.31366442308E+03  0.43354339261E+03  0.10100000000E+03 0. -1.
    -200001    1    1    2    0    0  0.33855160322E+03  0.42393482965E+02 -0.13725396121E+04  0.15414436033E+04  0.61300000000E+03 0.  1.
<mgrwt>
<rscale>  0 0.14079277E+04</rscale>
<asrwt>0</asrwt>
<pdfrwt beam="1">  1        2 0.45472180E+00 0.14079277E+04</pdfrwt>
<pdfrwt beam="2">  1       -2 0.22241232E-01 0.14079277E+04</pdfrwt>
<totfact> 0.32269100E+01</totfact>
</mgrwt>
</event>
<event>
 8    1  0.7685004E-052  0.1255740E+04  0.7818608E-02  0.9065420E-01
          2   -1    0    0  501    0  0.00000000000E+00  0.00000000000E+00  0.43445704858E+04  0.43445704858E+04  0.25500000000E-02 0.  1.
         -2   -1    0    0    0  501 -0.00000000000E+00 -0.00000000000E+00 -0.90738647573E+02  0.90738647609E+02  0.25500000000E-02 0. -1.
     200001    2    1    2    0    0 -0.43713548735E+02 -0.12554467947E+03  0.20426273765E+04  0.21368604147E+04  0.61332983939E+03 0.  0.
    5000001    2    3    3    0    0  0.10551720002E+03 -0.81157003690E+00  0.10428141446E+03  0.18616458156E+03  0.11246377141E+03 0.  0.
        -13    1    4    4    0    0 -0.21572288979E+02 -0.89624396551E+01  0.14744935826E+02  0.27624504935E+02  0.10566000000E+00 0. -1.
     200003    1    4    4    0    0  0.12708948900E+03  0.81508696182E+01  0.89536478634E+02  0.15854007662E+03  0.30000000000E+02 0. -1.
     200000    1    3    3    0    0 -0.14923074875E+03 -0.12473310943E+03  0.19383459621E+04  0.19506958332E+04  0.10100000000E+03 0.  1.
    -200001    1    1    2    0    0  0.43713548735E+02  0.12554467947E+03  0.22112044617E+04  0.22984487187E+04  0.61300000000E+03 0. -1.
<mgrwt>
<rscale>  0 0.12557395E+04</rscale>
<asrwt>0</asrwt>
<pdfrwt beam="1">  1        2 0.62065317E+00 0.12557395E+04</pdfrwt>
<pdfrwt beam="2">  1       -2 0.12962659E-01 0.12557395E+04</pdfrwt>
<totfact> 0.14721982E+01</totfact>
</mgrwt>
</event>
<event>
 8    1  0.7685004E-052  0.1305534E+04  0.7818608E-02  0.9025188E-01
         -2   -1    0    0    0  501 -0.00000000000E+00  0.00000000000E+00  0.33193647337E+03  0.33193647338E+03  0.25500000000E-02 0. -1.
          2   -1    0    0  501    0  0.00000000000E+00 -0.00000000000E+00 -0.12836929544E+04  0.12836929544E+04  0.25500000000E-02 0.  1.
     200001    2    1    2    0    0  0.50564622418E+02 -0.89299352320E+02 -0.72435907675E+03  0.95380638884E+03  0.61197990159E+03 0.  0.
    5000001    2    3    3    0    0 -0.12975340633E+03 -0.67052604511E+02 -0.72465032404E+03  0.74593480804E+03  0.99843114342E+02 0.  0.
        -13    1    4    4    0    0 -0.62820210234E+02  0.14719517119E+02 -0.33181811909E+03  0.33803301365E+03  0.10566000000E+00 0. -1.
     200003    1    4    4    0    0 -0.66933196093E+02 -0.81772121630E+02 -0.39283220496E+03  0.40790179439E+03  0.30000000000E+02 0.  1.
     200000    1    3    3    0    0  0.18031802875E+03 -0.22246747810E+02  0.29124729399E+00  0.20787158080E+03  0.10100000000E+03 0. -1.
    -200001    1    1    2    0    0 -0.50564622418E+02  0.89299352320E+02 -0.22739740424E+03  0.66182303890E+03  0.61300000000E+03 0. -1.
<mgrwt>
<rscale>  0 0.13055336E+04</rscale>
<asrwt>0</asrwt>
<pdfrwt beam="1">  1        2 0.18338471E+00 0.13055336E+04</pdfrwt>
<pdfrwt beam="2">  1       -2 0.47419497E-01 0.13055336E+04</pdfrwt>
<totfact> 0.79181154E+01</totfact>
</mgrwt>
</event>
<event>
 8    1  0.7685004E-052  0.1350645E+04  0.7818608E-02  0.8990340E-01
         -2   -1    0    0    0  501 -0.00000000000E+00  0.00000000000E+00  0.44379195992E+03  0.44379195993E+03  0.25500000000E-02 0. -1.
          2   -1    0    0  501    0  0.00000000000E+00 -0.00000000000E+00 -0.10276448310E+04  0.10276448310E+04  0.25500000000E-02 0.  1.
     200001    2    1    2    0    0  0.77194424602E+02  0.24896141869E+03 -0.16355879431E+03  0.68380941828E+03  0.61065790271E+03 0.  0.
    5000001    2    3    3    0    0 -0.21189177367E+02 -0.17651294443E+03  0.42988443086E+02  0.19028076856E+03  0.52468694051E+02 0.  0.
        -13    1    4    4    0    0 -0.12836046418E+02 -0.11570306912E+03  0.19493499042E+02  0.11803377466E+03  0.10566000000E+00 0. -1.
     200003    1    4    4    0    0 -0.83531309497E+01 -0.60809875313E+02  0.23494944044E+02  0.72246993902E+02  0.30000000000E+02 0.  1.
     200000    1    3    3    0    0  0.98383601969E+02  0.42547436313E+03 -0.20654723740E+03  0.49352864972E+03  0.10100000000E+03 0.  1.
    -200001    1    1    2    0    0 -0.77194424602E+02 -0.24896141869E+03 -0.42029407677E+03  0.78762737266E+03  0.61300000000E+03 0.  1.
<mgrwt>
<rscale>  0 0.13506451E+04</rscale>
<asrwt>0</asrwt>
<pdfrwt beam="1">  1        2 0.14680640E+00 0.13506451E+04</pdfrwt>
<pdfrwt beam="2">  1       -2 0.63398851E-01 0.13506451E+04</pdfrwt>
<totfact> 0.60829283E+01</totfact>
</mgrwt>
</event>
<event>
 8    1  0.7685004E-052  0.1714839E+04  0.7818608E-02  0.8752946E-01
          2   -1    0    0  501    0  0.00000000000E+00  0.00000000000E+00  0.48948234946E+03  0.48948234947E+03  0.25500000000E-02 0. -1.
         -2   -1    0    0    0  501 -0.00000000000E+00 -0.00000000000E+00 -0.15019306499E+04  0.15019306499E+04  0.25500000000E-02 0.  1.
     200001    2    1    2    0    0  0.34496207697E+03  0.37864917211E+03 -0.86790162652E+03  0.11796022018E+04  0.61305309003E+03 0.  0.
    5000001    2    3    3    0    0  0.30119214476E+03 -0.65883748042E+02 -0.50241582390E+03  0.59367883145E+03  0.70537355205E+02 0.  0.
        -13    1    4    4    0    0  0.13908596490E+03 -0.57514791783E+02 -0.21994958649E+03  0.26651583192E+03  0.10566000000E+00 0. -1.
     200003    1    4    4    0    0  0.16210617987E+03 -0.83689562596E+01 -0.28246623741E+03  0.32716299952E+03  0.30000000000E+02 0. -1.
     200000    1    3    3    0    0  0.43769932207E+02  0.44453292015E+03 -0.36548580262E+03  0.58592337040E+03  0.10100000000E+03 0.  1.
    -200001    1    1    2    0    0 -0.34496207697E+03 -0.37864917211E+03 -0.14454667395E+03  0.81181079756E+03  0.61300000000E+03 0. -1.
<mgrwt>
<rscale>  0 0.17148394E+04</rscale>
<asrwt>0</asrwt>
<pdfrwt beam="1">  1        2 0.69926051E-01 0.17148394E+04</pdfrwt>
<pdfrwt beam="2">  1       -2 0.21456152E+00 0.17148394E+04</pdfrwt>
<totfact> 0.70124771E+00</totfact>
</mgrwt>
</event>
<event>
 8    1  0.7685004E-052  0.1368273E+04  0.7818608E-02  0.8977109E-01
          2   -1    0    0  501    0  0.00000000000E+00  0.00000000000E+00  0.93707818579E+03  0.93707818579E+03  0.25500000000E-02 0.  1.
         -2   -1    0    0    0  501 -0.00000000000E+00 -0.00000000000E+00 -0.49947069475E+03  0.49947069476E+03  0.25500000000E-02 0. -1.
     200001    2    1    2    0    0 -0.12602537818E+03 -0.14912256251E+03 -0.25981155174E+02  0.64357765315E+03  0.61269669545E+03 0.  0.
    5000001    2    3    3    0    0 -0.14461269057E+03 -0.28361713905E+03 -0.21088615820E+03  0.39292821779E+03  0.92564036107E+02 0.  0.
        -13    1    4    4    0    0  0.91621343618E+01 -0.35410541098E+02 -0.12499286507E+02  0.38653518005E+02  0.10566000000E+00 0. -1.
     200003    1    4    4    0    0 -0.15377482493E+03 -0.24820659796E+03 -0.19838687169E+03  0.35427469979E+03  0.30000000000E+02 0. -1.
     200000    1    3    3    0    0  0.18587312393E+02  0.13449457654E+03  0.18490500302E+03  0.25064943535E+03  0.10100000000E+03 0.  1.
    -200001    1    1    2    0    0  0.12602537818E+03  0.14912256251E+03  0.46358864621E+03  0.79297122740E+03  0.61300000000E+03 0.  1.
<mgrwt>
<rscale>  0 0.13682735E+04</rscale>
<asrwt>0</asrwt>
<pdfrwt beam="1">  1        2 0.13386831E+00 0.13682735E+04</pdfrwt>
<pdfrwt beam="2">  1       -2 0.71352956E-01 0.13682735E+04</pdfrwt>
<totfact> 0.53585857E+01</totfact>
</mgrwt>
</event>
<event>
 8    1  0.7685004E-052  0.2048385E+04  0.7818608E-02  0.8584327E-01
          2   -1    0    0  501    0  0.00000000000E+00  0.00000000000E+00  0.42326965201E+04  0.42326965201E+04  0.25500000000E-02 0.  1.
         -2   -1    0    0    0  501 -0.00000000000E+00 -0.00000000000E+00 -0.24782562369E+03  0.24782562371E+03  0.25500000000E-02 0. -1.
     200001    2    1    2    0    0 -0.80612288509E+03  0.65085315708E+02  0.16901528592E+04  0.19714246816E+04  0.61304843519E+03 0.  0.
    5000001    2    3    3    0    0 -0.52395501468E+03 -0.10148507253E+03  0.12566012429E+04  0.14186748239E+04  0.38569870989E+03 0.  0.
        -13    1    4    4    0    0 -0.56981491588E+03 -0.11428755235E+03  0.10057340336E+04  0.11615729166E+04  0.10566000000E+00 0. -1.
     200003    1    4    4    0    0  0.45859901203E+02  0.12802479819E+02  0.25086720932E+03  0.25710190730E+03  0.30000000000E+02 0. -1.
     200000    1    3    3    0    0 -0.28216787041E+03  0.16657038824E+03  0.43355161623E+03  0.55274985777E+03  0.10100000000E+03 0. -1.
    -200001    1    1    2    0    0  0.80612288509E+03 -0.65085315708E+02  0.22947180373E+04  0.25090974622E+04  0.61300000000E+03 0. -1.
<mgrwt>
<rscale>  0 0.20483854E+04</rscale>
<asrwt>0</asrwt>
<pdfrwt beam="1">  1        2 0.60467101E+00 0.20483854E+04</pdfrwt>
<pdfrwt beam="2">  1       -2 0.35403656E-01 0.20483854E+04</pdfrwt>
<totfact> 0.27295143E+00</totfact>
</mgrwt>
</event>
<event>
 8    1  0.7685004E-052  0.1549010E+04  0.7818608E-02  0.8852501E-01
          2   -1    0    0  501    0  0.00000000000E+00  0.00000000000E+00  0.42019614118E+04  0.42019614118E+04  0.25500000000E-02 0.  1.
         -2   -1    0    0    0  501 -0.00000000000E+00 -0.00000000000E+00 -0.14275660866E+03  0.14275660868E+03  0.25500000000E-02 0. -1.
     200001    2    1    2    0    0  0.44981856220E+03 -0.10253824705E+03  0.23314085395E+04  0.24542419536E+04  0.61236178644E+03 0.  0.
    5000001    2    3    3    0    0  0.35444310668E+03 -0.57178789169E+02  0.22639797451E+04  0.22933022125E+04  0.68785331709E+02 0.  0.
        -13    1    4    4    0    0  0.35337459969E+02 -0.15078154527E+02  0.15497459200E+03  0.15966597054E+03  0.10566000000E+00 0. -1.
     200003    1    4    4    0    0  0.31910564671E+03 -0.42100634642E+02  0.21090051531E+04  0.21336362420E+04  0.30000000000E+02 0. -1.
     200000    1    3    3    0    0  0.95375455518E+02 -0.45359457880E+02  0.67428794415E+02  0.16093974105E+03  0.10100000000E+03 0. -1.
    -200001    1    1    2    0    0 -0.44981856220E+03  0.10253824705E+03  0.17277962636E+04  0.18904760669E+04  0.61300000000E+03 0. -1.
<mgrwt>
<rscale>  0 0.15490097E+04</rscale>
<asrwt>0</asrwt>
<pdfrwt beam="1">  1        2 0.60028009E+00 0.15490097E+04</pdfrwt>
<pdfrwt beam="2">  1       -2 0.20393805E-01 0.15490097E+04</pdfrwt>
<totfact> 0.83231318E+00</totfact>
</mgrwt>
</event>
<event>
 8    1  0.7685004E-052  0.1771670E+04  0.7818608E-02  0.8721512E-01
          2   -1    0    0  501    0  0.00000000000E+00  0.00000000000E+00  0.21844559969E+04  0.21844559969E+04  0.25500000000E-02 0.  1.
         -2   -1    0    0    0  501 -0.00000000000E+00 -0.00000000000E+00 -0.35922150012E+03  0.35922150013E+03  0.25500000000E-02 0. -1.
     200001    2    1    2    0    0  0.15984973585E+03 -0.61924853738E+03  0.93155872811E+03  0.12853269622E+04  0.61257085030E+03 0.  0.
    5000001    2    3    3    0    0  0.14009523452E+01 -0.65735248530E+00 -0.62156252347E+02  0.99817985640E+02  0.78088640477E+02 0.  0.
        -13    1    4    4    0    0 -0.19391105259E+02 -0.33461039288E+01 -0.60011611183E+02  0.63155490778E+02  0.10566000000E+00 0. -1.
     200003    1    4    4    0    0  0.20792057605E+02  0.26887514434E+01 -0.21446411649E+01  0.36662494862E+02  0.30000000000E+02 0.  1.
     200000    1    3    3    0    0  0.15844878350E+03 -0.61859118490E+03  0.99371498046E+03  0.11855089765E+04  0.10100000000E+03 0.  1.
    -200001    1    1    2    0    0 -0.15984973585E+03  0.61924853738E+03  0.89367576865E+03  0.12583505349E+04  0.61300000000E+03 0.  1.
<mgrwt>
<rscale>  0 0.17716699E+04</rscale>
<asrwt>0</asrwt>
<pdfrwt beam="1">  1        2 0.31206514E+00 0.17716699E+04</pdfrwt>
<pdfrwt beam="2">  1       -2 0.51317358E-01 0.17716699E+04</pdfrwt>
<totfact> 0.21932034E+01</totfact>
</mgrwt>
</event>
<event>
 8    1  0.7685004E-052  0.1368902E+04  0.7818608E-02  0.8976642E-01
          2   -1    0    0  501    0  0.00000000000E+00  0.00000000000E+00  0.60847113558E+03  0.60847113558E+03  0.25500000000E-02 0.  1.
         -2   -1    0    0    0  501 -0.00000000000E+00 -0.00000000000E+00 -0.76991828403E+03  0.76991828403E+03  0.25500000000E-02 0. -1.
     200001    2    1    2    0    0 -0.21983683226E+03  0.18522307843E+03  0.23160888094E+02  0.67661670089E+03  0.61207672034E+03 0.  0.
    5000001    2    3    3    0    0 -0.34285809362E+03 -0.82497495133E+02 -0.27688994252E+02  0.36102955478E+03  0.72236763180E+02 0.  0.
        -13    1    4    4    0    0 -0.55265756437E+02 -0.30883700785E+02  0.12614161378E+02  0.64554124888E+02  0.10566000000E+00 0. -1.
     200003    1    4    4    0    0 -0.28759233718E+03 -0.51613794348E+02 -0.40303155630E+02  0.29647542989E+03  0.30000000000E+02 0. -1.
     200000    1    3    3    0    0  0.12302126137E+03  0.26772057356E+03  0.50849882346E+02  0.31558714611E+03  0.10100000000E+03 0.  1.
    -200001    1    1    2    0    0  0.21983683226E+03 -0.18522307843E+03 -0.18460803655E+03  0.70177271873E+03  0.61300000000E+03 0.  1.
<mgrwt>
<rscale>  0 0.13689018E+04</rscale>
<asrwt>0</asrwt>
<pdfrwt beam="1">  1        2 0.86924449E-01 0.13689018E+04</pdfrwt>
<pdfrwt beam="2">  1       -2 0.10998833E+00 0.13689018E+04</pdfrwt>
<totfact> 0.34264355E+01</totfact>
</mgrwt>
</event>
<event>
 8    1  0.7685004E-052  0.1482248E+04  0.7818608E-02  0.8896345E-01
          2   -1    0    0  501    0  0.00000000000E+00  0.00000000000E+00  0.16442619042E+04  0.16442619042E+04  0.25500000000E-02 0.  1.
         -2   -1    0    0    0  501 -0.00000000000E+00 -0.00000000000E+00 -0.33404929844E+03  0.33404929845E+03  0.25500000000E-02 0. -1.
     200001    2    1    2    0    0 -0.29696865089E+03 -0.12617833002E+03  0.30294803306E+03  0.75582919052E+03  0.61268989214E+03 0.  0.
    5000001    2    3    3    0    0 -0.96114100746E+02 -0.18605252446E+03  0.43471221336E+03  0.48845254852E+03  0.75879651392E+02 0.  0.
        -13    1    4    4    0    0 -0.18943955903E+01 -0.63349851538E+02  0.15401159766E+03  0.16654241442E+03  0.10566000000E+00 0. -1.
     200003    1    4    4    0    0 -0.94219705156E+02 -0.12270267292E+03  0.28070061570E+03  0.32191013410E+03  0.30000000000E+02 0. -1.
     200000    1    3    3    0    0 -0.20085455014E+03  0.59874194443E+02 -0.13176418030E+03  0.26737664199E+03  0.10100000000E+03 0. -1.
    -200001    1    1    2    0    0  0.29696865089E+03  0.12617833002E+03  0.10072645727E+04  0.12224820122E+04  0.61300000000E+03 0.  1.
<mgrwt>
<rscale>  0 0.14822477E+04</rscale>
<asrwt>0</asrwt>
<pdfrwt beam="1">  1        2 0.23489456E+00 0.14822477E+04</pdfrwt>
<pdfrwt beam="2">  1       -2 0.47721328E-01 0.14822477E+04</pdfrwt>
<totfact> 0.49433531E+01</totfact>
</mgrwt>
</event>
<event>
 8    1  0.7685004E-052  0.1254103E+04  0.7818608E-02  0.9066776E-01
         -2   -1    0    0    0  501 -0.00000000000E+00  0.00000000000E+00  0.23925384790E+03  0.23925384791E+03  0.25500000000E-02 0. -1.
          2   -1    0    0  501    0  0.00000000000E+00 -0.00000000000E+00 -0.16434150189E+04  0.16434150189E+04  0.25500000000E-02 0.  1.
     200001    2    1    2    0    0  0.50596610660E+02 -0.12428800985E+03 -0.74151725173E+03  0.97004983888E+03  0.61085295194E+03 0.  0.
    5000001    2    3    3    0    0  0.28756935137E+03 -0.19229881047E+03 -0.46461186336E+03  0.58578542087E+03  0.87209009716E+02 0.  0.
        -13    1    4    4    0    0  0.13340883242E+03 -0.12919116766E+03 -0.21364264909E+03  0.28307502017E+03  0.10566000000E+00 0. -1.
     200003    1    4    4    0    0  0.15416051895E+03 -0.63107642817E+02 -0.25096921426E+03  0.30271040070E+03  0.30000000000E+02 0. -1.
     200000    1    3    3    0    0 -0.23697274071E+03  0.68010800620E+02 -0.27690538838E+03  0.38426441801E+03  0.10100000000E+03 0.  1.
    -200001    1    1    2    0    0 -0.50596610660E+02  0.12428800985E+03 -0.66264391930E+03  0.91261902796E+03  0.61300000000E+03 0. -1.
<mgrwt>
<rscale>  0 0.12541027E+04</rscale>
<asrwt>0</asrwt>
<pdfrwt beam="1">  1        2 0.23477357E+00 0.12541027E+04</pdfrwt>
<pdfrwt beam="2">  1       -2 0.34179122E-01 0.12541027E+04</pdfrwt>
<totfact> 0.96739940E+01</totfact>
</mgrwt>
</event>
<event>
 8    1  0.7685004E-052  0.2787595E+04  0.7818608E-02  0.8307130E-01
          2   -1    0    0  501    0  0.00000000000E+00  0.00000000000E+00  0.25100215218E+04  0.25100215218E+04  0.25500000000E-02 0.  1.
         -2   -1    0    0    0  501 -0.00000000000E+00 -0.00000000000E+00 -0.77396578920E+03  0.77396578921E+03  0.25500000000E-02 0. -1.
     200001    2    1    2    0    0  0.11628431504E+04  0.37077162960E+03  0.11951302440E+04  0.18149586599E+04  0.61323962964E+03 0.  0.
    5000001    2    3    3    0    0  0.85365316305E+03  0.71248629207E+02  0.53156143210E+03  0.10175647521E+04  0.13813174411E+03 0.  0.
        -13    1    4    4    0    0  0.21811414778E+03 -0.25440407021E+02  0.18196179286E+03  0.28518608135E+03  0.10566000000E+00 0. -1.
     200003    1    4    4    0    0  0.63553901526E+03  0.96689036229E+02  0.34959963925E+03  0.73237867077E+03  0.30000000000E+02 0. -1.
     200000    1    3    3    0    0  0.30918998731E+03  0.29952300039E+03  0.66356881191E+03  0.79739390777E+03  0.10100000000E+03 0.  1.
    -200001    1    1    2    0    0 -0.11628431504E+04 -0.37077162960E+03  0.54092548863E+03  0.14690286511E+04  0.61300000000E+03 0.  1.
<mgrwt>
<rscale>  0 0.27875945E+04</rscale>
<asrwt>0</asrwt>
<pdfrwt beam="1">  1        2 0.35857451E+00 0.27875945E+04</pdfrwt>
<pdfrwt beam="2">  1       -2 0.11056654E+00 0.27875945E+04</pdfrwt>
<totfact> 0.24776751E+00</totfact>
</mgrwt>
</event>
<event>
 8    1  0.7685004E-052  0.1790757E+04  0.7818608E-02  0.8711230E-01
          2   -1    0    0  501    0  0.00000000000E+00  0.00000000000E+00  0.28973551277E+04  0.28973551277E+04  0.25500000000E-02 0.  1.
         -2   -1    0    0    0  501 -0.00000000000E+00 -0.00000000000E+00 -0.27670165342E+03  0.27670165343E+03  0.25500000000E-02 0. -1.
     200001    2    1    2    0    0  0.91817023925E+02  0.55345983012E+03  0.19016052897E+04  0.20751721461E+04  0.61277125299E+03 0.  0.
    5000001    2    3    3    0    0  0.15165379837E+03  0.38164810988E+03  0.47379448869E+03  0.63227769729E+03  0.81484444174E+02 0.  0.
        -13    1    4    4    0    0  0.11832477449E+03  0.25610765319E+03  0.28368534256E+03  0.40008657442E+03  0.10566000000E+00 0. -1.
     200003    1    4    4    0    0  0.33329023871E+02  0.12554045669E+03  0.19010914613E+03  0.23219112287E+03  0.30000000000E+02 0. -1.
     200000    1    3    3    0    0 -0.59836774440E+02  0.17181172024E+03  0.14278108010E+04  0.14428944488E+04  0.10100000000E+03 0.  1.
    -200001    1    1    2    0    0 -0.91817023925E+02 -0.55345983012E+03  0.71904818454E+03  0.10988846350E+04  0.61300000000E+03 0.  1.
<mgrwt>
<rscale>  0 0.17907573E+04</rscale>
<asrwt>0</asrwt>
<pdfrwt beam="1">  1        2 0.41390787E+00 0.17907573E+04</pdfrwt>
<pdfrwt beam="2">  1       -2 0.39528808E-01 0.17907573E+04</pdfrwt>
<totfact> 0.15454774E+01</totfact>
</mgrwt>
</event>
<event>
 8    1  0.7685004E-052  0.1384857E+04  0.7818608E-02  0.8964853E-01
         -2   -1    0    0    0  501 -0.00000000000E+00  0.00000000000E+00  0.36513304450E+03  0.36513304451E+03  0.25500000000E-02 0. -1.
          2   -1    0    0  501    0  0.00000000000E+00 -0.00000000000E+00 -0.13131033909E+04  0.13131033909E+04  0.25500000000E-02 0.  1.
     200001    2    1    2    0    0  0.48373037475E+02  0.23059447570E+03 -0.74001347261E+03  0.98937590937E+03  0.61296899384E+03 0.  0.
    5000001    2    3    3    0    0  0.95452284840E+02  0.98151791528E+02  0.53547096037E+02  0.17715863780E+03  0.98858376432E+02 0.  0.
        -13    1    4    4    0    0  0.92073320582E+02  0.75694212930E+02  0.10006945331E+02  0.11961296064E+03  0.10566000000E+00 0. -1.
     200003    1    4    4    0    0  0.33789642575E+01  0.22457578597E+02  0.43540150706E+02  0.57545677156E+02  0.30000000000E+02 0. -1.
     200000    1    3    3    0    0 -0.47079247365E+02  0.13244268418E+03 -0.79356056865E+03  0.81221727157E+03  0.10100000000E+03 0.  1.
    -200001    1    1    2    0    0 -0.48373037475E+02 -0.23059447570E+03 -0.20795687378E+03  0.68886052604E+03  0.61300000000E+03 0. -1.
<mgrwt>
<rscale>  0 0.13848573E+04</rscale>
<asrwt>0</asrwt>
<pdfrwt beam="1">  1        2 0.18758620E+00 0.13848573E+04</pdfrwt>
<pdfrwt beam="2">  1       -2 0.52161864E-01 0.13848573E+04</pdfrwt>
<totfact> 0.62462633E+01</totfact>
</mgrwt>
</event>
<event>
 8    1  0.7685004E-052  0.1634826E+04  0.7818608E-02  0.8799434E-01
         -2   -1    0    0    0  501 -0.00000000000E+00  0.00000000000E+00  0.32592701092E+03  0.32592701093E+03  0.25500000000E-02 0. -1.
          2   -1    0    0  501    0  0.00000000000E+00 -0.00000000000E+00 -0.20500408182E+04  0.20500408182E+04  0.25500000000E-02 0.  1.
     200001    2    1    2    0    0  0.17454136054E+03 -0.26210269692E+03 -0.22304989119E+03  0.72426434773E+03  0.61289891594E+03 0.  0.
    5000001    2    3    3    0    0 -0.68113820651E+01 -0.10976387869E+01 -0.35644336269E+03  0.36508851912E+03  0.78677546015E+02 0.  0.
        -13    1    4    4    0    0  0.73346888892E+01  0.52188286720E+01 -0.22366258200E+01  0.92761787878E+01  0.10566000000E+00 0. -1.
     200003    1    4    4    0    0 -0.14146070954E+02 -0.63164674590E+01 -0.35420673687E+03  0.35581234033E+03  0.30000000000E+02 0. -1.
     200000    1    3    3    0    0  0.18135274260E+03 -0.26100505813E+03  0.13339347150E+03  0.35917582861E+03  0.10100000000E+03 0. -1.
    -200001    1    1    2    0    0 -0.17454136054E+03  0.26210269692E+03 -0.15010639161E+04  0.16517034814E+04  0.61300000000E+03 0.  1.
<mgrwt>
<rscale>  0 0.16348256E+04</rscale>
<asrwt>0</asrwt>
<pdfrwt beam="1">  1        2 0.29286297E+00 0.16348256E+04</pdfrwt>
<pdfrwt beam="2">  1       -2 0.46561003E-01 0.16348256E+04</pdfrwt>
<totfact> 0.31683101E+01</totfact>
</mgrwt>
</event>
<event>
 8    1  0.7685004E-052  0.1453256E+04  0.7818608E-02  0.8916146E-01
         -2   -1    0    0    0  501 -0.00000000000E+00  0.00000000000E+00  0.89397270608E+03  0.89397270608E+03  0.25500000000E-02 0. -1.
          2   -1    0    0  501    0  0.00000000000E+00 -0.00000000000E+00 -0.59060928120E+03  0.59060928120E+03  0.25500000000E-02 0.  1.
     200001    2    1    2    0    0  0.16816672594E+03  0.24420634083E+03  0.41036287530E+03  0.79528185889E+03  0.61331783036E+03 0.  0.
    5000001    2    3    3    0    0 -0.21468128828E+03  0.11041472700E+03  0.10525748629E+03  0.27782355493E+03  0.88472152563E+02 0.  0.
        -13    1    4    4    0    0 -0.20783888671E+02 -0.13746253242E+02  0.97544858756E+01  0.26759870426E+02  0.10566000000E+00 0. -1.
     200003    1    4    4    0    0 -0.19389739961E+03  0.12416098024E+03  0.95503000410E+02  0.25106368451E+03  0.30000000000E+02 0. -1.
     200000    1    3    3    0    0  0.38284801422E+03  0.13379161383E+03  0.30510538902E+03  0.51745830395E+03  0.10100000000E+03 0. -1.
    -200001    1    1    2    0    0 -0.16816672594E+03 -0.24420634083E+03 -0.10699945042E+03  0.68930012840E+03  0.61300000000E+03 0.  1.
<mgrwt>
<rscale>  0 0.14532564E+04</rscale>
<asrwt>0</asrwt>
<pdfrwt beam="1">  1        2 0.84372755E-01 0.14532564E+04</pdfrwt>
<pdfrwt beam="2">  1       -2 0.12771039E+00 0.14532564E+04</pdfrwt>
<totfact> 0.24388304E+01</totfact>
</mgrwt>
</event>
<event>
 8    1  0.7685004E-052  0.1982707E+04  0.7818608E-02  0.8614749E-01
         -2   -1    0    0    0  501 -0.00000000000E+00  0.00000000000E+00  0.62650196625E+03  0.62650196626E+03  0.25500000000E-02 0. -1.
          2   -1    0    0  501    0  0.00000000000E+00 -0.00000000000E+00 -0.15686811535E+04  0.15686811535E+04  0.25500000000E-02 0.  1.
     200001    2    1    2    0    0  0.72084860504E+03  0.29124889245E+03 -0.42392231396E+03  0.10776824193E+04  0.61419918589E+03 0.  0.
    5000001    2    3    3    0    0  0.24062400855E+03  0.97345500743E+02  0.13525867799E+03  0.30885306888E+03  0.98586247418E+02 0.  0.
        -13    1    4    4    0    0  0.10680823917E+03 -0.28256352382E+01  0.39663345956E+02  0.11397006776E+03  0.10566000000E+00 0. -1.
     200003    1    4    4    0    0  0.13381576938E+03  0.10017113598E+03  0.95595332030E+02  0.19488300112E+03  0.30000000000E+02 0. -1.
     200000    1    3    3    0    0  0.48022459649E+03  0.19390339171E+03 -0.55918099194E+03  0.76882935047E+03  0.10100000000E+03 0.  1.
    -200001    1    1    2    0    0 -0.72084860504E+03 -0.29124889245E+03 -0.51825687333E+03  0.11175007004E+04  0.61300000000E+03 0.  1.
<mgrwt>
<rscale>  0 0.19827071E+04</rscale>
<asrwt>0</asrwt>
<pdfrwt beam="1">  1        2 0.22409731E+00 0.19827071E+04</pdfrwt>
<pdfrwt beam="2">  1       -2 0.89500281E-01 0.19827071E+04</pdfrwt>
<totfact> 0.13440400E+01</totfact>
</mgrwt>
</event>
<event>
 8    1  0.7685004E-052  0.1557571E+04  0.7818608E-02  0.8847046E-01
          2   -1    0    0  501    0  0.00000000000E+00  0.00000000000E+00  0.20532735279E+04  0.20532735279E+04  0.25500000000E-02 0. -1.
         -2   -1    0    0    0  501 -0.00000000000E+00 -0.00000000000E+00 -0.29538525306E+03  0.29538525307E+03  0.25500000000E-02 0.  1.
     200001    2    1    2    0    0  0.17330993101E+03 -0.22975129312E+03  0.29898657687E+03  0.74024802708E+03  0.61298628008E+03 0.  0.
    5000001    2    3    3    0    0  0.13241467170E+03 -0.39078768237E+02 -0.16224248789E+03  0.22940393720E+03  0.85104324900E+02 0.  0.
        -13    1    4    4    0    0  0.63082357421E+02 -0.49224715395E+02 -0.52184926480E+02  0.95528708457E+02  0.10566000000E+00 0. -1.
     200003    1    4    4    0    0  0.69332314282E+02  0.10145947159E+02 -0.11005756141E+03  0.13387522875E+03  0.30000000000E+02 0. -1.
     200000    1    3    3    0    0  0.40895259311E+02 -0.19067252489E+03  0.46122906477E+03  0.51084408988E+03  0.10100000000E+03 0. -1.
    -200001    1    1    2    0    0 -0.17330993101E+03  0.22975129312E+03  0.14589016980E+04  0.16084107539E+04  0.61300000000E+03 0. -1.
<mgrwt>
<rscale>  0 0.15575708E+04</rscale>
<asrwt>0</asrwt>
<pdfrwt beam="1">  1        2 0.29332480E+00 0.15575708E+04</pdfrwt>
<pdfrwt beam="2">  1       -2 0.42197892E-01 0.15575708E+04</pdfrwt>
<totfact> 0.38630341E+01</totfact>
</mgrwt>
</event>
<event>
 8    1  0.7685004E-052  0.1448065E+04  0.7818608E-02  0.8919743E-01
          2   -1    0    0  501    0  0.00000000000E+00  0.00000000000E+00  0.26269099512E+04  0.26269099512E+04  0.25500000000E-02 0. -1.
         -2   -1    0    0    0  501 -0.00000000000E+00 -0.00000000000E+00 -0.19955885116E+03  0.19955885117E+03  0.25500000000E-02 0.  1.
     200001    2    1    2    0    0  0.12532295850E+03 -0.35400994661E+03  0.13776374121E+04  0.15541886788E+04  0.61366825226E+03 0.  0.
    5000001    2    3    3    0    0  0.47599410237E+02 -0.35369675195E+03  0.13793048532E+04  0.14267334772E+04  0.75626983926E+02 0.  0.
        -13    1    4    4    0    0 -0.11799781275E+02 -0.17295855059E+02  0.10677855802E+03  0.10881200787E+03  0.10566000000E+00 0. -1.
     200003    1    4    4    0    0  0.59399191511E+02 -0.33640089689E+03  0.12725262952E+04  0.13179214693E+04  0.30000000000E+02 0. -1.
     200000    1    3    3    0    0  0.77723548266E+02 -0.31319465538E+00 -0.16674411322E+01  0.12745520156E+03  0.10100000000E+03 0.  1.
    -200001    1    1    2    0    0 -0.12532295850E+03  0.35400994661E+03  0.10497136880E+04  0.12722801236E+04  0.61300000000E+03 0.  1.
<mgrwt>
<rscale>  0 0.14480651E+04</rscale>
<asrwt>0</asrwt>
<pdfrwt beam="1">  1        2 0.37527286E+00 0.14480651E+04</pdfrwt>
<pdfrwt beam="2">  1       -2 0.28508407E-01 0.14480651E+04</pdfrwt>
<totfact> 0.41432413E+01</totfact>
</mgrwt>
</event>
<event>
 8    1  0.7685004E-052  0.1528488E+04  0.7818608E-02  0.8865727E-01
         -2   -1    0    0    0  501 -0.00000000000E+00  0.00000000000E+00  0.15955406686E+03  0.15955406688E+03  0.25500000000E-02 0. -1.
          2   -1    0    0  501    0  0.00000000000E+00 -0.00000000000E+00 -0.36606333685E+04  0.36606333685E+04  0.25500000000E-02 0.  1.
     200001    2    1    2    0    0  0.44279536204E+03  0.94789775090E+02 -0.18734164176E+04  0.20229372307E+04  0.61443724786E+03 0.  0.
    5000001    2    3    3    0    0  0.56055492102E+03  0.51912665357E+02 -0.11536488846E+04  0.12853926138E+04  0.66420467840E+02 0.  0.
        -13    1    4    4    0    0  0.48100705158E+02  0.20493872604E+02 -0.11866215204E+03  0.12967032869E+03  0.10566000000E+00 0. -1.
     200003    1    4    4    0    0  0.51245421586E+03  0.31418792754E+02 -0.10349867325E+04  0.11557222851E+04  0.30000000000E+02 0. -1.
     200000    1    3    3    0    0 -0.11775955898E+03  0.42877109732E+02 -0.71976753302E+03  0.73754461686E+03  0.10100000000E+03 0. -1.
    -200001    1    1    2    0    0 -0.44279536204E+03 -0.94789775090E+02 -0.16276628841E+04  0.17972502047E+04  0.61300000000E+03 0.  1.
<mgrwt>
<rscale>  0 0.15284881E+04</rscale>
<asrwt>0</asrwt>
<pdfrwt beam="1">  1        2 0.52294757E+00 0.15284881E+04</pdfrwt>
<pdfrwt beam="2">  1       -2 0.22793440E-01 0.15284881E+04</pdfrwt>
<totfact> 0.15807584E+01</totfact>
</mgrwt>
</event>
<event>
 8    1  0.7685004E-052  0.1360154E+04  0.7818608E-02  0.8983177E-01
         -2   -1    0    0    0  501 -0.00000000000E+00  0.00000000000E+00  0.16762423922E+03  0.16762423924E+03  0.25500000000E-02 0. -1.
          2   -1    0    0  501    0  0.00000000000E+00 -0.00000000000E+00 -0.27591753199E+04  0.27591753199E+04  0.25500000000E-02 0.  1.
     200001    2    1    2    0    0 -0.54526761434E+02  0.28714660859E+03 -0.12316131678E+04  0.14067250644E+04  0.61365957119E+03 0.  0.
    5000001    2    3    3    0    0  0.99154679472E+02  0.42814005234E+03 -0.81184507266E+03  0.92724264542E+03  0.86896182894E+02 0.  0.
        -13    1    4    4    0    0  0.97040975194E+02  0.29669373058E+03 -0.59434808709E+03  0.67133730748E+03  0.10566000000E+00 0. -1.
     200003    1    4    4    0    0  0.21137042773E+01  0.13144632176E+03 -0.21749698558E+03  0.25590533794E+03  0.30000000000E+02 0. -1.
     200000    1    3    3    0    0 -0.15368144091E+03 -0.14099344375E+03 -0.41976809513E+03  0.47948241902E+03  0.10100000000E+03 0. -1.
    -200001    1    1    2    0    0  0.54526761434E+02 -0.28714660859E+03 -0.13599379129E+04  0.15200744947E+04  0.61300000000E+03 0. -1.
<mgrwt>
<rscale>  0 0.13601539E+04</rscale>
<asrwt>0</asrwt>
<pdfrwt beam="1">  1        2 0.39416787E+00 0.13601539E+04</pdfrwt>
<pdfrwt beam="2">  1       -2 0.23946322E-01 0.13601539E+04</pdfrwt>
<totfact> 0.48754124E+01</totfact>
</mgrwt>
</event>
<event>
 8    1  0.7685004E-052  0.1764171E+04  0.7818608E-02  0.8725588E-01
          2   -1    0    0  501    0  0.00000000000E+00  0.00000000000E+00  0.11001905334E+04  0.11001905334E+04  0.25500000000E-02 0.  1.
         -2   -1    0    0    0  501 -0.00000000000E+00 -0.00000000000E+00 -0.70721843456E+03  0.70721843457E+03  0.25500000000E-02 0. -1.
     200001    2    1    2    0    0  0.33590789750E+03  0.44358608414E+03 -0.11591471461E+03  0.83563866663E+03  0.61257899936E+03 0.  0.
    5000001    2    3    3    0    0  0.21087467178E+03  0.43817923971E+03 -0.24352147616E+03  0.63034125531E+03  0.31868199743E+03 0.  0.
        -13    1    4    4    0    0 -0.18329619411E+02  0.57465108944E+02  0.64885992783E+02  0.88591291430E+02  0.10566000000E+00 0. -1.
     200003    1    4    4    0    0  0.22920429119E+03  0.38071413077E+03 -0.30840746894E+03  0.54174996388E+03  0.30000000000E+02 0. -1.
     200000    1    3    3    0    0  0.12503322572E+03  0.54068444222E+01  0.12760676155E+03  0.20529741132E+03  0.10100000000E+03 0.  1.
    -200001    1    1    2    0    0 -0.33590789750E+03 -0.44358608414E+03  0.50888681343E+03  0.97177030132E+03  0.61300000000E+03 0.  1.
<mgrwt>
<rscale>  0 0.17641712E+04</rscale>
<asrwt>0</asrwt>
<pdfrwt beam="1">  1        2 0.15717007E+00 0.17641712E+04</pdfrwt>
<pdfrwt beam="2">  1       -2 0.10103121E+00 0.17641712E+04</pdfrwt>
<totfact> 0.18699895E+01</totfact>
</mgrwt>
</event>
<event>
 8    1  0.7685004E-052  0.1413866E+04  0.7818608E-02  0.8943843E-01
         -2   -1    0    0    0  501 -0.00000000000E+00  0.00000000000E+00  0.33873937920E+03  0.33873937921E+03  0.25500000000E-02 0. -1.
          2   -1    0    0  501    0  0.00000000000E+00 -0.00000000000E+00 -0.14753349917E+04  0.14753349917E+04  0.25500000000E-02 0.  1.
     200001    2    1    2    0    0  0.10088591577E+02 -0.18265931849E+03 -0.18324744530E+03  0.66598555283E+03  0.61358856252E+03 0.  0.
    5000001    2    3    3    0    0  0.10027698395E+03 -0.34927102440E+03  0.20657383203E+02  0.36989167287E+03  0.65934817694E+02 0.  0.
        -13    1    4    4    0    0 -0.76339940411E+01 -0.16121973416E+02  0.66163337200E+00  0.17850625047E+02  0.10566000000E+00 0. -1.
     200003    1    4    4    0    0  0.10791097799E+03 -0.33314905098E+03  0.19995749831E+02  0.35204104782E+03  0.30000000000E+02 0. -1.
     200000    1    3    3    0    0 -0.90188392369E+02  0.16661170591E+03 -0.20390482851E+03  0.29609387996E+03  0.10100000000E+03 0. -1.
    -200001    1    1    2    0    0 -0.10088591577E+02  0.18265931849E+03 -0.95334816723E+03  0.11480888181E+04  0.61300000000E+03 0.  1.
<mgrwt>
<rscale>  0 0.14138657E+04</rscale>
<asrwt>0</asrwt>
<pdfrwt beam="1">  1        2 0.21076214E+00 0.14138657E+04</pdfrwt>
<pdfrwt beam="2">  1       -2 0.48391341E-01 0.14138657E+04</pdfrwt>
<totfact> 0.59312842E+01</totfact>
</mgrwt>
</event>
<event>
 8    1  0.7685004E-052  0.2351195E+04  0.7818608E-02  0.8458005E-01
         -2   -1    0    0    0  501 -0.00000000000E+00  0.00000000000E+00  0.59513204803E+03  0.59513204803E+03  0.25500000000E-02 0. -1.
          2   -1    0    0  501    0  0.00000000000E+00 -0.00000000000E+00 -0.23222225014E+04  0.23222225014E+04  0.25500000000E-02 0.  1.
     200001    2    1    2    0    0  0.27052210111E+03  0.78307250245E+02 -0.20573673116E+04  0.21662446801E+04  0.61688048001E+03 0.  0.
    5000001    2    3    3    0    0  0.43298075554E+03 -0.48662587087E+02 -0.12481556520E+04  0.13250915050E+04  0.90191922577E+02 0.  0.
        -13    1    4    4    0    0  0.36184741985E+03 -0.40338762326E+02 -0.96218575167E+03  0.10287673220E+04  0.10566000000E+00 0. -1.
     200003    1    4    4    0    0  0.71133335689E+02 -0.83238247610E+01 -0.28596990032E+03  0.29632418294E+03  0.30000000000E+02 0.  1.
     200000    1    3    3    0    0 -0.16245865443E+03  0.12696983733E+03 -0.80921165962E+03  0.84115317514E+03  0.10100000000E+03 0.  1.
    -200001    1    1    2    0    0 -0.27052210111E+03 -0.78307250245E+02  0.33027685827E+03  0.75110986929E+03  0.61300000000E+03 0. -1.
<mgrwt>
<rscale>  0 0.23511946E+04</rscale>
<asrwt>0</asrwt>
<pdfrwt beam="1">  1        2 0.33174607E+00 0.23511946E+04</pdfrwt>
<pdfrwt beam="2">  1       -2 0.85018866E-01 0.23511946E+04</pdfrwt>
<totfact> 0.59708640E+00</totfact>
</mgrwt>
</event>
<event>
 8    1  0.7685004E-052  0.1777027E+04  0.7818608E-02  0.8718612E-01
         -2   -1    0    0    0  501 -0.00000000000E+00  0.00000000000E+00  0.61344666194E+03  0.61344666195E+03  0.25500000000E-02 0. -1.
          2   -1    0    0  501    0  0.00000000000E+00 -0.00000000000E+00 -0.12869196129E+04  0.12869196130E+04  0.25500000000E-02 0.  1.
     200001    2    1    2    0    0  0.14610580442E+03 -0.62608419537E+03 -0.31708668686E+03  0.94323070715E+03  0.61303496977E+03 0.  0.
    5000001    2    3    3    0    0  0.33977227774E+03 -0.29343525283E+03 -0.28407147653E+03  0.54391501003E+03  0.11660825884E+03 0.  0.
        -13    1    4    4    0    0  0.13659999524E+02 -0.27880338018E+02  0.66802575352E+01  0.31757610738E+02  0.10566000000E+00 0. -1.
     200003    1    4    4    0    0  0.32611227822E+03 -0.26555491481E+03 -0.29075173407E+03  0.51215739929E+03  0.30000000000E+02 0. -1.
     200000    1    3    3    0    0 -0.19366647332E+03 -0.33264894254E+03 -0.33015210328E+02  0.39931569713E+03  0.10100000000E+03 0. -1.
    -200001    1    1    2    0    0 -0.14610580442E+03  0.62608419537E+03 -0.35638626414E+03  0.95713556774E+03  0.61300000000E+03 0.  1.
<mgrwt>
<rscale>  0 0.17770273E+04</rscale>
<asrwt>0</asrwt>
<pdfrwt beam="1">  1        2 0.18384566E+00 0.17770273E+04</pdfrwt>
<pdfrwt beam="2">  1       -2 0.87635238E-01 0.17770273E+04</pdfrwt>
<totfact> 0.20351674E+01</totfact>
</mgrwt>
</event>
<event>
 8    1  0.7685004E-052  0.1496760E+04  0.7818608E-02  0.8886611E-01
          2   -1    0    0  501    0  0.00000000000E+00  0.00000000000E+00  0.79274429226E+03  0.79274429226E+03  0.25500000000E-02 0.  1.
         -2   -1    0    0    0  501 -0.00000000000E+00 -0.00000000000E+00 -0.70649808941E+03  0.70649808941E+03  0.25500000000E-02 0. -1.
     200001    2    1    2    0    0  0.33633398216E+03  0.26064763327E+03 -0.13087125624E+02  0.74645167608E+03  0.61315666480E+03 0.  0.
    5000001    2    3    3    0    0  0.22313928491E+03  0.36957242368E+03 -0.19841170528E+03  0.48334742056E+03  0.88784048962E+02 0.  0.
        -13    1    4    4    0    0  0.86659768741E+02  0.21478307127E+03 -0.11704200800E+03  0.25950053184E+03  0.10566000000E+00 0. -1.
     200003    1    4    4    0    0  0.13647951617E+03  0.15478935241E+03 -0.81369697276E+02  0.22384688872E+03  0.30000000000E+02 0.  1.
     200000    1    3    3    0    0  0.11319469725E+03 -0.10892479041E+03  0.18532457966E+03  0.26310425553E+03  0.10100000000E+03 0.  1.
    -200001    1    1    2    0    0 -0.33633398216E+03 -0.26064763327E+03  0.99333328477E+02  0.75279070559E+03  0.61300000000E+03 0. -1.
<mgrwt>
<rscale>  0 0.14967596E+04</rscale>
<asrwt>0</asrwt>
<pdfrwt beam="1">  1        2 0.11324919E+00 0.14967596E+04</pdfrwt>
<pdfrwt beam="2">  1       -2 0.10092830E+00 0.14967596E+04</pdfrwt>
<totfact> 0.30100132E+01</totfact>
</mgrwt>
</event>
<event>
 8    1  0.7685004E-052  0.1354139E+04  0.7818608E-02  0.8987701E-01
          2   -1    0    0  501    0  0.00000000000E+00  0.00000000000E+00  0.14363417815E+04  0.14363417815E+04  0.25500000000E-02 0.  1.
         -2   -1    0    0    0  501 -0.00000000000E+00 -0.00000000000E+00 -0.31916035730E+03  0.31916035731E+03  0.25500000000E-02 0. -1.
     200001    2    1    2    0    0  0.18367182396E+03 -0.46327166984E+02  0.27845502078E+03  0.69951325387E+03  0.61310688173E+03 0.  0.
    5000001    2    3    3    0    0  0.91976690425E+02  0.27209981566E+03  0.12757271145E+03  0.32166379700E+03  0.68518467097E+02 0.  0.
        -13    1    4    4    0    0  0.19545234976E+02  0.19452818423E+02  0.27190251874E+02  0.38726597009E+02  0.10566000000E+00 0. -1.
     200003    1    4    4    0    0  0.72431455449E+02  0.25264699723E+03  0.10038245958E+03  0.28293719999E+03  0.30000000000E+02 0. -1.
     200000    1    3    3    0    0  0.91695133538E+02 -0.31842698264E+03  0.15088230933E+03  0.37784945687E+03  0.10100000000E+03 0. -1.
    -200001    1    1    2    0    0 -0.18367182396E+03  0.46327166984E+02  0.83872640340E+03  0.10559888849E+04  0.61300000000E+03 0.  1.
<mgrwt>
<rscale>  0 0.13541394E+04</rscale>
<asrwt>0</asrwt>
<pdfrwt beam="1">  1        2 0.20519169E+00 0.13541394E+04</pdfrwt>
<pdfrwt beam="2">  1       -2 0.45594336E-01 0.13541394E+04</pdfrwt>
<totfact> 0.70465899E+01</totfact>
</mgrwt>
</event>
<event>
 8    1  0.7685004E-052  0.1392832E+04  0.7818608E-02  0.8959024E-01
          2   -1    0    0  501    0  0.00000000000E+00  0.00000000000E+00  0.14745458939E+04  0.14745458939E+04  0.25500000000E-02 0.  1.
         -2   -1    0    0    0  501 -0.00000000000E+00 -0.00000000000E+00 -0.32891154217E+03  0.32891154218E+03  0.25500000000E-02 0. -1.
     200001    2    1    2    0    0  0.12359532330E+03  0.24005400807E+03  0.32673323707E+03  0.74550197089E+03  0.61328366167E+03 0.  0.
    5000001    2    3    3    0    0  0.17905355951E+03  0.19923774211E+03  0.46608735546E+03  0.56013165546E+03  0.15733465442E+03 0.  0.
        -13    1    4    4    0    0  0.10357714843E+03  0.26106908226E+02  0.96279441856E+02  0.14380381922E+03  0.10566000000E+00 0. -1.
     200003    1    4    4    0    0  0.75476411086E+02  0.17313083389E+03  0.36980791360E+03  0.41632783625E+03  0.30000000000E+02 0. -1.
     200000    1    3    3    0    0 -0.55458236215E+02  0.40816265961E+02 -0.13935411839E+03  0.18537031543E+03  0.10100000000E+03 0. -1.
    -200001    1    1    2    0    0 -0.12359532330E+03 -0.24005400807E+03  0.81890111467E+03  0.10579554652E+04  0.61300000000E+03 0.  1.
<mgrwt>
<rscale>  0 0.13928319E+04</rscale>
<asrwt>0</asrwt>
<pdfrwt beam="1">  1        2 0.21064941E+00 0.13928319E+04</pdfrwt>
<pdfrwt beam="2">  1       -2 0.46987364E-01 0.13928319E+04</pdfrwt>
<totfact> 0.63103581E+01</totfact>
</mgrwt>
</event>
<event>
 8    1  0.7685004E-052  0.1483448E+04  0.7818608E-02  0.8895535E-01
         -2   -1    0    0    0  501 -0.00000000000E+00  0.00000000000E+00  0.10745852767E+04  0.10745852767E+04  0.25500000000E-02 0.  1.
          2   -1    0    0  501    0  0.00000000000E+00 -0.00000000000E+00 -0.51196914565E+03  0.51196914565E+03  0.25500000000E-02 0. -1.
     200001    2    1    2    0    0  0.37530065590E+03  0.17721863992E+03  0.23268745744E+03  0.77607372653E+03  0.61309864419E+03 0.  0.
    5000001    2    3    3    0    0 -0.30452697884E+02 -0.14276180728E+03  0.18697975399E+03  0.24757257719E+03  0.70869260950E+02 0.  0.
        -13    1    4    4    0    0  0.17930255136E+02 -0.50458725535E+02  0.55189434468E+02  0.76899036878E+02  0.10566000000E+00 0. -1.
     200003    1    4    4    0    0 -0.48382953020E+02 -0.92303081749E+02  0.13179031952E+03  0.17067354032E+03  0.30000000000E+02 0. -1.
     200000    1    3    3    0    0  0.40575335378E+03  0.31998044721E+03  0.45707703448E+02  0.52850114934E+03  0.10100000000E+03 0.  1.
    -200001    1    1    2    0    0 -0.37530065590E+03 -0.17721863992E+03  0.32992867363E+03  0.81048069584E+03  0.61300000000E+03 0. -1.
<mgrwt>
<rscale>  0 0.14834480E+04</rscale>
<asrwt>0</asrwt>
<pdfrwt beam="1">  1        2 0.73138450E-01 0.14834480E+04</pdfrwt>
<pdfrwt beam="2">  1       -2 0.15351218E+00 0.14834480E+04</pdfrwt>
<totfact> 0.17825903E+01</totfact>
</mgrwt>
</event>
<event>
 8    1  0.7685004E-052  0.1729188E+04  0.7818608E-02  0.8744891E-01
         -2   -1    0    0    0  501 -0.00000000000E+00  0.00000000000E+00  0.24790292252E+04  0.24790292252E+04  0.25500000000E-02 0. -1.
          2   -1    0    0  501    0  0.00000000000E+00 -0.00000000000E+00 -0.30153836449E+03  0.30153836451E+03  0.25500000000E-02 0.  1.
     200001    2    1    2    0    0  0.31038007188E+03 -0.28734172017E+03  0.38229727601E+03  0.83701670030E+03  0.61281701687E+03 0.  0.
    5000001    2    3    3    0    0  0.39757035972E+03 -0.18674031033E+03  0.32057171030E+02  0.44895495123E+03  0.87170818455E+02 0.  0.
        -13    1    4    4    0    0  0.78427021675E+02 -0.72710463829E+02 -0.25012942775E+01  0.10697605768E+03  0.10566000000E+00 0. -1.
     200003    1    4    4    0    0  0.31914333804E+03 -0.11402984650E+03  0.34558465307E+02  0.34197889355E+03  0.30000000000E+02 0. -1.
     200000    1    3    3    0    0 -0.87190287841E+02 -0.10060140984E+03  0.35024010498E+03  0.38806174907E+03  0.10100000000E+03 0. -1.
    -200001    1    1    2    0    0 -0.31038007188E+03  0.28734172017E+03  0.17951935847E+04  0.19435508894E+04  0.61300000000E+03 0. -1.
<mgrwt>
<rscale>  0 0.17291876E+04</rscale>
<asrwt>0</asrwt>
<pdfrwt beam="1">  1        2 0.43076909E-01 0.17291876E+04</pdfrwt>
<pdfrwt beam="2">  1       -2 0.35414703E+00 0.17291876E+04</pdfrwt>
<totfact> 0.16607571E+00</totfact>
</mgrwt>
</event>
<event>
 8    1  0.7685004E-052  0.1294753E+04  0.7818608E-02  0.9033736E-01
         -2   -1    0    0    0  501 -0.00000000000E+00  0.00000000000E+00  0.17041767526E+03  0.17041767528E+03  0.25500000000E-02 0. -1.
          2   -1    0    0  501    0  0.00000000000E+00 -0.00000000000E+00 -0.24592306719E+04  0.24592306719E+04  0.25500000000E-02 0.  1.
     200001    2    1    2    0    0 -0.99956654450E+02 -0.18111837868E+03 -0.10734373064E+04  0.12528033057E+04  0.61192587142E+03 0.  0.
    5000001    2    3    3    0    0 -0.53638995941E+01 -0.31194517017E+03 -0.99697045910E+03  0.10475921525E+04  0.78489879116E+02 0.  0.
        -13    1    4    4    0    0  0.83419168622E+01 -0.81669149516E+01 -0.84862844334E+02  0.85662124590E+02  0.10566000000E+00 0. -1.
     200003    1    4    4    0    0 -0.13705816456E+02 -0.30377825522E+03 -0.91210761476E+03  0.96193002794E+03  0.30000000000E+02 0. -1.
     200000    1    3    3    0    0 -0.94592754856E+02  0.13082679149E+03 -0.76466847299E+02  0.20521115316E+03  0.10100000000E+03 0. -1.
    -200001    1    1    2    0    0  0.99956654450E+02  0.18111837868E+03 -0.12153756903E+04  0.13768450415E+04  0.61300000000E+03 0. -1.
<mgrwt>
<rscale>  0 0.12947531E+04</rscale>
<asrwt>0</asrwt>
<pdfrwt beam="1">  1        2 0.35131865E+00 0.12947531E+04</pdfrwt>
<pdfrwt beam="2">  1       -2 0.24345384E-01 0.12947531E+04</pdfrwt>
<totfact> 0.68599085E+01</totfact>
</mgrwt>
</event>
<event>
 8    1  0.7685004E-052  0.1821552E+04  0.7818608E-02  0.8694922E-01
         -2   -1    0    0    0  501 -0.00000000000E+00  0.00000000000E+00  0.17577799104E+04  0.17577799104E+04  0.25500000000E-02 0.  1.
          2   -1    0    0  501    0  0.00000000000E+00 -0.00000000000E+00 -0.47190930472E+03  0.47190930473E+03  0.25500000000E-02 0. -1.
     200001    2    1    2    0    0 -0.23545868722E+03 -0.40474300641E+03  0.48090853142E+02  0.77122241386E+03  0.61091209422E+03 0.  0.
    5000001    2    3    3    0    0 -0.38086038981E+03 -0.79968471398E+02  0.13826827704E+02  0.39974539284E+03  0.90308388290E+02 0.  0.
        -13    1    4    4    0    0 -0.60153338418E+02 -0.25724112786E+02  0.31527703085E+02  0.72623421342E+02  0.10566000000E+00 0. -1.
     200003    1    4    4    0    0 -0.32070705139E+03 -0.54244358611E+02 -0.17700875381E+02  0.32712197150E+03  0.30000000000E+02 0. -1.
     200000    1    3    3    0    0  0.14540170258E+03 -0.32477453501E+03  0.34264025438E+02  0.37147702102E+03  0.10100000000E+03 0. -1.
    -200001    1    1    2    0    0  0.23545868722E+03  0.40474300641E+03  0.12377797525E+04  0.14584668013E+04  0.61300000000E+03 0.  1.
<mgrwt>
<rscale>  0 0.18215518E+04</rscale>
<asrwt>0</asrwt>
<pdfrwt beam="1">  1        2 0.67415615E-01 0.18215518E+04</pdfrwt>
<pdfrwt beam="2">  1       -2 0.25111142E+00 0.18215518E+04</pdfrwt>
<totfact> 0.42888599E+00</totfact>
</mgrwt>
</event>
<event>
 8    1  0.7685004E-052  0.1501869E+04  0.7818608E-02  0.8883211E-01
         -2   -1    0    0    0  501 -0.00000000000E+00  0.00000000000E+00  0.24408465254E+03  0.24408465255E+03  0.25500000000E-02 0. -1.
          2   -1    0    0  501    0  0.00000000000E+00 -0.00000000000E+00 -0.23102740381E+04  0.23102740381E+04  0.25500000000E-02 0.  1.
     200001    2    1    2    0    0  0.22311194626E+03  0.26113226528E+03 -0.14828116554E+04  0.16410856884E+04  0.61356566958E+03 0.  0.
    5000001    2    3    3    0    0 -0.18326531852E+03  0.73685342677E+02 -0.24788150428E+03  0.32368965525E+03  0.65681398094E+02 0.  0.
        -13    1    4    4    0    0 -0.12100587303E+03  0.48914815141E+02 -0.18844559098E+03  0.22923095858E+03  0.10566000000E+00 0. -1.
     200003    1    4    4    0    0 -0.62259445491E+02  0.24770527536E+02 -0.59435913301E+02  0.94458696673E+02  0.30000000000E+02 0. -1.
     200000    1    3    3    0    0  0.40637726478E+03  0.18744692260E+03 -0.12349301511E+04  0.13173960332E+04  0.10100000000E+03 0. -1.
    -200001    1    1    2    0    0 -0.22311194626E+03 -0.26113226528E+03 -0.58337773019E+03  0.91327300224E+03  0.61300000000E+03 0.  1.
<mgrwt>
<rscale>  0 0.15018688E+04</rscale>
<asrwt>0</asrwt>
<pdfrwt beam="1">  1        2 0.33003914E+00 0.15018688E+04</pdfrwt>
<pdfrwt beam="2">  1       -2 0.34869237E-01 0.15018688E+04</pdfrwt>
<totfact> 0.41408689E+01</totfact>
</mgrwt>
</event>
<event>
 8    1  0.7685004E-052  0.1521268E+04  0.7818608E-02  0.8870432E-01
          2   -1    0    0  501    0  0.00000000000E+00  0.00000000000E+00  0.16744434514E+04  0.16744434514E+04  0.25500000000E-02 0.  1.
         -2   -1    0    0    0  501 -0.00000000000E+00 -0.00000000000E+00 -0.34552618549E+03  0.34552618550E+03  0.25500000000E-02 0. -1.
     200001    2    1    2    0    0  0.36502623886E+03  0.25793711239E+03  0.59316954740E+03  0.96314921021E+03  0.61321332353E+03 0.  0.
    5000001    2    3    3    0    0  0.49784990701E+03  0.28648991658E+03  0.52463180917E+03  0.78051347709E+03  0.63496066991E+02 0.  0.
        -13    1    4    4    0    0  0.25216477705E+03  0.11990400323E+03  0.26673324278E+03  0.38614851902E+03  0.10566000000E+00 0. -1.
     200003    1    4    4    0    0  0.24568512996E+03  0.16658591335E+03  0.25789856639E+03  0.39436495807E+03  0.30000000000E+02 0. -1.
     200000    1    3    3    0    0 -0.13282366815E+03 -0.28552804193E+02  0.68537738234E+02  0.18263573311E+03  0.10100000000E+03 0.  1.
    -200001    1    1    2    0    0 -0.36502623886E+03 -0.25793711239E+03  0.73574771855E+03  0.10568204267E+04  0.61300000000E+03 0.  1.
<mgrwt>
<rscale>  0 0.15212680E+04</rscale>
<asrwt>0</asrwt>
<pdfrwt beam="1">  1        2 0.23920621E+00 0.15212680E+04</pdfrwt>
<pdfrwt beam="2">  1       -2 0.49360884E-01 0.15212680E+04</pdfrwt>
<totfact> 0.44387411E+01</totfact>
</mgrwt>
</event>
<event>
 8    1  0.7685004E-052  0.1314253E+04  0.7818608E-02  0.9018338E-01
          2   -1    0    0  501    0  0.00000000000E+00  0.00000000000E+00  0.15281472577E+04  0.15281472577E+04  0.25500000000E-02 0.  1.
         -2   -1    0    0    0  501 -0.00000000000E+00 -0.00000000000E+00 -0.28257446538E+03  0.28257446539E+03  0.25500000000E-02 0. -1.
     200001    2    1    2    0    0  0.12074114525E+03  0.20053525999E+03  0.71282828826E+03  0.96551256478E+03  0.60769855155E+03 0.  0.
    5000001    2    3    3    0    0 -0.12515756300E+03 -0.86228977599E+02  0.37838316507E+02  0.18544053949E+03  0.99280427757E+02 0.  0.
        -13    1    4    4    0    0 -0.68678223199E+02 -0.41448916167E+02  0.64510613841E+02  0.10293853241E+03  0.10566000000E+00 0. -1.
     200003    1    4    4    0    0 -0.56479339801E+02 -0.44780061432E+02 -0.26672297335E+02  0.82502007075E+02  0.30000000000E+02 0. -1.
     200000    1    3    3    0    0  0.24589870825E+03  0.28676423759E+03  0.67498997176E+03  0.78007202529E+03  0.10100000000E+03 0.  1.
    -200001    1    1    2    0    0 -0.12074114525E+03 -0.20053525999E+03  0.53274450401E+03  0.84520915826E+03  0.61300000000E+03 0.  1.
<mgrwt>
<rscale>  0 0.13142532E+04</rscale>
<asrwt>0</asrwt>
<pdfrwt beam="1">  1        2 0.21830675E+00 0.13142532E+04</pdfrwt>
<pdfrwt beam="2">  1       -2 0.40367780E-01 0.13142532E+04</pdfrwt>
<totfact> 0.80335485E+01</totfact>
</mgrwt>
</event>
<event>
 8    1  0.7685004E-052  0.1277757E+04  0.7818608E-02  0.9047392E-01
          2   -1    0    0  501    0  0.00000000000E+00  0.00000000000E+00  0.30786598671E+04  0.30786598671E+04  0.25500000000E-02 0.  1.
         -2   -1    0    0    0  501 -0.00000000000E+00 -0.00000000000E+00 -0.13257911426E+03  0.13257911429E+03  0.25500000000E-02 0. -1.
     200001    2    1    2    0    0  0.16773663582E+03  0.36200847288E+02  0.13407735822E+04  0.14843266522E+04  0.61327459721E+03 0.  0.
    5000001    2    3    3    0    0  0.32587462517E+03 -0.87147702982E+02  0.45458547234E+03  0.57013145727E+03  0.67918579447E+02 0.  0.
        -13    1    4    4    0    0  0.21123666629E+02 -0.39073494683E+01  0.94672684495E+01  0.23475881403E+02  0.10566000000E+00 0. -1.
     200003    1    4    4    0    0  0.30475095854E+03 -0.83240353514E+02  0.44511820389E+03  0.54665557586E+03  0.30000000000E+02 0. -1.
     200000    1    3    3    0    0 -0.15813798935E+03  0.12334855027E+03  0.88618810983E+03  0.91419519498E+03  0.10100000000E+03 0. -1.
    -200001    1    1    2    0    0 -0.16773663582E+03 -0.36200847288E+02  0.16053071706E+04  0.17269123291E+04  0.61300000000E+03 0. -1.
<mgrwt>
<rscale>  0 0.12777574E+04</rscale>
<asrwt>0</asrwt>
<pdfrwt beam="1">  1        2 0.43980851E+00 0.12777574E+04</pdfrwt>
<pdfrwt beam="2">  1       -2 0.18939875E-01 0.12777574E+04</pdfrwt>
<totfact> 0.49691083E+01</totfact>
</mgrwt>
</event>
<event>
 8    1  0.7685004E-052  0.1548877E+04  0.7818608E-02  0.8852585E-01
          2   -1    0    0  501    0  0.00000000000E+00  0.00000000000E+00  0.10216705063E+04  0.10216705063E+04  0.25500000000E-02 0.  1.
         -2   -1    0    0    0  501 -0.00000000000E+00 -0.00000000000E+00 -0.58703386021E+03  0.58703386021E+03  0.25500000000E-02 0. -1.
     200001    2    1    2    0    0  0.24704411423E+03 -0.40146013974E+03  0.25041125431E+03  0.81377730495E+03  0.61426921426E+03 0.  0.
    5000001    2    3    3    0    0  0.13323158909E+03  0.95996054128E+02  0.22329120099E+03  0.29286228982E+03  0.94569876910E+02 0.  0.
        -13    1    4    4    0    0  0.57804001315E+02 -0.23073749998E+01  0.99900078299E+02  0.11544116837E+03  0.10566000000E+00 0. -1.
     200003    1    4    4    0    0  0.75427587776E+02  0.98303429127E+02  0.12339112270E+03  0.17742112145E+03  0.30000000000E+02 0. -1.
     200000    1    3    3    0    0  0.11381252514E+03 -0.49745619387E+03  0.27120053319E+02  0.52091501513E+03  0.10100000000E+03 0. -1.
    -200001    1    1    2    0    0 -0.24704411423E+03  0.40146013974E+03  0.18422539173E+03  0.79492706152E+03  0.61300000000E+03 0. -1.
<mgrwt>
<rscale>  0 0.15488772E+04</rscale>
<asrwt>0</asrwt>
<pdfrwt beam="1">  1        2 0.14595293E+00 0.15488772E+04</pdfrwt>
<pdfrwt beam="2">  1       -2 0.83861979E-01 0.15488772E+04</pdfrwt>
<totfact> 0.32648612E+01</totfact>
</mgrwt>
</event>
<event>
 8    1  0.7685004E-052  0.1937340E+04  0.7818608E-02  0.8636490E-01
          2   -1    0    0  501    0  0.00000000000E+00  0.00000000000E+00  0.88082029723E+03  0.88082029723E+03  0.25500000000E-02 0. -1.
         -2   -1    0    0    0  501 -0.00000000000E+00 -0.00000000000E+00 -0.10652816365E+04  0.10652816365E+04  0.25500000000E-02 0.  1.
     200001    2    1    2    0    0  0.27659515940E+03 -0.17019581974E+03  0.58699104979E+03  0.90861492762E+03  0.61282223760E+03 0.  0.
    5000001    2    3    3    0    0  0.18769232315E+03  0.18614281646E+03  0.40548663798E+03  0.48668390310E+03  0.50638440659E+02 0.  0.
        -13    1    4    4    0    0  0.85352127058E+02  0.79495000228E+02  0.20416184713E+03  0.23513083941E+03  0.10566000000E+00 0. -1.
     200003    1    4    4    0    0  0.10234019609E+03  0.10664781623E+03  0.20132479085E+03  0.25155306370E+03  0.30000000000E+02 0. -1.
     200000    1    3    3    0    0  0.88902836247E+02 -0.35633863620E+03  0.18150441182E+03  0.42193102452E+03  0.10100000000E+03 0. -1.
    -200001    1    1    2    0    0 -0.27659515940E+03  0.17019581974E+03 -0.77145238907E+03  0.10374870061E+04  0.61300000000E+03 0.  1.
<mgrwt>
<rscale>  0 0.19373401E+04</rscale>
<asrwt>0</asrwt>
<pdfrwt beam="1">  1        2 0.12583147E+00 0.19373401E+04</pdfrwt>
<pdfrwt beam="2">  1       -2 0.15218309E+00 0.19373401E+04</pdfrwt>
<totfact> 0.90433363E+00</totfact>
</mgrwt>
</event>
<event>
 8    1  0.7685004E-052  0.1466932E+04  0.7818608E-02  0.8906746E-01
          2   -1    0    0  501    0  0.00000000000E+00  0.00000000000E+00  0.19797985655E+04  0.19797985656E+04  0.25500000000E-02 0.  1.
         -2   -1    0    0    0  501 -0.00000000000E+00 -0.00000000000E+00 -0.27173081969E+03  0.27173081970E+03  0.25500000000E-02 0. -1.
     200001    2    1    2    0    0 -0.33211066781E+03  0.19747295999E+03  0.10301375793E+04  0.12592333728E+04  0.61252933750E+03 0.  0.
    5000001    2    3    3    0    0  0.11168033145E+03 -0.80803033316E+02  0.20908587283E+03  0.28009350324E+03  0.12543461130E+03 0.  0.
        -13    1    4    4    0    0  0.66135412855E+02 -0.46551968016E+02  0.19913038524E+03  0.21492766236E+03  0.10566000000E+00 0. -1.
     200003    1    4    4    0    0  0.45544918599E+02 -0.34251065299E+02  0.99554875999E+01  0.65165840881E+02  0.30000000000E+02 0. -1.
     200000    1    3    3    0    0 -0.44379099927E+03  0.27827599330E+03  0.82105170642E+03  0.97913986953E+03  0.10100000000E+03 0.  1.
    -200001    1    1    2    0    0  0.33211066781E+03 -0.19747295999E+03  0.67793016660E+03  0.99229601248E+03  0.61300000000E+03 0.  1.
<mgrwt>
<rscale>  0 0.14669319E+04</rscale>
<asrwt>0</asrwt>
<pdfrwt beam="1">  1        2 0.28282838E+00 0.14669319E+04</pdfrwt>
<pdfrwt beam="2">  1       -2 0.38818687E-01 0.14669319E+04</pdfrwt>
<totfact> 0.49978139E+01</totfact>
</mgrwt>
</event>
<event>
 8    1  0.7685004E-052  0.1552657E+04  0.7818608E-02  0.8850173E-01
         -2   -1    0    0    0  501 -0.00000000000E+00  0.00000000000E+00  0.31694494059E+03  0.31694494060E+03  0.25500000000E-02 0. -1.
          2   -1    0    0  501    0  0.00000000000E+00 -0.00000000000E+00 -0.19015472028E+04  0.19015472028E+04  0.25500000000E-02 0.  1.
     200001    2    1    2    0    0  0.11552898567E+03 -0.22042558385E+03 -0.21315791068E+03  0.69580931566E+03  0.61382401739E+03 0.  0.
    5000001    2    3    3    0    0 -0.11808642156E+03  0.11101064418E+03  0.64067019630E+02  0.19433070821E+03  0.85977177608E+02 0.  0.
        -13    1    4    4    0    0 -0.42141353974E+02  0.43642304407E+02 -0.14650903580E+02  0.62411574154E+02  0.10566000000E+00 0. -1.
     200003    1    4    4    0    0 -0.75945067588E+02  0.67368339773E+02  0.78717923210E+02  0.13191913405E+03  0.30000000000E+02 0. -1.
     200000    1    3    3    0    0  0.23361540723E+03 -0.33143622803E+03 -0.27722493031E+03  0.50147860745E+03  0.10100000000E+03 0. -1.
    -200001    1    1    2    0    0 -0.11552898567E+03  0.22042558385E+03 -0.13714443515E+04  0.15226828277E+04  0.61300000000E+03 0.  1.
<mgrwt>
<rscale>  0 0.15526568E+04</rscale>
<asrwt>0</asrwt>
<pdfrwt beam="1">  1        2 0.27164959E+00 0.15526568E+04</pdfrwt>
<pdfrwt beam="2">  1       -2 0.45277850E-01 0.15526568E+04</pdfrwt>
<totfact> 0.40209850E+01</totfact>
</mgrwt>
</event>
<event>
 8    1  0.7685004E-052  0.1520417E+04  0.7818608E-02  0.8870988E-01
         -2   -1    0    0    0  501 -0.00000000000E+00  0.00000000000E+00  0.60174519384E+03  0.60174519385E+03  0.25500000000E-02 0. -1.
          2   -1    0    0  501    0  0.00000000000E+00 -0.00000000000E+00 -0.96040105793E+03  0.96040105793E+03  0.25500000000E-02 0.  1.
     200001    2    1    2    0    0  0.24468070436E+03 -0.19374186222E+03 -0.51220370767E+03  0.85734096198E+03  0.61259801720E+03 0.  0.
    5000001    2    3    3    0    0  0.10718586138E+03 -0.15819277147E+03 -0.61220904766E+03  0.65641650421E+03  0.13988905296E+03 0.  0.
        -13    1    4    4    0    0  0.12307364993E+03 -0.15814163093E+03 -0.48528136403E+03  0.52502753469E+03  0.10566000000E+00 0. -1.
     200003    1    4    4    0    0 -0.15887788554E+02 -0.51140539825E-01 -0.12692768363E+03  0.13138896952E+03  0.30000000000E+02 0. -1.
     200000    1    3    3    0    0  0.13749484298E+03 -0.35549090748E+02  0.10000534000E+03  0.20092445776E+03  0.10100000000E+03 0.  1.
    -200001    1    1    2    0    0 -0.24468070436E+03  0.19374186222E+03  0.15354784358E+03  0.70480528980E+03  0.61300000000E+03 0. -1.
<mgrwt>
<rscale>  0 0.15204167E+04</rscale>
<asrwt>0</asrwt>
<pdfrwt beam="1">  1        2 0.13720015E+00 0.15204167E+04</pdfrwt>
<pdfrwt beam="2">  1       -2 0.85963599E-01 0.15204167E+04</pdfrwt>
<totfact> 0.33759863E+01</totfact>
</mgrwt>
</event>
<event>
 8    1  0.7685004E-052  0.1299662E+04  0.7818608E-02  0.9029833E-01
          2   -1    0    0  501    0  0.00000000000E+00  0.00000000000E+00  0.15107724994E+04  0.15107724994E+04  0.25500000000E-02 0.  1.
         -2   -1    0    0    0  501 -0.00000000000E+00 -0.00000000000E+00 -0.27951303530E+03  0.27951303531E+03  0.25500000000E-02 0. -1.
     200001    2    1    2    0    0  0.17845972661E+03  0.15796878669E+02  0.44983379458E+03  0.78108164432E+03  0.61289532300E+03 0.  0.
    5000001    2    3    3    0    0  0.17349660490E+03 -0.24710959448E+03  0.18279908299E+03  0.39294122721E+03  0.17269360064E+03 0.  0.
        -13    1    4    4    0    0  0.12120590118E+02 -0.57769455220E+02  0.12133343463E+03  0.13492973054E+03  0.10566000000E+00 0. -1.
     200003    1    4    4    0    0  0.16137601479E+03 -0.18934013926E+03  0.61465648357E+02  0.25801149667E+03  0.30000000000E+02 0. -1.
     200000    1    3    3    0    0  0.49631217050E+01  0.26290647315E+03  0.26703471159E+03  0.38814041711E+03  0.10100000000E+03 0.  1.
    -200001    1    1    2    0    0 -0.17845972661E+03 -0.15796878669E+02  0.78142566952E+03  0.10092038904E+04  0.61300000000E+03 0.  1.
<mgrwt>
<rscale>  0 0.12996624E+04</rscale>
<asrwt>0</asrwt>
<pdfrwt beam="1">  1        2 0.21582465E+00 0.12996624E+04</pdfrwt>
<pdfrwt beam="2">  1       -2 0.39930433E-01 0.12996624E+04</pdfrwt>
<totfact> 0.83910532E+01</totfact>
</mgrwt>
</event>
<event>
 8    1  0.7685004E-052  0.1541516E+04  0.7818608E-02  0.8857305E-01
         -2   -1    0    0    0  501 -0.00000000000E+00  0.00000000000E+00  0.25752180062E+03  0.25752180063E+03  0.25500000000E-02 0. -1.
          2   -1    0    0  501    0  0.00000000000E+00 -0.00000000000E+00 -0.23068631871E+04  0.23068631871E+04  0.25500000000E-02 0.  1.
     200001    2    1    2    0    0 -0.32644407844E+03  0.25253653734E+03 -0.66022951262E+03  0.99093615249E+03  0.61295269795E+03 0.  0.
    5000001    2    3    3    0    0 -0.47356243589E+02  0.39280998983E+03 -0.30543838862E+03  0.50756838080E+03  0.88265225483E+02 0.  0.
        -13    1    4    4    0    0  0.13406052209E+02  0.16261622147E+02 -0.27622903651E+02  0.34744763071E+02  0.10566000000E+00 0. -1.
     200003    1    4    4    0    0 -0.60762295799E+02  0.37654836768E+03 -0.27781548497E+03  0.47282361773E+03  0.30000000000E+02 0. -1.
     200000    1    3    3    0    0 -0.27908783485E+03 -0.14027345249E+03 -0.35479112400E+03  0.48336777169E+03  0.10100000000E+03 0. -1.
    -200001    1    1    2    0    0  0.32644407844E+03 -0.25253653734E+03 -0.13891118739E+04  0.15734488352E+04  0.61300000000E+03 0.  1.
<mgrwt>
<rscale>  0 0.15415156E+04</rscale>
<asrwt>0</asrwt>
<pdfrwt beam="1">  1        2 0.32955187E+00 0.15415156E+04</pdfrwt>
<pdfrwt beam="2">  1       -2 0.36788830E-01 0.15415156E+04</pdfrwt>
<totfact> 0.37397015E+01</totfact>
</mgrwt>
</event>
<event>
 8    1  0.7685004E-052  0.2218796E+04  0.7818608E-02  0.8510645E-01
          2   -1    0    0  501    0  0.00000000000E+00  0.00000000000E+00  0.14682611225E+04  0.14682611225E+04  0.25500000000E-02 0.  1.
         -2   -1    0    0    0  501 -0.00000000000E+00 -0.00000000000E+00 -0.83824559650E+03  0.83824559651E+03  0.25500000000E-02 0. -1.
     200001    2    1    2    0    0  0.52706086020E+03 -0.64083253565E+03 -0.10935001178E+03  0.10372983486E+04  0.61283843692E+03 0.  0.
    5000001    2    3    3    0    0 -0.43981706473E+02 -0.10652392859E+03 -0.19927192707E+03  0.24365973347E+03  0.79868810736E+02 0.  0.
        -13    1    4    4    0    0 -0.37791266651E+02 -0.79898650845E+02 -0.85936427467E+02  0.12327633581E+03  0.10566000000E+00 0. -1.
     200003    1    4    4    0    0 -0.61904398215E+01 -0.26625277747E+02 -0.11333549960E+03  0.12038339765E+03  0.30000000000E+02 0. -1.
     200000    1    3    3    0    0  0.57104256667E+03 -0.53430860706E+03  0.89921915295E+02  0.79363861510E+03  0.10100000000E+03 0. -1.
    -200001    1    1    2    0    0 -0.52706086020E+03  0.64083253565E+03  0.73936553774E+03  0.12692083704E+04  0.61300000000E+03 0.  1.
<mgrwt>
<rscale>  0 0.22187955E+04</rscale>
<asrwt>0</asrwt>
<pdfrwt beam="1">  1        2 0.20975159E+00 0.22187955E+04</pdfrwt>
<pdfrwt beam="2">  1       -2 0.11974937E+00 0.22187955E+04</pdfrwt>
<totfact> 0.74428464E+00</totfact>
</mgrwt>
</event>
<event>
 8    1  0.7685004E-052  0.1380313E+04  0.7818608E-02  0.8968194E-01
         -2   -1    0    0    0  501 -0.00000000000E+00  0.00000000000E+00  0.22457804140E+03  0.22457804142E+03  0.25500000000E-02 0. -1.
          2   -1    0    0  501    0  0.00000000000E+00 -0.00000000000E+00 -0.21209372402E+04  0.21209372402E+04  0.25500000000E-02 0.  1.
     200001    2    1    2    0    0  0.15808632004E+03 -0.10951167418E+02 -0.14135039655E+04  0.15492556575E+04  0.61407525530E+03 0.  0.
    5000001    2    3    3    0    0 -0.36000568593E+02  0.17932950481E+03 -0.13215702211E+03  0.23551007943E+03  0.67412215416E+02 0.  0.
        -13    1    4    4    0    0 -0.38664695924E+02  0.91008510212E+02 -0.48278955483E+02  0.11003806772E+03  0.10566000000E+00 0. -1.
     200003    1    4    4    0    0  0.26641273318E+01  0.88320994594E+02 -0.83878066626E+02  0.12547201171E+03  0.30000000000E+02 0. -1.
     200000    1    3    3    0    0  0.19408688863E+03 -0.19028067222E+03 -0.12813469434E+04  0.13137455781E+04  0.10100000000E+03 0.  1.
    -200001    1    1    2    0    0 -0.15808632004E+03  0.10951167418E+02 -0.48285523326E+03  0.79625962408E+03  0.61300000000E+03 0. -1.
<mgrwt>
<rscale>  0 0.13803129E+04</rscale>
<asrwt>0</asrwt>
<pdfrwt beam="1">  1        2 0.30299102E+00 0.13803129E+04</pdfrwt>
<pdfrwt beam="2">  1       -2 0.32082579E-01 0.13803129E+04</pdfrwt>
<totfact> 0.61309348E+01</totfact>
</mgrwt>
</event>
<event>
 8    1  0.7685004E-052  0.1797141E+04  0.7818608E-02  0.8707821E-01
          2   -1    0    0  501    0  0.00000000000E+00  0.00000000000E+00  0.12659491291E+04  0.12659491291E+04  0.25500000000E-02 0.  1.
         -2   -1    0    0    0  501 -0.00000000000E+00 -0.00000000000E+00 -0.63780549059E+03  0.63780549060E+03  0.25500000000E-02 0. -1.
     200001    2    1    2    0    0  0.69063982463E+02 -0.45125923445E+03  0.81362932505E+03  0.11172568954E+04  0.61470770409E+03 0.  0.
    5000001    2    3    3    0    0  0.60441207942E+02 -0.30059677760E+03  0.35398301130E+02  0.31812107798E+03  0.77048155171E+02 0.  0.
        -13    1    4    4    0    0  0.33747908830E+02 -0.60102251358E+02 -0.11346407488E+02  0.69856668226E+02  0.10566000000E+00 0. -1.
     200003    1    4    4    0    0  0.26693299112E+02 -0.24049452624E+03  0.46744708618E+02  0.24826440976E+03  0.30000000000E+02 0. -1.
     200000    1    3    3    0    0  0.86227745214E+01 -0.15066245686E+03  0.77823102392E+03  0.79913581746E+03  0.10100000000E+03 0.  1.
    -200001    1    1    2    0    0 -0.69063982463E+02  0.45125923445E+03 -0.18548568654E+03  0.78649772426E+03  0.61300000000E+03 0. -1.
<mgrwt>
<rscale>  0 0.17971414E+04</rscale>
<asrwt>0</asrwt>
<pdfrwt beam="1">  1        2 0.18084988E+00 0.17971414E+04</pdfrwt>
<pdfrwt beam="2">  1       -2 0.91115070E-01 0.17971414E+04</pdfrwt>
<totfact> 0.19084222E+01</totfact>
</mgrwt>
</event>
<event>
 8    1  0.7685004E-052  0.1302451E+04  0.7818608E-02  0.9027624E-01
          2   -1    0    0  501    0  0.00000000000E+00  0.00000000000E+00  0.17109208402E+04  0.17109208402E+04  0.25500000000E-02 0.  1.
         -2   -1    0    0    0  501 -0.00000000000E+00 -0.00000000000E+00 -0.24787513027E+03  0.24787513028E+03  0.25500000000E-02 0. -1.
     200001    2    1    2    0    0 -0.55324099502E+02  0.19349686903E+03  0.85900843584E+03  0.10749793476E+04  0.61415251418E+03 0.  0.
    5000001    2    3    3    0    0 -0.12001328040E+03  0.86379903288E+02  0.89599238143E+03  0.90997163052E+03  0.58149338817E+02 0.  0.
        -13    1    4    4    0    0 -0.47999251367E+02  0.47496825811E+02  0.49717288416E+03  0.50173774474E+03  0.10566000000E+00 0. -1.
     200003    1    4    4    0    0 -0.72014029032E+02  0.38883077477E+02  0.39881949727E+03  0.40823388578E+03  0.30000000000E+02 0. -1.
     200000    1    3    3    0    0  0.64689180897E+02  0.10711696574E+03 -0.36983945590E+02  0.16500771711E+03  0.10100000000E+03 0. -1.
    -200001    1    1    2    0    0  0.55324099502E+02 -0.19349686903E+03  0.60403727406E+03  0.88381662282E+03  0.61300000000E+03 0. -1.
<mgrwt>
<rscale>  0 0.13024511E+04</rscale>
<asrwt>0</asrwt>
<pdfrwt beam="1">  1        2 0.24441727E+00 0.13024511E+04</pdfrwt>
<pdfrwt beam="2">  1       -2 0.35410732E-01 0.13024511E+04</pdfrwt>
<totfact> 0.83114107E+01</totfact>
</mgrwt>
</event>
<event>
 8    1  0.7685004E-052  0.2008165E+04  0.7818608E-02  0.8602813E-01
          2   -1    0    0  501    0  0.00000000000E+00  0.00000000000E+00  0.39883904177E+04  0.39883904177E+04  0.25500000000E-02 0. -1.
         -2   -1    0    0    0  501 -0.00000000000E+00 -0.00000000000E+00 -0.25277897213E+03  0.25277897215E+03  0.25500000000E-02 0.  1.
     200001    2    1    2    0    0 -0.47372978944E+02 -0.79112492092E+03  0.17176797701E+04  0.19881846836E+04  0.61182653092E+03 0.  0.
    5000001    2    3    3    0    0 -0.49257790037E+02 -0.69180498687E+03  0.16817123499E+04  0.18420249863E+04  0.28961897830E+03 0.  0.
        -13    1    4    4    0    0  0.45507244581E+02 -0.21979338590E+02  0.34878093258E+02  0.61404341765E+02  0.10566000000E+00 0. -1.
     200003    1    4    4    0    0 -0.94765034618E+02 -0.66982564828E+03  0.16468342566E+04  0.17806206445E+04  0.30000000000E+02 0. -1.
     200000    1    3    3    0    0  0.18848110930E+01 -0.99319934049E+02  0.35967420233E+02  0.14615969735E+03  0.10100000000E+03 0.  1.
    -200001    1    1    2    0    0  0.47372978944E+02  0.79112492092E+03  0.20179316755E+04  0.22529847062E+04  0.61300000000E+03 0. -1.
<mgrwt>
<rscale>  0 0.20081646E+04</rscale>
<asrwt>0</asrwt>
<pdfrwt beam="1">  1        2 0.56977005E+00 0.20081646E+04</pdfrwt>
<pdfrwt beam="2">  1       -2 0.36111282E-01 0.20081646E+04</pdfrwt>
<totfact> 0.39251988E+00</totfact>
</mgrwt>
</event>
<event>
 8    1  0.7685004E-052  0.1310561E+04  0.7818608E-02  0.9021232E-01
          2   -1    0    0  501    0  0.00000000000E+00  0.00000000000E+00  0.12988474994E+04  0.12988474994E+04  0.25500000000E-02 0.  1.
         -2   -1    0    0    0  501 -0.00000000000E+00 -0.00000000000E+00 -0.33059506116E+03  0.33059506117E+03  0.25500000000E-02 0. -1.
     200001    2    1    2    0    0 -0.22683320134E+03  0.31641050686E+02  0.44300387630E+03  0.79033022653E+03  0.61311905470E+03 0.  0.
    5000001    2    3    3    0    0 -0.73871592048E+02 -0.26761883081E+03  0.22914886514E+03  0.37936952720E+03  0.11972963316E+03 0.  0.
        -13    1    4    4    0    0 -0.25469302386E+02 -0.84179447494E+00  0.39973482808E+02  0.47405532102E+02  0.10566000000E+00 0. -1.
     200003    1    4    4    0    0 -0.48402289662E+02 -0.26677703634E+03  0.18917538233E+03  0.33196399510E+03  0.30000000000E+02 0. -1.
     200000    1    3    3    0    0 -0.15296160929E+03  0.29925988150E+03  0.21385501116E+03  0.41096069933E+03  0.10100000000E+03 0. -1.
    -200001    1    1    2    0    0  0.22683320134E+03 -0.31641050686E+02  0.52524856191E+03  0.83911233402E+03  0.61300000000E+03 0.  1.
<mgrwt>
<rscale>  0 0.13105611E+04</rscale>
<asrwt>0</asrwt>
<pdfrwt beam="1">  1        2 0.18554965E+00 0.13105611E+04</pdfrwt>
<pdfrwt beam="2">  1       -2 0.47227865E-01 0.13105611E+04</pdfrwt>
<totfact> 0.78270927E+01</totfact>
</mgrwt>
</event>
<event>
 8    1  0.7685004E-052  0.1512348E+04  0.7818608E-02  0.8876283E-01
         -2   -1    0    0    0  501 -0.00000000000E+00  0.00000000000E+00  0.45152643819E+03  0.45152643820E+03  0.25500000000E-02 0. -1.
          2   -1    0    0  501    0  0.00000000000E+00 -0.00000000000E+00 -0.12663698415E+04  0.12663698415E+04  0.25500000000E-02 0.  1.
     200001    2    1    2    0    0  0.82672387980E+01 -0.25704843838E+02  0.93708409654E+02  0.62155487161E+03  0.61385674726E+03 0.  0.
    5000001    2    3    3    0    0 -0.43322825267E+02 -0.31614482629E+02 -0.24562366007E+03  0.26372291093E+03  0.79639491858E+02 0.  0.
        -13    1    4    4    0    0  0.19205558569E+02 -0.12581960240E+02 -0.78342082455E+02  0.81637321434E+02  0.10566000000E+00 0. -1.
     200003    1    4    4    0    0 -0.62528383837E+02 -0.19032522389E+02 -0.16728157762E+03  0.18208558950E+03  0.30000000000E+02 0. -1.
     200000    1    3    3    0    0  0.51590064065E+02  0.59096387910E+01  0.33933206973E+03  0.35783196068E+03  0.10100000000E+03 0. -1.
    -200001    1    1    2    0    0 -0.82672387980E+01  0.25704843838E+02 -0.90855181294E+03  0.10963414081E+04  0.61300000000E+03 0.  1.
<mgrwt>
<rscale>  0 0.15123485E+04</rscale>
<asrwt>0</asrwt>
<pdfrwt beam="1">  1        2 0.18090998E+00 0.15123485E+04</pdfrwt>
<pdfrwt beam="2">  1       -2 0.64503778E-01 0.15123485E+04</pdfrwt>
<totfact> 0.42067960E+01</totfact>
</mgrwt>
</event>
<event>
 8    1  0.7685004E-052  0.1671799E+04  0.7818608E-02  0.8777614E-01
          2   -1    0    0  501    0  0.00000000000E+00  0.00000000000E+00  0.47149189542E+04  0.47149189542E+04  0.25500000000E-02 0.  1.
         -2   -1    0    0    0  501 -0.00000000000E+00 -0.00000000000E+00 -0.14819518529E+03  0.14819518531E+03  0.25500000000E-02 0. -1.
     200001    2    1    2    0    0  0.25031866889E+03 -0.50703205388E+03  0.21260264644E+04  0.22838674914E+04  0.61345028418E+03 0.  0.
    5000001    2    3    3    0    0  0.43323560549E+03 -0.27188355584E+03  0.12339259218E+04  0.13379299670E+04  0.76613696024E+02 0.  0.
        -13    1    4    4    0    0  0.24002559205E+03 -0.11871315445E+03  0.68228213282E+03  0.73294885075E+03  0.10566000000E+00 0. -1.
     200003    1    4    4    0    0  0.19321001344E+03 -0.15317040139E+03  0.55164378893E+03  0.60498111625E+03  0.30000000000E+02 0. -1.
     200000    1    3    3    0    0 -0.18291693661E+03 -0.23514849804E+03  0.89210054264E+03  0.94593752436E+03  0.10100000000E+03 0. -1.
    -200001    1    1    2    0    0 -0.25031866889E+03  0.50703205388E+03  0.24406973045E+04  0.25792466481E+04  0.61300000000E+03 0.  1.
<mgrwt>
<rscale>  0 0.16717994E+04</rscale>
<asrwt>0</asrwt>
<pdfrwt beam="1">  1        2 0.67355992E+00 0.16717994E+04</pdfrwt>
<pdfrwt beam="2">  1       -2 0.21170739E-01 0.16717994E+04</pdfrwt>
<totfact> 0.30463653E+00</totfact>
</mgrwt>
</event>
<event>
 8    1  0.7685004E-052  0.2375897E+04  0.7818608E-02  0.8448583E-01
         -2   -1    0    0    0  501 -0.00000000000E+00  0.00000000000E+00  0.15745390167E+04  0.15745390167E+04  0.25500000000E-02 0. -1.
          2   -1    0    0  501    0  0.00000000000E+00 -0.00000000000E+00 -0.89627630885E+03  0.89627630885E+03  0.25500000000E-02 0.  1.
     200001    2    1    2    0    0  0.91807269272E+03 -0.24026478767E+02 -0.11603994136E+03  0.11106240010E+04  0.61366575823E+03 0.  0.
    5000001    2    3    3    0    0  0.35132218570E+03 -0.10263778420E+03 -0.32242242985E+03  0.49403612722E+03  0.78445387448E+02 0.  0.
        -13    1    4    4    0    0  0.11418170595E+03 -0.36388067441E+02 -0.64087404848E+02  0.13589981622E+03  0.10566000000E+00 0. -1.
     200003    1    4    4    0    0  0.23714047975E+03 -0.66249716763E+02 -0.25833502501E+03  0.35813631099E+03  0.30000000000E+02 0. -1.
     200000    1    3    3    0    0  0.56675050702E+03  0.78611305438E+02  0.20638248849E+03  0.61658787380E+03  0.10100000000E+03 0. -1.
    -200001    1    1    2    0    0 -0.91807269272E+03  0.24026478767E+02  0.79430264921E+03  0.13601913245E+04  0.61300000000E+03 0. -1.
<mgrwt>
<rscale>  0 0.23758973E+04</rscale>
<asrwt>0</asrwt>
<pdfrwt beam="1">  1        2 0.12803947E+00 0.23758973E+04</pdfrwt>
<pdfrwt beam="2">  1       -2 0.22493415E+00 0.23758973E+04</pdfrwt>
<totfact> 0.27228264E+00</totfact>
</mgrwt>
</event>
<event>
 8    1  0.7685004E-052  0.1290965E+04  0.7818608E-02  0.9036760E-01
          2   -1    0    0  501    0  0.00000000000E+00  0.00000000000E+00  0.87071181849E+03  0.87071181850E+03  0.25500000000E-02 0.  1.
         -2   -1    0    0    0  501 -0.00000000000E+00 -0.00000000000E+00 -0.47851416518E+03  0.47851416519E+03  0.25500000000E-02 0. -1.
     200001    2    1    2    0    0  0.16462711268E+03 -0.17863660999E+02  0.76778395161E+02  0.64022703797E+03  0.61365669684E+03 0.  0.
    5000001    2    3    3    0    0  0.43974738097E+02  0.48852104092E+02 -0.25113796102E+03  0.27044585206E+03  0.75831245290E+02 0.  0.
        -13    1    4    4    0    0  0.10362062899E+01  0.34049554381E+02 -0.40663984144E+02  0.53047305752E+02  0.10566000000E+00 0. -1.
     200003    1    4    4    0    0  0.42938531807E+02  0.14802549711E+02 -0.21047397688E+03  0.21739854630E+03  0.30000000000E+02 0. -1.
     200000    1    3    3    0    0  0.12065237459E+03 -0.66715765091E+02  0.32791635619E+03  0.36978118592E+03  0.10100000000E+03 0.  1.
    -200001    1    1    2    0    0 -0.16462711268E+03  0.17863660999E+02  0.31541925815E+03  0.70899894572E+03  0.61300000000E+03 0.  1.
<mgrwt>
<rscale>  0 0.12909654E+04</rscale>
<asrwt>0</asrwt>
<pdfrwt beam="1">  1        2 0.12438740E+00 0.12909654E+04</pdfrwt>
<pdfrwt beam="2">  1       -2 0.68359168E-01 0.12909654E+04</pdfrwt>
<totfact> 0.65366037E+01</totfact>
</mgrwt>
</event>
<event>
 8    1  0.7685004E-052  0.1325924E+04  0.7818608E-02  0.9009256E-01
          2   -1    0    0  501    0  0.00000000000E+00  0.00000000000E+00  0.27261339915E+04  0.27261339915E+04  0.25500000000E-02 0.  1.
         -2   -1    0    0    0  501 -0.00000000000E+00 -0.00000000000E+00 -0.16122404863E+03  0.16122404865E+03  0.25500000000E-02 0. -1.
     200001    2    1    2    0    0 -0.76327661306E+02  0.21463702296E+03  0.10403241069E+04  0.12284349151E+04  0.61227700412E+03 0.  0.
    5000001    2    3    3    0    0 -0.65207803061E+02  0.20343551773E+03  0.10916931652E+04  0.11140281621E+04  0.60222184634E+02 0.  0.
        -13    1    4    4    0    0 -0.57921246906E+00 -0.14011790479E+01  0.67446583737E+00  0.16627862190E+01  0.10566000000E+00 0. -1.
     200003    1    4    4    0    0 -0.64628590592E+02  0.20483669678E+03  0.10910186994E+04  0.11123653759E+04  0.30000000000E+02 0. -1.
     200000    1    3    3    0    0 -0.11119858245E+02  0.11201505226E+02 -0.51369058369E+02  0.11440675297E+03  0.10100000000E+03 0. -1.
    -200001    1    1    2    0    0  0.76327661306E+02 -0.21463702296E+03  0.15245858360E+04  0.16589231251E+04  0.61300000000E+03 0.  1.
<mgrwt>
<rscale>  0 0.13259236E+04</rscale>
<asrwt>0</asrwt>
<pdfrwt beam="1">  1        2 0.38944770E+00 0.13259236E+04</pdfrwt>
<pdfrwt beam="2">  1       -2 0.23032008E-01 0.13259236E+04</pdfrwt>
<totfact> 0.54625469E+01</totfact>
</mgrwt>
</event>
<event>
 8    1  0.7685004E-052  0.1248275E+04  0.7818608E-02  0.9071620E-01
          2   -1    0    0  501    0  0.00000000000E+00  0.00000000000E+00  0.31687006281E+03  0.31687006283E+03  0.25500000000E-02 0.  1.
         -2   -1    0    0    0  501 -0.00000000000E+00 -0.00000000000E+00 -0.12293600247E+04  0.12293600247E+04  0.25500000000E-02 0. -1.
     200001    2    1    2    0    0 -0.79882975444E+02  0.63698952159E+02 -0.48372385873E+03  0.79121471186E+03  0.61773222556E+03 0.  0.
    5000001    2    3    3    0    0  0.17554847656E+03 -0.16477164639E+03 -0.27103854640E+03  0.37542620414E+03  0.97549874649E+02 0.  0.
        -13    1    4    4    0    0  0.45023166495E+02 -0.86922041315E+02 -0.64423500315E+02  0.11718756480E+03  0.10566000000E+00 0. -1.
     200003    1    4    4    0    0  0.13052531007E+03 -0.77849605072E+02 -0.20661504609E+03  0.25823863934E+03  0.30000000000E+02 0. -1.
     200000    1    3    3    0    0 -0.25543145200E+03  0.22847059855E+03 -0.21268531232E+03  0.41578850772E+03  0.10100000000E+03 0.  1.
    -200001    1    1    2    0    0  0.79882975444E+02 -0.63698952159E+02 -0.42876610315E+03  0.75501537566E+03  0.61300000000E+03 0. -1.
<mgrwt>
<rscale>  0 0.12482746E+04</rscale>
<asrwt>0</asrwt>
<pdfrwt beam="1">  1        2 0.45267153E-01 0.12482746E+04</pdfrwt>
<pdfrwt beam="2">  1       -2 0.17562286E+00 0.12482746E+04</pdfrwt>
<totfact> 0.21470787E+01</totfact>
</mgrwt>
</event>
<event>
 8    1  0.7685004E-052  0.1724553E+04  0.7818608E-02  0.8747484E-01
         -2   -1    0    0    0  501 -0.00000000000E+00  0.00000000000E+00  0.27271694040E+03  0.27271694041E+03  0.25500000000E-02 0. -1.
          2   -1    0    0  501    0  0.00000000000E+00 -0.00000000000E+00 -0.27263454652E+04  0.27263454652E+04  0.25500000000E-02 0.  1.
     200001    2    1    2    0    0 -0.13602780535E+03  0.57790646255E+03 -0.10088158596E+04  0.13210480789E+04  0.61235540722E+03 0.  0.
    5000001    2    3    3    0    0 -0.34348591719E+02  0.62018703464E+03 -0.98968747222E+03  0.11704054406E+04  0.67496807215E+02 0.  0.
        -13    1    4    4    0    0  0.17003993296E+00  0.25445265288E+03 -0.44784489412E+03  0.51508372312E+03  0.10566000000E+00 0. -1.
     200003    1    4    4    0    0 -0.34518631652E+02  0.36573438176E+03 -0.54184257810E+03  0.65532171746E+03  0.30000000000E+02 0.  1.
     200000    1    3    3    0    0 -0.10167921363E+03 -0.42280572088E+02 -0.19128387389E+02  0.15064263827E+03  0.10100000000E+03 0. -1.
    -200001    1    1    2    0    0  0.13602780535E+03 -0.57790646255E+03 -0.14448126652E+04  0.16780143267E+04  0.61300000000E+03 0.  1.
<mgrwt>
<rscale>  0 0.17245528E+04</rscale>
<asrwt>0</asrwt>
<pdfrwt beam="1">  1        2 0.38947791E+00 0.17245528E+04</pdfrwt>
<pdfrwt beam="2">  1       -2 0.38959565E-01 0.17245528E+04</pdfrwt>
<totfact> 0.19809260E+01</totfact>
</mgrwt>
</event>
<event>
 8    1  0.7685004E-052  0.1457475E+04  0.7818608E-02  0.8913234E-01
          2   -1    0    0  501    0  0.00000000000E+00  0.00000000000E+00  0.12124418875E+04  0.12124418875E+04  0.25500000000E-02 0.  1.
         -2   -1    0    0    0  501 -0.00000000000E+00 -0.00000000000E+00 -0.43800750140E+03  0.43800750141E+03  0.25500000000E-02 0. -1.
     200001    2    1    2    0    0 -0.14761315046E+03  0.88481819286E+01  0.80084424323E+03  0.10193119925E+04  0.61300693607E+03 0.  0.
    5000001    2    3    3    0    0 -0.35042250149E+03 -0.98397688099E+02  0.55597442889E+03  0.66889005332E+03  0.76343324959E+02 0.  0.
        -13    1    4    4    0    0 -0.11777897063E+03 -0.49645234316E+02  0.14598843692E+03  0.19403394057E+03  0.10566000000E+00 0. -1.
     200003    1    4    4    0    0 -0.23264353086E+03 -0.48752453783E+02  0.40998599197E+03  0.47485611275E+03  0.30000000000E+02 0. -1.
     200000    1    3    3    0    0  0.20280935103E+03  0.10724587003E+03  0.24486981434E+03  0.35042193921E+03  0.10100000000E+03 0. -1.
    -200001    1    1    2    0    0  0.14761315046E+03 -0.88481819286E+01 -0.26409857177E+02  0.63113739635E+03  0.61300000000E+03 0. -1.
<mgrwt>
<rscale>  0 0.14574754E+04</rscale>
<asrwt>0</asrwt>
<pdfrwt beam="1">  1        2 0.17320598E+00 0.14574754E+04</pdfrwt>
<pdfrwt beam="2">  1       -2 0.62572502E-01 0.14574754E+04</pdfrwt>
<totfact> 0.48343381E+01</totfact>
</mgrwt>
</event>
<event>
 8    1  0.7685004E-052  0.1252739E+04  0.7818608E-02  0.9067907E-01
          2   -1    0    0  501    0  0.00000000000E+00  0.00000000000E+00  0.18201789283E+04  0.18201789283E+04  0.25500000000E-02 0.  1.
         -2   -1    0    0    0  501 -0.00000000000E+00 -0.00000000000E+00 -0.21554959393E+03  0.21554959394E+03  0.25500000000E-02 0. -1.
     200001    2    1    2    0    0  0.93893481287E+02  0.63308276877E+02  0.70304282430E+03  0.93962124697E+03  0.61302116702E+03 0.  0.
    5000001    2    3    3    0    0  0.98455183147E+02 -0.13711864623E+03  0.27427770208E+03  0.45564574071E+03  0.32231946410E+03 0.  0.
        -13    1    4    4    0    0  0.19776194611E+03 -0.16049110933E+03  0.16678431929E+03  0.30444080513E+03  0.10566000000E+00 0. -1.
     200003    1    4    4    0    0 -0.99306762958E+02  0.23372463103E+02  0.10749338279E+03  0.15120493558E+03  0.30000000000E+02 0. -1.
     200000    1    3    3    0    0 -0.45617018597E+01  0.20042692311E+03  0.42876512222E+03  0.48397550626E+03  0.10100000000E+03 0.  1.
    -200001    1    1    2    0    0 -0.93893481287E+02 -0.63308276877E+02  0.90158651004E+03  0.10961072752E+04  0.61300000000E+03 0. -1.
<mgrwt>
<rscale>  0 0.12527391E+04</rscale>
<asrwt>0</asrwt>
<pdfrwt beam="1">  1        2 0.26002558E+00 0.12527391E+04</pdfrwt>
<pdfrwt beam="2">  1       -2 0.30792797E-01 0.12527391E+04</pdfrwt>
<totfact> 0.95398365E+01</totfact>
</mgrwt>
</event>
<event>
 8    1  0.7685004E-052  0.1859685E+04  0.7818608E-02  0.8675188E-01
         -2   -1    0    0    0  501 -0.00000000000E+00  0.00000000000E+00  0.42779365902E+03  0.42779365903E+03  0.25500000000E-02 0. -1.
          2   -1    0    0  501    0  0.00000000000E+00 -0.00000000000E+00 -0.20210837184E+04  0.20210837184E+04  0.25500000000E-02 0.  1.
     200001    2    1    2    0    0  0.52902655705E+03  0.26450736737E+03 -0.12872338939E+04  0.15437405801E+04  0.61345793292E+03 0.  0.
    5000001    2    3    3    0    0  0.31061098858E+03  0.51553046305E+02 -0.13909138446E+03  0.35147923060E+03  0.71093835895E+02 0.  0.
        -13    1    4    4    0    0  0.13809156297E+03  0.19265529760E+02 -0.92839306577E+02  0.16750996511E+03  0.10566000000E+00 0. -1.
     200003    1    4    4    0    0  0.17251942561E+03  0.32287516545E+02 -0.46252077881E+02  0.18396926550E+03  0.30000000000E+02 0. -1.
     200000    1    3    3    0    0  0.21841556846E+03  0.21295432107E+03 -0.11481425095E+04  0.11922613495E+04  0.10100000000E+03 0.  1.
    -200001    1    1    2    0    0 -0.52902655705E+03 -0.26450736737E+03 -0.30605616540E+03  0.90513679730E+03  0.61300000000E+03 0. -1.
<mgrwt>
<rscale>  0 0.18596847E+04</rscale>
<asrwt>0</asrwt>
<pdfrwt beam="1">  1        2 0.28872624E+00 0.18596847E+04</pdfrwt>
<pdfrwt beam="2">  1       -2 0.61113381E-01 0.18596847E+04</pdfrwt>
<totfact> 0.18368102E+01</totfact>
</mgrwt>
</event>
<event>
 8    1  0.7685004E-052  0.2242313E+04  0.7818608E-02  0.8501020E-01
         -2   -1    0    0    0  501 -0.00000000000E+00  0.00000000000E+00  0.47168648556E+03  0.47168648557E+03  0.25500000000E-02 0.  1.
          2   -1    0    0  501    0  0.00000000000E+00 -0.00000000000E+00 -0.26648873837E+04  0.26648873837E+04  0.25500000000E-02 0. -1.
     200001    2    1    2    0    0 -0.45008177716E+03  0.45623459316E+03 -0.13754497203E+03  0.89777644728E+03  0.61348212676E+03 0.  0.
    5000001    2    3    3    0    0  0.11295952222E+03  0.18866755621E+03  0.56958246067E+02  0.23698894293E+03  0.67558987921E+02 0.  0.
        -13    1    4    4    0    0  0.83844478939E+02  0.14864747476E+03  0.30553224740E+02  0.17337669713E+03  0.10566000000E+00 0. -1.
     200003    1    4    4    0    0  0.29115043280E+02  0.40020081451E+02  0.26405021326E+02  0.63612245801E+02  0.30000000000E+02 0. -1.
     200000    1    3    3    0    0 -0.56304129938E+03  0.26756703694E+03 -0.19450321809E+03  0.66078750436E+03  0.10100000000E+03 0.  1.
    -200001    1    1    2    0    0  0.45008177716E+03 -0.45623459316E+03 -0.20556559261E+04  0.22387974220E+04  0.61300000000E+03 0. -1.
<mgrwt>
<rscale>  0 0.22423125E+04</rscale>
<asrwt>0</asrwt>
<pdfrwt beam="1">  1        2 0.38069819E+00 0.22423125E+04</pdfrwt>
<pdfrwt beam="2">  1       -2 0.67383785E-01 0.22423125E+04</pdfrwt>
<totfact> 0.66545040E+00</totfact>
</mgrwt>
</event>
<event>
 8    1  0.7685004E-052  0.2077322E+04  0.7818608E-02  0.8571299E-01
         -2   -1    0    0    0  501 -0.00000000000E+00  0.00000000000E+00  0.85582885331E+03  0.85582885331E+03  0.25500000000E-02 0. -1.
          2   -1    0    0  501    0  0.00000000000E+00 -0.00000000000E+00 -0.12605519668E+04  0.12605519669E+04  0.25500000000E-02 0.  1.
     200001    2    1    2    0    0 -0.59284338850E+03 -0.16994350078E+03 -0.78155835701E+03  0.11686900069E+04  0.61209377564E+03 0.  0.
    5000001    2    3    3    0    0 -0.14708915437E+03 -0.99125488183E+02 -0.66465879366E+03  0.69163808518E+03  0.71629931803E+02 0.  0.
        -13    1    4    4    0    0 -0.10550686981E+03 -0.65502422694E+02 -0.35851440589E+03  0.37941383389E+03  0.10566000000E+00 0. -1.
     200003    1    4    4    0    0 -0.41582284554E+02 -0.33623065488E+02 -0.30614438778E+03  0.31222425128E+03  0.30000000000E+02 0.  1.
     200000    1    3    3    0    0 -0.44575423413E+03 -0.70818012595E+02 -0.11689956335E+03  0.47705192177E+03  0.10100000000E+03 0. -1.
    -200001    1    1    2    0    0  0.59284338850E+03  0.16994350078E+03  0.37683524347E+03  0.94769081322E+03  0.61300000000E+03 0. -1.
<mgrwt>
<rscale>  0 0.20773221E+04</rscale>
<asrwt>0</asrwt>
<pdfrwt beam="1">  1        2 0.18007885E+00 0.20773221E+04</pdfrwt>
<pdfrwt beam="2">  1       -2 0.12226127E+00 0.20773221E+04</pdfrwt>
<totfact> 0.92830105E+00</totfact>
</mgrwt>
</event>
<event>
 8    1  0.7685004E-052  0.1817018E+04  0.7818608E-02  0.8697301E-01
         -2   -1    0    0    0  501 -0.00000000000E+00  0.00000000000E+00  0.78047591834E+03  0.78047591834E+03  0.25500000000E-02 0. -1.
          2   -1    0    0  501    0  0.00000000000E+00 -0.00000000000E+00 -0.10575455162E+04  0.10575455162E+04  0.25500000000E-02 0.  1.
     200001    2    1    2    0    0  0.65491126369E+03 -0.33070281482E+02 -0.28938506809E+02  0.90671029147E+03  0.62552674495E+03 0.  0.
    5000001    2    3    3    0    0  0.67646166414E+02 -0.23852384456E+03 -0.85269730160E+02  0.27388672381E+03  0.79204686362E+02 0.  0.
        -13    1    4    4    0    0  0.56133895480E+02 -0.11940289020E+03 -0.70593846717E+02  0.14963811936E+03  0.10566000000E+00 0. -1.
     200003    1    4    4    0    0  0.11512270933E+02 -0.11912095437E+03 -0.14675883443E+02  0.12424860444E+03  0.30000000000E+02 0. -1.
     200000    1    3    3    0    0  0.58726509728E+03  0.20545356308E+03  0.56331223351E+02  0.63282356766E+03  0.10100000000E+03 0. -1.
    -200001    1    1    2    0    0 -0.65491126369E+03  0.33070281482E+02 -0.24813109102E+03  0.93131114305E+03  0.61300000000E+03 0. -1.
<mgrwt>
<rscale>  0 0.18170182E+04</rscale>
<asrwt>0</asrwt>
<pdfrwt beam="1">  1        2 0.15107793E+00 0.18170182E+04</pdfrwt>
<pdfrwt beam="2">  1       -2 0.11149656E+00 0.18170182E+04</pdfrwt>
<totfact> 0.15578455E+01</totfact>
</mgrwt>
</event>
<event>
 8    1  0.7685004E-052  0.1300056E+04  0.7818608E-02  0.9029520E-01
         -2   -1    0    0    0  501 -0.00000000000E+00  0.00000000000E+00  0.32753292709E+03  0.32753292710E+03  0.25500000000E-02 0. -1.
          2   -1    0    0  501    0  0.00000000000E+00 -0.00000000000E+00 -0.12900584541E+04  0.12900584541E+04  0.25500000000E-02 0.  1.
     200001    2    1    2    0    0  0.11866113069E+03 -0.27154076508E+02 -0.25962395182E+03  0.67702908542E+03  0.61330740933E+03 0.  0.
    5000001    2    3    3    0    0  0.17210953698E+03 -0.18160614505E+03  0.67642494898E+02  0.29753402517E+03  0.14611127396E+03 0.  0.
        -13    1    4    4    0    0  0.63002248804E+02 -0.59457856651E+02  0.95251874808E+02  0.12875345001E+03  0.10566000000E+00 0. -1.
     200003    1    4    4    0    0  0.10910728818E+03 -0.12214828840E+03 -0.27609379910E+02  0.16878057516E+03  0.30000000000E+02 0. -1.
     200000    1    3    3    0    0 -0.53448406287E+02  0.15445206854E+03 -0.32726644671E+03  0.37949506025E+03  0.10100000000E+03 0.  1.
    -200001    1    1    2    0    0 -0.11866113069E+03  0.27154076508E+02 -0.70290157515E+03  0.94056229573E+03  0.61300000000E+03 0.  1.
<mgrwt>
<rscale>  0 0.13000563E+04</rscale>
<asrwt>0</asrwt>
<pdfrwt beam="1">  1        2 0.18429406E+00 0.13000563E+04</pdfrwt>
<pdfrwt beam="2">  1       -2 0.46790419E-01 0.13000563E+04</pdfrwt>
<totfact> 0.80710556E+01</totfact>
</mgrwt>
</event>
<event>
 8    1  0.7685004E-052  0.1467679E+04  0.7818608E-02  0.8906235E-01
         -2   -1    0    0    0  501 -0.00000000000E+00  0.00000000000E+00  0.43044429729E+03  0.43044429730E+03  0.25500000000E-02 0. -1.
          2   -1    0    0  501    0  0.00000000000E+00 -0.00000000000E+00 -0.12510800837E+04  0.12510800837E+04  0.25500000000E-02 0.  1.
     200001    2    1    2    0    0 -0.12262707523E+03  0.32303022701E+03 -0.64887851275E+03  0.95719331846E+03  0.61301696344E+03 0.  0.
    5000001    2    3    3    0    0 -0.11432629406E+03 -0.35040626684E+02  0.29830820379E+02  0.18315779078E+03  0.13549373214E+03 0.  0.
        -13    1    4    4    0    0 -0.13439212710E+03 -0.25823433013E+02  0.23557736057E+01  0.13687094049E+03  0.10566000000E+00 0. -1.
     200003    1    4    4    0    0  0.20065833038E+02 -0.92171936708E+01  0.27475046773E+02  0.46286850291E+02  0.30000000000E+02 0. -1.
     200000    1    3    3    0    0 -0.83007811710E+01  0.35807085370E+03 -0.67870933313E+03  0.77403552768E+03  0.10100000000E+03 0.  1.
    -200001    1    1    2    0    0  0.12262707523E+03 -0.32303022701E+03 -0.17175727370E+03  0.72433106258E+03  0.61300000000E+03 0.  1.
<mgrwt>
<rscale>  0 0.14676788E+04</rscale>
<asrwt>0</asrwt>
<pdfrwt beam="1">  1        2 0.17872573E+00 0.14676788E+04</pdfrwt>
<pdfrwt beam="2">  1       -2 0.61492043E-01 0.14676788E+04</pdfrwt>
<totfact> 0.47673369E+01</totfact>
</mgrwt>
</event>
<event>
 8    1  0.7685004E-052  0.1395952E+04  0.7818608E-02  0.8956754E-01
          2   -1    0    0  501    0  0.00000000000E+00  0.00000000000E+00  0.73087953400E+03  0.73087953400E+03  0.25500000000E-02 0.  1.
         -2   -1    0    0    0  501 -0.00000000000E+00 -0.00000000000E+00 -0.66655399193E+03  0.66655399193E+03  0.25500000000E-02 0. -1.
     200001    2    1    2    0    0 -0.73547901596E+02  0.24609406384E+03 -0.18218522915E+03  0.68855543880E+03  0.61232797788E+03 0.  0.
    5000001    2    3    3    0    0 -0.11785583519E+03 -0.16536045298E+03 -0.13773669654E+03  0.26026268326E+03  0.86782425800E+02 0.  0.
        -13    1    4    4    0    0 -0.95428619113E+02 -0.78306260083E+02 -0.97498989842E+02  0.15730402378E+03  0.10566000000E+00 0. -1.
     200003    1    4    4    0    0 -0.22427216080E+02 -0.87054192895E+02 -0.40237706694E+02  0.10295865948E+03  0.30000000000E+02 0. -1.
     200000    1    3    3    0    0  0.44307933597E+02  0.41145451682E+03 -0.44448532618E+02  0.42829275554E+03  0.10100000000E+03 0.  1.
    -200001    1    1    2    0    0  0.73547901596E+02 -0.24609406384E+03  0.24651077122E+03  0.70887808713E+03  0.61300000000E+03 0.  1.
<mgrwt>
<rscale>  0 0.13959522E+04</rscale>
<asrwt>0</asrwt>
<pdfrwt beam="1">  1        2 0.10441136E+00 0.13959522E+04</pdfrwt>
<pdfrwt beam="2">  1       -2 0.95221999E-01 0.13959522E+04</pdfrwt>
<totfact> 0.38561830E+01</totfact>
</mgrwt>
</event>
<event>
 8    1  0.7685004E-052  0.1666068E+04  0.7818608E-02  0.8780957E-01
          2   -1    0    0  501    0  0.00000000000E+00  0.00000000000E+00  0.34222914283E+04  0.34222914283E+04  0.25500000000E-02 0.  1.
         -2   -1    0    0    0  501 -0.00000000000E+00 -0.00000000000E+00 -0.20277230486E+03  0.20277230488E+03  0.25500000000E-02 0. -1.
     200001    2    1    2    0    0  0.47681438178E+02  0.47503080809E+03  0.95671767142E+03  0.12325823436E+04  0.61320693310E+03 0.  0.
    5000001    2    3    3    0    0  0.18093209595E+03  0.29291783737E+02  0.71510527639E+02  0.22747951155E+03  0.11418730521E+03 0.  0.
        -13    1    4    4    0    0  0.33326442197E+02 -0.15315087215E+01  0.65629338850E+02  0.73622133563E+02  0.10566000000E+00 0. -1.
     200003    1    4    4    0    0  0.14760565376E+03  0.30823292459E+02  0.58811887889E+01  0.15385737798E+03  0.30000000000E+02 0. -1.
     200000    1    3    3    0    0 -0.13325065777E+03  0.44573902435E+03  0.88520714378E+03  0.10051028321E+04  0.10100000000E+03 0.  1.
    -200001    1    1    2    0    0 -0.47681438178E+02 -0.47503080809E+03  0.22628014520E+04  0.23924813896E+04  0.61300000000E+03 0.  1.
<mgrwt>
<rscale>  0 0.16660683E+04</rscale>
<asrwt>0</asrwt>
<pdfrwt beam="1">  1        2 0.48889873E+00 0.16660683E+04</pdfrwt>
<pdfrwt beam="2">  1       -2 0.28967475E-01 0.16660683E+04</pdfrwt>
<totfact> 0.14119717E+01</totfact>
</mgrwt>
</event>
<event>
 8    1  0.7685004E-052  0.1295338E+04  0.7818608E-02  0.9033271E-01
         -2   -1    0    0    0  501 -0.00000000000E+00  0.00000000000E+00  0.12748777119E+03  0.12748777121E+03  0.25500000000E-02 0. -1.
          2   -1    0    0  501    0  0.00000000000E+00 -0.00000000000E+00 -0.32903152622E+04  0.32903152622E+04  0.25500000000E-02 0.  1.
     200001    2    1    2    0    0 -0.85776194291E+02  0.18378474608E+03 -0.17877011375E+04  0.18986335641E+04  0.60646489203E+03 0.  0.
    5000001    2    3    3    0    0  0.28450140821E+02 -0.63716538897E+02 -0.14310076035E+04  0.14384859586E+04  0.12880172269E+03 0.  0.
        -13    1    4    4    0    0  0.56678871250E+02 -0.79404045022E+02 -0.79714304070E+03  0.80309061464E+03  0.10566000000E+00 0. -1.
     200003    1    4    4    0    0 -0.28228730429E+02  0.15687506125E+02 -0.63386456284E+03  0.63539534394E+03  0.30000000000E+02 0. -1.
     200000    1    3    3    0    0 -0.11422633511E+03  0.24750128498E+03 -0.35669353397E+03  0.46014760553E+03  0.10100000000E+03 0.  1.
    -200001    1    1    2    0    0  0.85776194291E+02 -0.18378474608E+03 -0.13751263535E+04  0.15191694693E+04  0.61300000000E+03 0. -1.
<mgrwt>
<rscale>  0 0.12953377E+04</rscale>
<asrwt>0</asrwt>
<pdfrwt beam="1">  1        2 0.47004499E+00 0.12953377E+04</pdfrwt>
<pdfrwt beam="2">  1       -2 0.18212541E-01 0.12953377E+04</pdfrwt>
<totfact> 0.40202905E+01</totfact>
</mgrwt>
</event>
<event>
 8    1  0.7685004E-052  0.1461515E+04  0.7818608E-02  0.8910456E-01
          2   -1    0    0  501    0  0.00000000000E+00  0.00000000000E+00  0.66864509876E+03  0.66864509876E+03  0.25500000000E-02 0.  1.
         -2   -1    0    0    0  501 -0.00000000000E+00 -0.00000000000E+00 -0.79863922658E+03  0.79863922658E+03  0.25500000000E-02 0. -1.
     200001    2    1    2    0    0 -0.62643705532E+02  0.34278520361E+03  0.12822759957E+03  0.71636929010E+03  0.61263097607E+03 0.  0.
    5000001    2    3    3    0    0  0.20648405846E+03  0.26818801036E+03  0.32066035449E+02  0.40421141176E+03  0.21862790187E+03 0.  0.
        -13    1    4    4    0    0 -0.30796681852E+02  0.11095375450E+03 -0.68543547150E+01  0.11535234975E+03  0.10566000000E+00 0. -1.
     200003    1    4    4    0    0  0.23728074031E+03  0.15723425586E+03  0.38920390164E+02  0.28885906202E+03  0.30000000000E+02 0. -1.
     200000    1    3    3    0    0 -0.26912776399E+03  0.74597193256E+02  0.96161564118E+02  0.31215787833E+03  0.10100000000E+03 0. -1.
    -200001    1    1    2    0    0  0.62643705532E+02 -0.34278520361E+03 -0.25822172739E+03  0.75091503524E+03  0.61300000000E+03 0. -1.
<mgrwt>
<rscale>  0 0.14615146E+04</rscale>
<asrwt>0</asrwt>
<pdfrwt beam="1">  1        2 0.95520729E-01 0.14615146E+04</pdfrwt>
<pdfrwt beam="2">  1       -2 0.11409132E+00 0.14615146E+04</pdfrwt>
<totfact> 0.27791199E+01</totfact>
</mgrwt>
</event>
<event>
 8    1  0.7685004E-052  0.1395659E+04  0.7818608E-02  0.8956967E-01
         -2   -1    0    0    0  501 -0.00000000000E+00  0.00000000000E+00  0.15530901575E+03  0.15530901577E+03  0.25500000000E-02 0. -1.
          2   -1    0    0  501    0  0.00000000000E+00 -0.00000000000E+00 -0.31354665214E+04  0.31354665214E+04  0.25500000000E-02 0.  1.
     200001    2    1    2    0    0  0.30703840972E+03 -0.11690937440E+03 -0.16177565827E+04  0.17611201309E+04  0.61356936687E+03 0.  0.
    5000001    2    3    3    0    0 -0.47283572920E+02 -0.27573268981E+03 -0.80820519706E+03  0.85760291536E+03  0.63426078125E+02 0.  0.
        -13    1    4    4    0    0  0.11885895765E+02 -0.31666844551E+02 -0.87846189291E+02  0.94133031923E+02  0.10566000000E+00 0. -1.
     200003    1    4    4    0    0 -0.59169468685E+02 -0.24406584525E+03 -0.72035900777E+03  0.76346988344E+03  0.30000000000E+02 0. -1.
     200000    1    3    3    0    0  0.35432198264E+03  0.15882331541E+03 -0.80955138561E+03  0.90351721558E+03  0.10100000000E+03 0. -1.
    -200001    1    1    2    0    0 -0.30703840972E+03  0.11690937440E+03 -0.13624009230E+04  0.15296554063E+04  0.61300000000E+03 0. -1.
<mgrwt>
<rscale>  0 0.13956593E+04</rscale>
<asrwt>0</asrwt>
<pdfrwt beam="1">  1        2 0.44792375E+00 0.13956593E+04</pdfrwt>
<pdfrwt beam="2">  1       -2 0.22187004E-01 0.13956593E+04</pdfrwt>
<totfact> 0.34537007E+01</totfact>
</mgrwt>
</event>
<event>
 8    1  0.7685004E-052  0.2247554E+04  0.7818608E-02  0.8498892E-01
         -2   -1    0    0    0  501 -0.00000000000E+00  0.00000000000E+00  0.10907381011E+04  0.10907381011E+04  0.25500000000E-02 0. -1.
          2   -1    0    0  501    0  0.00000000000E+00 -0.00000000000E+00 -0.11578168147E+04  0.11578168147E+04  0.25500000000E-02 0.  1.
     200001    2    1    2    0    0 -0.14888421672E+03 -0.63679958271E+03  0.64513630763E+03  0.11036970841E+04  0.61177298033E+03 0.  0.
    5000001    2    3    3    0    0 -0.15731587617E+03 -0.63044500233E+03  0.28350194888E+03  0.72807508924E+03  0.16586378358E+03 0.  0.
        -13    1    4    4    0    0 -0.65916935786E+02 -0.25643903283E+03  0.20289014600E+03  0.33357224478E+03  0.10566000000E+00 0. -1.
     200003    1    4    4    0    0 -0.91398940386E+02 -0.37400596950E+03  0.80611802877E+02  0.39450284446E+03  0.30000000000E+02 0. -1.
     200000    1    3    3    0    0  0.84316594511E+01 -0.63545803780E+01  0.36163435876E+03  0.37562199484E+03  0.10100000000E+03 0.  1.
    -200001    1    1    2    0    0  0.14888421672E+03  0.63679958271E+03 -0.71221502117E+03  0.11448578317E+04  0.61300000000E+03 0.  1.
<mgrwt>
<rscale>  0 0.22475541E+04</rscale>
<asrwt>0</asrwt>
<pdfrwt beam="1">  1        2 0.16540240E+00 0.22475541E+04</pdfrwt>
<pdfrwt beam="2">  1       -2 0.15581973E+00 0.22475541E+04</pdfrwt>
<totfact> 0.55961488E+00</totfact>
</mgrwt>
</event>
<event>
 8    1  0.7685004E-052  0.1650974E+04  0.7818608E-02  0.8789830E-01
          2   -1    0    0  501    0  0.00000000000E+00  0.00000000000E+00  0.24749698712E+04  0.24749698712E+04  0.25500000000E-02 0.  1.
         -2   -1    0    0    0  501 -0.00000000000E+00 -0.00000000000E+00 -0.27532823409E+03  0.27532823410E+03  0.25500000000E-02 0. -1.
     200001    2    1    2    0    0 -0.21005619687E+03 -0.50018652053E+03  0.92692741979E+03  0.12370629484E+04  0.61385677120E+03 0.  0.
    5000001    2    3    3    0    0  0.34471446994E+02 -0.12545671044E+03  0.71889135127E+03  0.73338030525E+03  0.64142266487E+02 0.  0.
        -13    1    4    4    0    0 -0.58621401584E+01 -0.29410238313E+02  0.26648991371E+03  0.26817198228E+03  0.10566000000E+00 0. -1.
     200003    1    4    4    0    0  0.40333587152E+02 -0.96046472125E+02  0.45240143756E+03  0.46520832298E+03  0.30000000000E+02 0. -1.
     200000    1    3    3    0    0 -0.24452764387E+03 -0.37472981009E+03  0.20803606851E+03  0.50368264313E+03  0.10100000000E+03 0. -1.
    -200001    1    1    2    0    0  0.21005619687E+03  0.50018652053E+03  0.12727142173E+04  0.15132351569E+04  0.61300000000E+03 0. -1.
<mgrwt>
<rscale>  0 0.16509744E+04</rscale>
<asrwt>0</asrwt>
<pdfrwt beam="1">  1        2 0.35356714E+00 0.16509744E+04</pdfrwt>
<pdfrwt beam="2">  1       -2 0.39332604E-01 0.16509744E+04</pdfrwt>
<totfact> 0.26609298E+01</totfact>
</mgrwt>
</event>
<event>
 8    1  0.7685004E-052  0.1476083E+04  0.7818608E-02  0.8900515E-01
         -2   -1    0    0    0  501 -0.00000000000E+00  0.00000000000E+00  0.27731898259E+03  0.27731898260E+03  0.25500000000E-02 0. -1.
          2   -1    0    0  501    0  0.00000000000E+00 -0.00000000000E+00 -0.19641829894E+04  0.19641829894E+04  0.25500000000E-02 0.  1.
     200001    2    1    2    0    0 -0.16609611735E+03 -0.34141853410E+03 -0.10836260865E+04  0.13013852111E+04  0.61253851859E+03 0.  0.
    5000001    2    3    3    0    0  0.46246234389E+02  0.14058549289E+03 -0.37631368529E+03  0.41374283421E+03  0.87567962854E+02 0.  0.
        -13    1    4    4    0    0  0.20976224752E+02  0.48972723361E+02 -0.23411087351E+03  0.24009631796E+03  0.10566000000E+00 0. -1.
     200003    1    4    4    0    0  0.25270009637E+02  0.91612769530E+02 -0.14220281177E+03  0.17364651625E+03  0.30000000000E+02 0. -1.
     200000    1    3    3    0    0 -0.21234235174E+03 -0.48200402700E+03 -0.70731240118E+03  0.88764237688E+03  0.10100000000E+03 0. -1.
    -200001    1    1    2    0    0  0.16609611735E+03  0.34141853410E+03 -0.60323792039E+03  0.94011676095E+03  0.61300000000E+03 0.  1.
<mgrwt>
<rscale>  0 0.14760830E+04</rscale>
<asrwt>0</asrwt>
<pdfrwt beam="1">  1        2 0.28059756E+00 0.14760830E+04</pdfrwt>
<pdfrwt beam="2">  1       -2 0.39616998E-01 0.14760830E+04</pdfrwt>
<totfact> 0.48896313E+01</totfact>
</mgrwt>
</event>
<event>
 8    1  0.7685004E-052  0.1414559E+04  0.7818608E-02  0.8943347E-01
          2   -1    0    0  501    0  0.00000000000E+00  0.00000000000E+00  0.11092893439E+04  0.11092893439E+04  0.25500000000E-02 0.  1.
         -2   -1    0    0    0  501 -0.00000000000E+00 -0.00000000000E+00 -0.45095944789E+03  0.45095944790E+03  0.25500000000E-02 0. -1.
     200001    2    1    2    0    0  0.14303230764E+03  0.75055066265E+02  0.67582161566E+03  0.92608283227E+03  0.61221160722E+03 0.  0.
    5000001    2    3    3    0    0  0.33722527125E+03  0.13265165918E+03  0.32009530285E+03  0.50445446005E+03  0.14386088106E+03 0.  0.
        -13    1    4    4    0    0 -0.53149983998E+00 -0.11707760902E+02 -0.52628678666E+01  0.12847688494E+02  0.10566000000E+00 0. -1.
     200003    1    4    4    0    0  0.33775677109E+03  0.14435942008E+03  0.32535817072E+03  0.49160677156E+03  0.30000000000E+02 0. -1.
     200000    1    3    3    0    0 -0.19419296361E+03 -0.57596592915E+02  0.35572631281E+03  0.42162837222E+03  0.10100000000E+03 0. -1.
    -200001    1    1    2    0    0 -0.14303230764E+03 -0.75055066265E+02 -0.17491719637E+02  0.63416595955E+03  0.61300000000E+03 0. -1.
<mgrwt>
<rscale>  0 0.14145593E+04</rscale>
<asrwt>0</asrwt>
<pdfrwt beam="1">  1        2 0.15846991E+00 0.14145593E+04</pdfrwt>
<pdfrwt beam="2">  1       -2 0.64422777E-01 0.14145593E+04</pdfrwt>
<totfact> 0.52274963E+01</totfact>
</mgrwt>
</event>
<event>
 8    1  0.7685004E-052  0.1415622E+04  0.7818608E-02  0.8942588E-01
          2   -1    0    0  501    0  0.00000000000E+00  0.00000000000E+00  0.11674954308E+04  0.11674954308E+04  0.25500000000E-02 0.  1.
         -2   -1    0    0    0  501 -0.00000000000E+00 -0.00000000000E+00 -0.42912055480E+03  0.42912055481E+03  0.25500000000E-02 0. -1.
     200001    2    1    2    0    0  0.54994047157E+02  0.90458353167E+01  0.76277305905E+03  0.98060426195E+03  0.61372290700E+03 0.  0.
    5000001    2    3    3    0    0 -0.21010442853E+03 -0.12782002774E+02  0.98674362774E+02  0.25812122774E+03  0.11217258069E+03 0.  0.
        -13    1    4    4    0    0 -0.16039294986E+03 -0.50378631720E+02  0.81588354499E+02  0.18687047828E+03  0.10566000000E+00 0. -1.
     200003    1    4    4    0    0 -0.49711478668E+02  0.37596628946E+02  0.17086008275E+02  0.71250749457E+02  0.30000000000E+02 0. -1.
     200000    1    3    3    0    0  0.26509847569E+03  0.21827838091E+02  0.66409869628E+03  0.72248303421E+03  0.10100000000E+03 0.  1.
    -200001    1    1    2    0    0 -0.54994047157E+02 -0.90458353167E+01 -0.24398183047E+02  0.61601172367E+03  0.61300000000E+03 0. -1.
<mgrwt>
<rscale>  0 0.14156218E+04</rscale>
<asrwt>0</asrwt>
<pdfrwt beam="1">  1        2 0.16678506E+00 0.14156218E+04</pdfrwt>
<pdfrwt beam="2">  1       -2 0.61302937E-01 0.14156218E+04</pdfrwt>
<totfact> 0.53742778E+01</totfact>
</mgrwt>
</event>
<event>
 8    1  0.7685004E-052  0.1308674E+04  0.7818608E-02  0.9022715E-01
          2   -1    0    0  501    0  0.00000000000E+00  0.00000000000E+00  0.31182733473E+04  0.31182733473E+04  0.25500000000E-02 0.  1.
         -2   -1    0    0    0  501 -0.00000000000E+00 -0.00000000000E+00 -0.13730569768E+03  0.13730569771E+03  0.25500000000E-02 0. -1.
     200001    2    1    2    0    0  0.18159413871E+03  0.40108857186E+01  0.11436488744E+04  0.13101994419E+04  0.61294152349E+03 0.  0.
    5000001    2    3    3    0    0  0.37932149074E+02 -0.22774790664E+03  0.89500268771E+03  0.92760718993E+03  0.78213367787E+02 0.  0.
        -13    1    4    4    0    0  0.20819981140E+02 -0.19264156798E+03  0.74148333379E+03  0.76638227457E+03  0.10566000000E+00 0. -1.
     200003    1    4    4    0    0  0.17112167934E+02 -0.35106338657E+02  0.15351935392E+03  0.16122491536E+03  0.30000000000E+02 0.  1.
     200000    1    3    3    0    0  0.14366198963E+03  0.23175879236E+03  0.24864618665E+03  0.38259225193E+03  0.10100000000E+03 0. -1.
    -200001    1    1    2    0    0 -0.18159413871E+03 -0.40108857186E+01  0.18373187753E+04  0.19453796032E+04  0.61300000000E+03 0.  1.
<mgrwt>
<rscale>  0 0.13086737E+04</rscale>
<asrwt>0</asrwt>
<pdfrwt beam="1">  1        2 0.44546765E+00 0.13086737E+04</pdfrwt>
<pdfrwt beam="2">  1       -2 0.19615099E-01 0.13086737E+04</pdfrwt>
<totfact> 0.44269674E+01</totfact>
</mgrwt>
</event>
<event>
 8    1  0.7685004E-052  0.2463032E+04  0.7818608E-02  0.8416275E-01
          2   -1    0    0  501    0  0.00000000000E+00  0.00000000000E+00  0.13906922470E+04  0.13906922470E+04  0.25500000000E-02 0. -1.
         -2   -1    0    0    0  501 -0.00000000000E+00 -0.00000000000E+00 -0.10905586794E+04  0.10905586794E+04  0.25500000000E-02 0.  1.
     200001    2    1    2    0    0  0.24590553617E+03 -0.10296062291E+04 -0.22481557893E+01  0.12211865524E+04  0.60887849523E+03 0.  0.
    5000001    2    3    3    0    0  0.29160046627E+03 -0.45556257070E+03  0.22873511316E+03  0.59256232532E+03  0.79008035359E+02 0.  0.
        -13    1    4    4    0    0  0.16927298307E+03 -0.31580841418E+03  0.14261317933E+03  0.38565117314E+03  0.10566000000E+00 0. -1.
     200003    1    4    4    0    0  0.12232748320E+03 -0.13975415652E+03  0.86121933828E+02  0.20691115218E+03  0.30000000000E+02 0. -1.
     200000    1    3    3    0    0 -0.45694930100E+02 -0.57404365841E+03 -0.23098326895E+03  0.62862422713E+03  0.10100000000E+03 0.  1.
    -200001    1    1    2    0    0 -0.24590553617E+03  0.10296062291E+04  0.30238172340E+03  0.12600643739E+04  0.61300000000E+03 0.  1.
<mgrwt>
<rscale>  0 0.24630319E+04</rscale>
<asrwt>0</asrwt>
<pdfrwt beam="1">  1        2 0.19867032E+00 0.24630319E+04</pdfrwt>
<pdfrwt beam="2">  1       -2 0.15579410E+00 0.24630319E+04</pdfrwt>
<totfact> 0.40787690E+00</totfact>
</mgrwt>
</event>
<event>
 8    1  0.7685004E-052  0.1294161E+04  0.7818608E-02  0.9034208E-01
         -2   -1    0    0    0  501 -0.00000000000E+00  0.00000000000E+00  0.82585481945E+03  0.82585481945E+03  0.25500000000E-02 0. -1.
          2   -1    0    0  501    0  0.00000000000E+00 -0.00000000000E+00 -0.50700596528E+03  0.50700596529E+03  0.25500000000E-02 0.  1.
     200001    2    1    2    0    0 -0.40245078298E+02  0.12969825558E+03  0.32130633166E+03  0.70499428379E+03  0.61264824947E+03 0.  0.
    5000001    2    3    3    0    0  0.21483929801E+03 -0.85723122278E+02  0.25231641718E+03  0.34941726348E+03  0.70174582128E+02 0.  0.
        -13    1    4    4    0    0 -0.22137369875E+01 -0.77854374034E+01  0.34508054909E+01  0.87995959898E+01  0.10566000000E+00 0. -1.
     200003    1    4    4    0    0  0.21705303499E+03 -0.77937684874E+02  0.24886561169E+03  0.34061766749E+03  0.30000000000E+02 0. -1.
     200000    1    3    3    0    0 -0.25508437631E+03  0.21542137785E+03  0.68989914481E+02  0.35557702031E+03  0.10100000000E+03 0.  1.
    -200001    1    1    2    0    0  0.40245078298E+02 -0.12969825558E+03 -0.24574774929E+01  0.62786650096E+03  0.61300000000E+03 0.  1.
<mgrwt>
<rscale>  0 0.12941612E+04</rscale>
<asrwt>0</asrwt>
<pdfrwt beam="1">  1        2 0.72429424E-01 0.12941612E+04</pdfrwt>
<pdfrwt beam="2">  1       -2 0.11797926E+00 0.12941612E+04</pdfrwt>
<totfact> 0.35924922E+01</totfact>
</mgrwt>
</event>
<event>
 8    1  0.7685004E-052  0.1507003E+04  0.7818608E-02  0.8879809E-01
          2   -1    0    0  501    0  0.00000000000E+00  0.00000000000E+00  0.20565448346E+04  0.20565448346E+04  0.25500000000E-02 0.  1.
         -2   -1    0    0    0  501 -0.00000000000E+00 -0.00000000000E+00 -0.27607706448E+03  0.27607706449E+03  0.25500000000E-02 0. -1.
     200001    2    1    2    0    0  0.41021849329E+02  0.20857493648E+03  0.29682555541E+03  0.71331664142E+03  0.61280414843E+03 0.  0.
    5000001    2    3    3    0    0  0.10978880725E+03 -0.77344841747E+02  0.20457183201E+02  0.29731244524E+03  0.26446244915E+03 0.  0.
        -13    1    4    4    0    0  0.29276901982E+02 -0.93827506749E+02 -0.10534693890E+03  0.14407889058E+03  0.10566000000E+00 0. -1.
     200003    1    4    4    0    0  0.80511905267E+02  0.16482665002E+02  0.12580412210E+03  0.15323355466E+03  0.30000000000E+02 0. -1.
     200000    1    3    3    0    0 -0.68766957921E+02  0.28591977823E+03  0.27636837221E+03  0.41600419618E+03  0.10100000000E+03 0.  1.
    -200001    1    1    2    0    0 -0.41021849329E+02 -0.20857493648E+03  0.14836422148E+04  0.16193052577E+04  0.61300000000E+03 0. -1.
<mgrwt>
<rscale>  0 0.15070035E+04</rscale>
<asrwt>0</asrwt>
<pdfrwt beam="1">  1        2 0.29379213E+00 0.15070035E+04</pdfrwt>
<pdfrwt beam="2">  1       -2 0.39439580E-01 0.15070035E+04</pdfrwt>
<totfact> 0.44113139E+01</totfact>
</mgrwt>
</event>
<event>
 8    1  0.7685004E-052  0.1311263E+04  0.7818608E-02  0.9020681E-01
          2   -1    0    0  501    0  0.00000000000E+00  0.00000000000E+00  0.37179786411E+03  0.37179786412E+03  0.25500000000E-02 0.  1.
         -2   -1    0    0    0  501 -0.00000000000E+00 -0.00000000000E+00 -0.11561453021E+04  0.11561453021E+04  0.25500000000E-02 0. -1.
     200001    2    1    2    0    0  0.57627296096E+02 -0.17938524317E+03 -0.53029798717E+03  0.83815327489E+03  0.62111592018E+03 0.  0.
    5000001    2    3    3    0    0  0.20179772511E+03 -0.27942089499E+03 -0.52682294655E+03  0.63565557084E+03  0.87847762179E+02 0.  0.
        -13    1    4    4    0    0 -0.21183646695E+01 -0.37838479417E+02 -0.49329293792E+02  0.62206337165E+02  0.10566000000E+00 0. -1.
     200003    1    4    4    0    0  0.20391608978E+03 -0.24158241557E+03 -0.47749365275E+03  0.57344923368E+03  0.30000000000E+02 0. -1.
     200000    1    3    3    0    0 -0.14417042902E+03  0.10003565182E+03 -0.34750406244E+01  0.20249770405E+03  0.10100000000E+03 0.  1.
    -200001    1    1    2    0    0 -0.57627296096E+02  0.17938524317E+03 -0.25404945084E+03  0.68978989134E+03  0.61300000000E+03 0.  1.
<mgrwt>
<rscale>  0 0.13112625E+04</rscale>
<asrwt>0</asrwt>
<pdfrwt beam="1">  1        2 0.53113981E-01 0.13112625E+04</pdfrwt>
<pdfrwt beam="2">  1       -2 0.16516361E+00 0.13112625E+04</pdfrwt>
<totfact> 0.21233292E+01</totfact>
</mgrwt>
</event>
<event>
 8    1  0.7685004E-052  0.1317379E+04  0.7818608E-02  0.9015896E-01
          2   -1    0    0  501    0  0.00000000000E+00  0.00000000000E+00  0.16058970932E+04  0.16058970932E+04  0.25500000000E-02 0.  1.
         -2   -1    0    0    0  501 -0.00000000000E+00 -0.00000000000E+00 -0.27017406660E+03  0.27017406661E+03  0.25500000000E-02 0. -1.
     200001    2    1    2    0    0  0.15003213923E+03 -0.90285070313E+01  0.93601689427E+03  0.11289934203E+04  0.61311284433E+03 0.  0.
    5000001    2    3    3    0    0  0.17569132697E+03  0.37047761787E+02  0.95070345564E+03  0.10141103860E+04  0.30387963982E+03 0.  0.
        -13    1    4    4    0    0 -0.37194506756E+02  0.10029171670E+03  0.49324523324E+03  0.50471054184E+03  0.10566000000E+00 0. -1.
     200003    1    4    4    0    0  0.21288583372E+03 -0.63243954913E+02  0.45745822241E+03  0.50939984421E+03  0.30000000000E+02 0. -1.
     200000    1    3    3    0    0 -0.25659187738E+02 -0.46076268818E+02 -0.14686561373E+02  0.11488303421E+03  0.10100000000E+03 0. -1.
    -200001    1    1    2    0    0 -0.15003213923E+03  0.90285070313E+01  0.39970613237E+03  0.74707773960E+03  0.61300000000E+03 0.  1.
<mgrwt>
<rscale>  0 0.13173788E+04</rscale>
<asrwt>0</asrwt>
<pdfrwt beam="1">  1        2 0.22941387E+00 0.13173788E+04</pdfrwt>
<pdfrwt beam="2">  1       -2 0.38596296E-01 0.13173788E+04</pdfrwt>
<totfact> 0.79772974E+01</totfact>
</mgrwt>
</event>
<event>
 8    1  0.7685004E-052  0.1410545E+04  0.7818608E-02  0.8946221E-01
          2   -1    0    0  501    0  0.00000000000E+00  0.00000000000E+00  0.98659624832E+03  0.98659624833E+03  0.25500000000E-02 0.  1.
         -2   -1    0    0    0  501 -0.00000000000E+00 -0.00000000000E+00 -0.50416696327E+03  0.50416696328E+03  0.25500000000E-02 0. -1.
     200001    2    1    2    0    0 -0.24467462256E+03 -0.24158238092E+03  0.21194117397E+03  0.73766259686E+03  0.61725143004E+03 0.  0.
    5000001    2    3    3    0    0  0.74272007105E+02  0.14568792210E+03 -0.10786231901E+02  0.17952843959E+03  0.73299496171E+02 0.  0.
        -13    1    4    4    0    0  0.73961030017E+02  0.10886340030E+03 -0.53542069086E+01  0.13171997792E+03  0.10566000000E+00 0. -1.
     200003    1    4    4    0    0  0.31097708756E+00  0.36824521796E+02 -0.54320249924E+01  0.47808461676E+02  0.30000000000E+02 0.  1.
     200000    1    3    3    0    0 -0.31894662967E+03 -0.38727030302E+03  0.22272740587E+03  0.55813415726E+03  0.10100000000E+03 0.  1.
    -200001    1    1    2    0    0  0.24467462256E+03  0.24158238092E+03  0.27048811108E+03  0.75310061475E+03  0.61300000000E+03 0. -1.
<mgrwt>
<rscale>  0 0.14105449E+04</rscale>
<asrwt>0</asrwt>
<pdfrwt beam="1">  1        2 0.14094232E+00 0.14105449E+04</pdfrwt>
<pdfrwt beam="2">  1       -2 0.72023853E-01 0.14105449E+04</pdfrwt>
<totfact> 0.48703480E+01</totfact>
</mgrwt>
</event>
<event>
 8    1  0.7685004E-052  0.1286205E+04  0.7818608E-02  0.9040577E-01
          2   -1    0    0  501    0  0.00000000000E+00  0.00000000000E+00  0.18377177626E+04  0.18377177626E+04  0.25500000000E-02 0.  1.
         -2   -1    0    0    0  501 -0.00000000000E+00 -0.00000000000E+00 -0.22505119017E+03  0.22505119019E+03  0.25500000000E-02 0. -1.
     200001    2    1    2    0    0 -0.73057612237E+02  0.17037372671E+03  0.90467038621E+03  0.11081003081E+04  0.61244849878E+03 0.  0.
    5000001    2    3    3    0    0  0.10093240584E+03  0.50138659378E+02  0.85814930359E+03  0.86915636292E+03  0.79443818165E+02 0.  0.
        -13    1    4    4    0    0  0.44948012053E+02 -0.78932365826E+00  0.15740713523E+03  0.16370083752E+03  0.10566000000E+00 0. -1.
     200003    1    4    4    0    0  0.55984393782E+02  0.50927983036E+02  0.70074216836E+03  0.70545552540E+03  0.30000000000E+02 0. -1.
     200000    1    3    3    0    0 -0.17399001807E+03  0.12023506733E+03  0.46521082613E+02  0.23894394517E+03  0.10100000000E+03 0. -1.
    -200001    1    1    2    0    0  0.73057612237E+02 -0.17037372671E+03  0.70799618620E+03  0.95466864468E+03  0.61300000000E+03 0. -1.
<mgrwt>
<rscale>  0 0.12862046E+04</rscale>
<asrwt>0</asrwt>
<pdfrwt beam="1">  1        2 0.26253111E+00 0.12862046E+04</pdfrwt>
<pdfrwt beam="2">  1       -2 0.32150170E-01 0.12862046E+04</pdfrwt>
<totfact> 0.85962427E+01</totfact>
</mgrwt>
</event>
<event>
 8    1  0.7685004E-052  0.1316022E+04  0.7818608E-02  0.9016955E-01
         -2   -1    0    0    0  501 -0.00000000000E+00  0.00000000000E+00  0.16922395846E+03  0.16922395848E+03  0.25500000000E-02 0. -1.
          2   -1    0    0  501    0  0.00000000000E+00 -0.00000000000E+00 -0.25586117806E+04  0.25586117806E+04  0.25500000000E-02 0.  1.
     200001    2    1    2    0    0  0.22966222773E+02  0.75143930945E+02 -0.16617346083E+04  0.17731513633E+04  0.61362023352E+03 0.  0.
    5000001    2    3    3    0    0 -0.98766552370E+02  0.24470828558E+03 -0.13850952618E+04  0.14121786955E+04  0.78248365366E+02 0.  0.
        -13    1    4    4    0    0 -0.76420758445E+02  0.10368977360E+03 -0.60549944649E+03  0.61904869949E+03  0.10566000000E+00 0. -1.
     200003    1    4    4    0    0 -0.22345793925E+02  0.14101851198E+03 -0.77959581535E+03  0.79312999599E+03  0.30000000000E+02 0. -1.
     200000    1    3    3    0    0  0.12173277514E+03 -0.16956435464E+03 -0.27663934649E+03  0.36097266785E+03  0.10100000000E+03 0.  1.
    -200001    1    1    2    0    0 -0.22966222773E+02 -0.75143930945E+02 -0.72765321383E+03  0.95468437577E+03  0.61300000000E+03 0. -1.
<mgrwt>
<rscale>  0 0.13160219E+04</rscale>
<asrwt>0</asrwt>
<pdfrwt beam="1">  1        2 0.36551595E+00 0.13160219E+04</pdfrwt>
<pdfrwt beam="2">  1       -2 0.24174853E-01 0.13160219E+04</pdfrwt>
<totfact> 0.61510767E+01</totfact>
</mgrwt>
</event>
<event>
 8    1  0.7685004E-052  0.1587204E+04  0.7818608E-02  0.8828448E-01
          2   -1    0    0  501    0  0.00000000000E+00  0.00000000000E+00  0.94268265460E+03  0.94268265461E+03  0.25500000000E-02 0.  1.
         -2   -1    0    0    0  501 -0.00000000000E+00 -0.00000000000E+00 -0.66809784824E+03  0.66809784824E+03  0.25500000000E-02 0. -1.
     200001    2    1    2    0    0  0.35357253910E+03 -0.17316030558E+03 -0.18273191730E+03  0.75060283656E+03  0.61238519971E+03 0.  0.
    5000001    2    3    3    0    0  0.12799021382E+02 -0.20609081269E+03 -0.30285492958E+03  0.37398426724E+03  0.74201655964E+02 0.  0.
        -13    1    4    4    0    0  0.34708924595E+02 -0.12113733528E+03 -0.18890200758E+03  0.22707475218E+03  0.10566000000E+00 0. -1.
     200003    1    4    4    0    0 -0.21909903213E+02 -0.84953477416E+02 -0.11395292200E+03  0.14690951507E+03  0.30000000000E+02 0.  1.
     200000    1    3    3    0    0  0.34077351772E+03  0.32930507113E+02  0.12012301228E+03  0.37661856932E+03  0.10100000000E+03 0.  1.
    -200001    1    1    2    0    0 -0.35357253910E+03  0.17316030558E+03  0.45731672366E+03  0.86017766629E+03  0.61300000000E+03 0. -1.
<mgrwt>
<rscale>  0 0.15872041E+04</rscale>
<asrwt>0</asrwt>
<pdfrwt beam="1">  1        2 0.13466895E+00 0.15872041E+04</pdfrwt>
<pdfrwt beam="2">  1       -2 0.95442551E-01 0.15872041E+04</pdfrwt>
<totfact> 0.27070958E+01</totfact>
</mgrwt>
</event>
<event>
 8    1  0.7685004E-052  0.1427733E+04  0.7818608E-02  0.8933985E-01
          2   -1    0    0  501    0  0.00000000000E+00  0.00000000000E+00  0.34665910945E+04  0.34665910945E+04  0.25500000000E-02 0. -1.
         -2   -1    0    0    0  501 -0.00000000000E+00 -0.00000000000E+00 -0.14700480953E+03  0.14700480955E+03  0.25500000000E-02 0.  1.
     200001    2    1    2    0    0  0.21170829053E+03 -0.20495864928E+03  0.11108690075E+04  0.13025291677E+04  0.61296315765E+03 0.  0.
    5000001    2    3    3    0    0  0.11171622888E+03 -0.46602907852E+02 -0.23194137578E+02  0.14867685032E+03  0.83153418388E+02 0.  0.
        -13    1    4    4    0    0  0.44468186355E+02 -0.33416166958E+02  0.23616775031E+02  0.60430315560E+02  0.10566000000E+00 0. -1.
     200003    1    4    4    0    0  0.67248042524E+02 -0.13186740894E+02 -0.46810912609E+02  0.88246534765E+02  0.30000000000E+02 0. -1.
     200000    1    3    3    0    0  0.99992061648E+02 -0.15835574143E+03  0.11340631451E+04  0.11538523174E+04  0.10100000000E+03 0. -1.
    -200001    1    1    2    0    0 -0.21170829053E+03  0.20495864928E+03  0.22087172774E+04  0.23110667364E+04  0.61300000000E+03 0. -1.
<mgrwt>
<rscale>  0 0.14277333E+04</rscale>
<asrwt>0</asrwt>
<pdfrwt beam="1">  1        2 0.49522727E+00 0.14277333E+04</pdfrwt>
<pdfrwt beam="2">  1       -2 0.21000688E-01 0.14277333E+04</pdfrwt>
<totfact> 0.24315382E+01</totfact>
</mgrwt>
</event>
<event>
 8    1  0.7685004E-052  0.1389837E+04  0.7818608E-02  0.8961208E-01
          2   -1    0    0  501    0  0.00000000000E+00  0.00000000000E+00  0.12772983646E+04  0.12772983646E+04  0.25500000000E-02 0.  1.
         -2   -1    0    0    0  501 -0.00000000000E+00 -0.00000000000E+00 -0.37807294762E+03  0.37807294763E+03  0.25500000000E-02 0. -1.
     200001    2    1    2    0    0 -0.30670123964E+03 -0.10051997418E+03  0.38304742060E+03  0.79143923183E+03  0.61276489427E+03 0.  0.
    5000001    2    3    3    0    0 -0.11579755884E+03 -0.16105602152E+03 -0.11491644972E+03  0.24529104268E+03  0.87257025502E+02 0.  0.
        -13    1    4    4    0    0 -0.25274750212E+02 -0.59924495861E+02 -0.77828075626E+02  0.10142474413E+03  0.10566000000E+00 0. -1.
     200003    1    4    4    0    0 -0.90522808625E+02 -0.10113152566E+03 -0.37088374097E+02  0.14386629855E+03  0.30000000000E+02 0. -1.
     200000    1    3    3    0    0 -0.19090368080E+03  0.60536047340E+02  0.49796387032E+03  0.54614818916E+03  0.10100000000E+03 0.  1.
    -200001    1    1    2    0    0  0.30670123964E+03  0.10051997418E+03  0.51617799638E+03  0.86393208041E+03  0.61300000000E+03 0.  1.
<mgrwt>
<rscale>  0 0.13898373E+04</rscale>
<asrwt>0</asrwt>
<pdfrwt beam="1">  1        2 0.18247119E+00 0.13898373E+04</pdfrwt>
<pdfrwt beam="2">  1       -2 0.54010422E-01 0.13898373E+04</pdfrwt>
<totfact> 0.60834230E+01</totfact>
</mgrwt>
</event>
<event>
 8    1  0.7685004E-052  0.1492209E+04  0.7818608E-02  0.8889650E-01
         -2   -1    0    0    0  501 -0.00000000000E+00  0.00000000000E+00  0.29910957977E+03  0.29910957978E+03  0.25500000000E-02 0. -1.
          2   -1    0    0  501    0  0.00000000000E+00 -0.00000000000E+00 -0.18610971980E+04  0.18610971980E+04  0.25500000000E-02 0.  1.
     200001    2    1    2    0    0 -0.17031876290E+03 -0.30214592551E+03 -0.42117577558E+03  0.81949006586E+03  0.61145260880E+03 0.  0.
    5000001    2    3    3    0    0 -0.22581022472E+03  0.11617316492E+03 -0.16589674925E+03  0.31606326380E+03  0.88813250546E+02 0.  0.
        -13    1    4    4    0    0 -0.15572349507E+03  0.67166883025E+02 -0.14482855031E+03  0.22301685417E+03  0.10566000000E+00 0. -1.
     200003    1    4    4    0    0 -0.70086729653E+02  0.49006281896E+02 -0.21068198937E+02  0.93046409631E+02  0.30000000000E+02 0. -1.
     200000    1    3    3    0    0  0.55491461827E+02 -0.41831909043E+03 -0.25527902633E+03  0.50342680206E+03  0.10100000000E+03 0.  1.
    -200001    1    1    2    0    0  0.17031876290E+03  0.30214592551E+03 -0.11408118427E+04  0.13407167120E+04  0.61300000000E+03 0.  1.
<mgrwt>
<rscale>  0 0.14922091E+04</rscale>
<asrwt>0</asrwt>
<pdfrwt beam="1">  1        2 0.26587102E+00 0.14922091E+04</pdfrwt>
<pdfrwt beam="2">  1       -2 0.42729941E-01 0.14922091E+04</pdfrwt>
<totfact> 0.47557304E+01</totfact>
</mgrwt>
</event>
<event>
 8    1  0.7685004E-052  0.1425236E+04  0.7818608E-02  0.8935751E-01
         -2   -1    0    0    0  501 -0.00000000000E+00  0.00000000000E+00  0.51333972077E+03  0.51333972077E+03  0.25500000000E-02 0.  1.
          2   -1    0    0  501    0  0.00000000000E+00 -0.00000000000E+00 -0.98925586448E+03  0.98925586448E+03  0.25500000000E-02 0. -1.
     200001    2    1    2    0    0  0.27826613976E+03  0.13248383853E+03 -0.42779826479E+03  0.81479594708E+03  0.62120613970E+03 0.  0.
    5000001    2    3    3    0    0  0.10934148568E+02  0.29665981757E+03 -0.28799957496E+03  0.45679480282E+03  0.19388433083E+03 0.  0.
        -13    1    4    4    0    0 -0.52545295963E+02  0.19920676494E+03 -0.26304029636E+03  0.33411757212E+03  0.10566000000E+00 0. -1.
     200003    1    4    4    0    0  0.63479444532E+02  0.97453052627E+02 -0.24959278606E+02  0.12267723070E+03  0.30000000000E+02 0. -1.
     200000    1    3    3    0    0  0.26733199119E+03 -0.16417597905E+03 -0.13979868983E+03  0.35800114425E+03  0.10100000000E+03 0.  1.
    -200001    1    1    2    0    0 -0.27826613976E+03 -0.13248383853E+03 -0.48117878922E+02  0.68779963818E+03  0.61300000000E+03 0.  1.
<mgrwt>
<rscale>  0 0.14252359E+04</rscale>
<asrwt>0</asrwt>
<pdfrwt beam="1">  1        2 0.14132227E+00 0.14252359E+04</pdfrwt>
<pdfrwt beam="2">  1       -2 0.73334246E-01 0.14252359E+04</pdfrwt>
<totfact> 0.46581116E+01</totfact>
</mgrwt>
</event>
<event>
 8    1  0.7685004E-052  0.1292447E+04  0.7818608E-02  0.9035576E-01
          2   -1    0    0  501    0  0.00000000000E+00  0.00000000000E+00  0.18769648354E+04  0.18769648354E+04  0.25500000000E-02 0.  1.
         -2   -1    0    0    0  501 -0.00000000000E+00 -0.00000000000E+00 -0.22248933711E+03  0.22248933713E+03  0.25500000000E-02 0. -1.
     200001    2    1    2    0    0 -0.46204489141E+02 -0.19004124577E+03  0.72676161874E+03  0.97044019023E+03  0.61263462393E+03 0.  0.
    5000001    2    3    3    0    0  0.13844197360E+03  0.13900253689E+03  0.10669696845E+03  0.23760644535E+03  0.81146130398E+02 0.  0.
        -13    1    4    4    0    0  0.85659624045E+02  0.74445202667E+02  0.23176800414E+02  0.11583106074E+03  0.10566000000E+00 0. -1.
     200003    1    4    4    0    0  0.52782349554E+02  0.64557334223E+02  0.83520168039E+02  0.12177538461E+03  0.30000000000E+02 0. -1.
     200000    1    3    3    0    0 -0.18464646274E+03 -0.32904378266E+03  0.62006465028E+03  0.73283374488E+03  0.10100000000E+03 0.  1.
    -200001    1    1    2    0    0  0.46204489141E+02  0.19004124577E+03  0.92771387955E+03  0.11290139823E+04  0.61300000000E+03 0. -1.
<mgrwt>
<rscale>  0 0.12924468E+04</rscale>
<asrwt>0</asrwt>
<pdfrwt beam="1">  1        2 0.26813783E+00 0.12924468E+04</pdfrwt>
<pdfrwt beam="2">  1       -2 0.31784192E-01 0.12924468E+04</pdfrwt>
<totfact> 0.83806876E+01</totfact>
</mgrwt>
</event>
<event>
 8    1  0.7685004E-052  0.1302427E+04  0.7818608E-02  0.9027643E-01
         -2   -1    0    0    0  501 -0.00000000000E+00  0.00000000000E+00  0.60756374192E+03  0.60756374192E+03  0.25500000000E-02 0. -1.
          2   -1    0    0  501    0  0.00000000000E+00 -0.00000000000E+00 -0.69799907243E+03  0.69799907244E+03  0.25500000000E-02 0.  1.
     200001    2    1    2    0    0 -0.87258511350E+02 -0.19584015561E+03  0.27085046011E+01  0.64950474652E+03  0.61309188985E+03 0.  0.
    5000001    2    3    3    0    0  0.22279043783E+03 -0.30369741098E+01 -0.86666669468E+02  0.26028457820E+03  0.10291815997E+03 0.  0.
        -13    1    4    4    0    0  0.20679555497E+03  0.26951938859E+01 -0.56296359523E+02  0.21433841673E+03  0.10566000000E+00 0. -1.
     200003    1    4    4    0    0  0.15994882858E+02 -0.57321679957E+01 -0.30370309945E+02  0.45946161469E+02  0.30000000000E+02 0.  1.
     200000    1    3    3    0    0 -0.31004894918E+03 -0.19280318150E+03  0.89375174069E+02  0.38922016832E+03  0.10100000000E+03 0. -1.
    -200001    1    1    2    0    0  0.87258511350E+02  0.19584015561E+03 -0.93143835116E+02  0.65605806784E+03  0.61300000000E+03 0.  1.
<mgrwt>
<rscale>  0 0.13024269E+04</rscale>
<asrwt>0</asrwt>
<pdfrwt beam="1">  1        2 0.99714153E-01 0.13024269E+04</pdfrwt>
<pdfrwt beam="2">  1       -2 0.86794820E-01 0.13024269E+04</pdfrwt>
<totfact> 0.50932536E+01</totfact>
</mgrwt>
</event>
<event>
 8    1  0.7685004E-052  0.1752798E+04  0.7818608E-02  0.8731812E-01
         -2   -1    0    0    0  501 -0.00000000000E+00  0.00000000000E+00  0.71081734962E+03  0.71081734963E+03  0.25500000000E-02 0. -1.
          2   -1    0    0  501    0  0.00000000000E+00 -0.00000000000E+00 -0.10805515834E+04  0.10805515834E+04  0.25500000000E-02 0.  1.
     200001    2    1    2    0    0 -0.55346465549E+03 -0.29190449277E+03 -0.15839357720E+03  0.89027779948E+03  0.61316773982E+03 0.  0.
    5000001    2    3    3    0    0 -0.35284309355E+03 -0.43215131057E+03 -0.23997489869E+03  0.61319533335E+03  0.84661449027E+02 0.  0.
        -13    1    4    4    0    0 -0.10805272511E+03 -0.18915732018E+03 -0.84293978283E+02  0.23358375183E+03  0.10566000000E+00 0. -1.
     200003    1    4    4    0    0 -0.24479036844E+03 -0.24299399039E+03 -0.15568092040E+03  0.37961158152E+03  0.30000000000E+02 0. -1.
     200000    1    3    3    0    0 -0.20062156194E+03  0.14024681780E+03  0.81581321485E+02  0.27708246612E+03  0.10100000000E+03 0. -1.
    -200001    1    1    2    0    0  0.55346465549E+03  0.29190449277E+03 -0.21134065653E+03  0.90109113351E+03  0.61300000000E+03 0. -1.
<mgrwt>
<rscale>  0 0.17527975E+04</rscale>
<asrwt>0</asrwt>
<pdfrwt beam="1">  1        2 0.15436451E+00 0.17527975E+04</pdfrwt>
<pdfrwt beam="2">  1       -2 0.10154534E+00 0.17527975E+04</pdfrwt>
<totfact> 0.18994513E+01</totfact>
</mgrwt>
</event>
<event>
 8    1  0.7685004E-052  0.1384303E+04  0.7818608E-02  0.8965260E-01
          2   -1    0    0  501    0  0.00000000000E+00  0.00000000000E+00  0.27303159757E+04  0.27303159757E+04  0.25500000000E-02 0.  1.
         -2   -1    0    0    0  501 -0.00000000000E+00 -0.00000000000E+00 -0.17546463276E+03  0.17546463278E+03  0.25500000000E-02 0. -1.
     200001    2    1    2    0    0 -0.89915325574E+02 -0.18697981109E+03  0.17816674317E+04  0.18975005997E+04  0.61896968676E+03 0.  0.
    5000001    2    3    3    0    0  0.12832685091E+02  0.15093202263E+03  0.11316659640E+04  0.11508785607E+04  0.14459755945E+03 0.  0.
        -13    1    4    4    0    0  0.28117255803E+02  0.54452736595E+01  0.40856930130E+02  0.49895199997E+02  0.10566000000E+00 0. -1.
     200003    1    4    4    0    0 -0.15284570712E+02  0.14548674897E+03  0.10908090339E+04  0.11009833607E+04  0.30000000000E+02 0. -1.
     200000    1    3    3    0    0 -0.10274801066E+03 -0.33791183371E+03  0.65000146767E+03  0.74662203894E+03  0.10100000000E+03 0.  1.
    -200001    1    1    2    0    0  0.89915325574E+02  0.18697981109E+03  0.77318391128E+03  0.10082800088E+04  0.61300000000E+03 0. -1.
<mgrwt>
<rscale>  0 0.13843033E+04</rscale>
<asrwt>0</asrwt>
<pdfrwt beam="1">  1        2 0.39004511E+00 0.13843033E+04</pdfrwt>
<pdfrwt beam="2">  1       -2 0.25066378E-01 0.13843033E+04</pdfrwt>
<totfact> 0.46425523E+01</totfact>
</mgrwt>
</event>
<event>
 8    1  0.7685004E-052  0.1492886E+04  0.7818608E-02  0.8889197E-01
          2   -1    0    0  501    0  0.00000000000E+00  0.00000000000E+00  0.26845019518E+04  0.26845019518E+04  0.25500000000E-02 0.  1.
         -2   -1    0    0    0  501 -0.00000000000E+00 -0.00000000000E+00 -0.20755334202E+03  0.20755334204E+03  0.25500000000E-02 0. -1.
     200001    2    1    2    0    0 -0.31404187703E+03 -0.26877525788E+03  0.10367476408E+04  0.12731636141E+04  0.61256630475E+03 0.  0.
    5000001    2    3    3    0    0  0.58420452878E+02 -0.19585935311E+03  0.73990773171E+03  0.78086304735E+03  0.14321247064E+03 0.  0.
        -13    1    4    4    0    0  0.46910738825E+02 -0.28072514257E+02  0.36239254062E+03  0.36649290325E+03  0.10566000000E+00 0. -1.
     200003    1    4    4    0    0  0.11509714053E+02 -0.16778683886E+03  0.37751519109E+03  0.41437014410E+03  0.30000000000E+02 0. -1.
     200000    1    3    3    0    0 -0.37246232991E+03 -0.72915904762E+02  0.29683990909E+03  0.49230056672E+03  0.10100000000E+03 0. -1.
    -200001    1    1    2    0    0  0.31404187703E+03  0.26877525788E+03  0.14402009690E+04  0.16188916798E+04  0.61300000000E+03 0. -1.
<mgrwt>
<rscale>  0 0.14928863E+04</rscale>
<asrwt>0</asrwt>
<pdfrwt beam="1">  1        2 0.38350027E+00 0.14928863E+04</pdfrwt>
<pdfrwt beam="2">  1       -2 0.29650478E-01 0.14928863E+04</pdfrwt>
<totfact> 0.35757345E+01</totfact>
</mgrwt>
</event>
<event>
 8    1  0.7685004E-052  0.2107976E+04  0.7818608E-02  0.8557738E-01
         -2   -1    0    0    0  501 -0.00000000000E+00  0.00000000000E+00  0.10861669905E+04  0.10861669905E+04  0.25500000000E-02 0. -1.
          2   -1    0    0  501    0  0.00000000000E+00 -0.00000000000E+00 -0.10227619611E+04  0.10227619611E+04  0.25500000000E-02 0.  1.
     200001    2    1    2    0    0 -0.35293901542E+03 -0.71290053661E+03  0.35227283702E+03  0.10639376913E+04  0.61243296418E+03 0.  0.
    5000001    2    3    3    0    0 -0.17407187847E+03  0.21914413945E+02  0.21183808848E+03  0.28813527908E+03  0.85821342960E+02 0.  0.
        -13    1    4    4    0    0 -0.48024756272E+02 -0.12648995695E+02  0.18825422804E+02  0.53111034774E+02  0.10566000000E+00 0. -1.
     200003    1    4    4    0    0 -0.12604712220E+03  0.34563409640E+02  0.19301266568E+03  0.23502424431E+03  0.30000000000E+02 0. -1.
     200000    1    3    3    0    0 -0.17886713695E+03 -0.73481495055E+03  0.14043474854E+03  0.77580241224E+03  0.10100000000E+03 0. -1.
    -200001    1    1    2    0    0  0.35293901542E+03  0.71290053661E+03 -0.28886780766E+03  0.10449912603E+04  0.61300000000E+03 0.  1.
<mgrwt>
<rscale>  0 0.21079756E+04</rscale>
<asrwt>0</asrwt>
<pdfrwt beam="1">  1        2 0.14610885E+00 0.21079756E+04</pdfrwt>
<pdfrwt beam="2">  1       -2 0.15516671E+00 0.21079756E+04</pdfrwt>
<totfact> 0.68837103E+00</totfact>
</mgrwt>
</event>
<event>
 8    1  0.7685004E-052  0.2235669E+04  0.7818608E-02  0.8503727E-01
         -2   -1    0    0    0  501 -0.00000000000E+00  0.00000000000E+00  0.90550843291E+03  0.90550843291E+03  0.25500000000E-02 0. -1.
          2   -1    0    0  501    0  0.00000000000E+00 -0.00000000000E+00 -0.13799476484E+04  0.13799476484E+04  0.25500000000E-02 0.  1.
     200001    2    1    2    0    0  0.83845152489E+02  0.12474519443E+03  0.70601702916E+03  0.94686080317E+03  0.61277562124E+03 0.  0.
    5000001    2    3    3    0    0 -0.10785801285E+03 -0.13745127036E+03  0.39814483236E+02  0.19884748648E+03  0.86191224282E+02 0.  0.
        -13    1    4    4    0    0 -0.49559430428E+02 -0.81772050757E+02 -0.15089907409E+02  0.96801456078E+02  0.10566000000E+00 0. -1.
     200003    1    4    4    0    0 -0.58298582421E+02 -0.55679219608E+02  0.54904390645E+02  0.10204603040E+03  0.30000000000E+02 0. -1.
     200000    1    3    3    0    0  0.19170316534E+03  0.26219646479E+03  0.66620254593E+03  0.74801331669E+03  0.10100000000E+03 0. -1.
    -200001    1    1    2    0    0 -0.83845152489E+02 -0.12474519443E+03 -0.11804562447E+04  0.13385952782E+04  0.61300000000E+03 0.  1.
<mgrwt>
<rscale>  0 0.22356692E+04</rscale>
<asrwt>0</asrwt>
<pdfrwt beam="1">  1        2 0.19713538E+00 0.22356692E+04</pdfrwt>
<pdfrwt beam="2">  1       -2 0.12935835E+00 0.22356692E+04</pdfrwt>
<totfact> 0.68351413E+00</totfact>
</mgrwt>
</event>
<event>
 8    1  0.7685004E-052  0.1430029E+04  0.7818608E-02  0.8932364E-01
         -2   -1    0    0    0  501 -0.00000000000E+00  0.00000000000E+00  0.21721696996E+03  0.21721696998E+03  0.25500000000E-02 0. -1.
          2   -1    0    0  501    0  0.00000000000E+00 -0.00000000000E+00 -0.23536191846E+04  0.23536191846E+04  0.25500000000E-02 0.  1.
     200001    2    1    2    0    0 -0.18363831998E+03 -0.18422455968E+03 -0.15355023109E+04  0.16738905513E+04  0.61358007628E+03 0.  0.
    5000001    2    3    3    0    0 -0.76864774647E+02 -0.31901674317E+03 -0.13706864598E+04  0.14151729688E+04  0.12748837014E+03 0.  0.
        -13    1    4    4    0    0  0.27096508943E+02 -0.10232060488E+03 -0.52075835527E+03  0.53140662653E+03  0.10566000000E+00 0. -1.
     200003    1    4    4    0    0 -0.10396128359E+03 -0.21669613829E+03 -0.84992810456E+03  0.88376634229E+03  0.30000000000E+02 0. -1.
     200000    1    3    3    0    0 -0.10677354533E+03  0.13479218349E+03 -0.16481585102E+03  0.25871758244E+03  0.10100000000E+03 0. -1.
    -200001    1    1    2    0    0  0.18363831998E+03  0.18422455968E+03 -0.60089990379E+03  0.89694560333E+03  0.61300000000E+03 0. -1.
<mgrwt>
<rscale>  0 0.14300294E+04</rscale>
<asrwt>0</asrwt>
<pdfrwt beam="1">  1        2 0.33623130E+00 0.14300294E+04</pdfrwt>
<pdfrwt beam="2">  1       -2 0.31030997E-01 0.14300294E+04</pdfrwt>
<totfact> 0.49304798E+01</totfact>
</mgrwt>
</event>
<event>
 8    1  0.7685004E-052  0.1302312E+04  0.7818608E-02  0.9027734E-01
         -2   -1    0    0    0  501 -0.00000000000E+00  0.00000000000E+00  0.57519293745E+03  0.57519293746E+03  0.25500000000E-02 0.  1.
          2   -1    0    0  501    0  0.00000000000E+00 -0.00000000000E+00 -0.73715127404E+03  0.73715127404E+03  0.25500000000E-02 0. -1.
     200001    2    1    2    0    0 -0.82486842660E+02 -0.32862791777E+02  0.11981483079E+03  0.63186705528E+03  0.61401656295E+03 0.  0.
    5000001    2    3    3    0    0 -0.13747123097E+03 -0.53874267699E+02  0.34406432065E+03  0.37897656755E+03  0.58670315658E+02 0.  0.
        -13    1    4    4    0    0 -0.88625188516E+02 -0.27923136922E+02  0.16768396626E+03  0.19170824010E+03  0.10566000000E+00 0. -1.
     200003    1    4    4    0    0 -0.48846042458E+02 -0.25951130777E+02  0.17638035439E+03  0.18726832745E+03  0.30000000000E+02 0.  1.
     200000    1    3    3    0    0  0.54984388315E+02  0.21011475922E+02 -0.22424948986E+03  0.25289048773E+03  0.10100000000E+03 0. -1.
    -200001    1    1    2    0    0  0.82486842660E+02  0.32862791777E+02 -0.28177316737E+03  0.68047715623E+03  0.61300000000E+03 0. -1.
<mgrwt>
<rscale>  0 0.13023121E+04</rscale>
<asrwt>0</asrwt>
<pdfrwt beam="1">  1        2 0.10530732E+00 0.13023121E+04</pdfrwt>
<pdfrwt beam="2">  1       -2 0.82170420E-01 0.13023121E+04</pdfrwt>
<totfact> 0.53893970E+01</totfact>
</mgrwt>
</event>
<event>
 8    1  0.7685004E-052  0.1533356E+04  0.7818608E-02  0.8862569E-01
         -2   -1    0    0    0  501 -0.00000000000E+00  0.00000000000E+00  0.23345636974E+03  0.23345636975E+03  0.25500000000E-02 0. -1.
          2   -1    0    0  501    0  0.00000000000E+00 -0.00000000000E+00 -0.25177957082E+04  0.25177957082E+04  0.25500000000E-02 0.  1.
     200001    2    1    2    0    0  0.38649502772E+03 -0.23433800119E+03 -0.98368581873E+03  0.12440157715E+04  0.61289864122E+03 0.  0.
    5000001    2    3    3    0    0  0.40342001567E+03 -0.32809297886E+03 -0.77810884472E+03  0.99594452504E+03  0.34067493437E+03 0.  0.
        -13    1    4    4    0    0  0.15594232665E+03 -0.16553932754E+03 -0.87025472028E+02  0.24350507623E+03  0.10566000000E+00 0. -1.
     200003    1    4    4    0    0  0.24747768902E+03 -0.16255365132E+03 -0.69108337269E+03  0.75243944881E+03  0.30000000000E+02 0. -1.
     200000    1    3    3    0    0 -0.16924987956E+02  0.93754977664E+02 -0.20557697401E+03  0.24807124642E+03  0.10100000000E+03 0.  1.
    -200001    1    1    2    0    0 -0.38649502772E+03  0.23433800119E+03 -0.13006535198E+04  0.15072363065E+04  0.61300000000E+03 0. -1.
<mgrwt>
<rscale>  0 0.15333564E+04</rscale>
<asrwt>0</asrwt>
<pdfrwt beam="1">  1        2 0.35968509E+00 0.15333564E+04</pdfrwt>
<pdfrwt beam="2">  1       -2 0.33350911E-01 0.15333564E+04</pdfrwt>
<totfact> 0.35027440E+01</totfact>
</mgrwt>
</event>
<event>
 8    1  0.7685004E-052  0.1784150E+04  0.7818608E-02  0.8714774E-01
         -2   -1    0    0    0  501 -0.00000000000E+00  0.00000000000E+00  0.26206004703E+03  0.26206004704E+03  0.25500000000E-02 0. -1.
          2   -1    0    0  501    0  0.00000000000E+00 -0.00000000000E+00 -0.30366993752E+04  0.30366993752E+04  0.25500000000E-02 0.  1.
     200001    2    1    2    0    0 -0.67523581515E+02  0.26665678118E+02 -0.25781728048E+04  0.26509642484E+04  0.61267115363E+03 0.  0.
    5000001    2    3    3    0    0  0.17624825630E+03 -0.18350563247E+03 -0.10049855110E+04  0.10420155389E+04  0.10517956472E+03 0.  0.
        -13    1    4    4    0    0  0.18607966878E+01 -0.22190748112E+02 -0.26284772609E+02  0.34449851977E+02  0.10566000000E+00 0. -1.
     200003    1    4    4    0    0  0.17438745961E+03 -0.16131488436E+03 -0.97870073843E+03  0.10075656869E+04  0.30000000000E+02 0. -1.
     200000    1    3    3    0    0 -0.24377183781E+03  0.21017131059E+03 -0.15731872938E+04  0.16089487096E+04  0.10100000000E+03 0.  1.
    -200001    1    1    2    0    0  0.67523581515E+02 -0.26665678118E+02 -0.19646652338E+03  0.64779517385E+03  0.61300000000E+03 0. -1.
<mgrwt>
<rscale>  0 0.17841497E+04</rscale>
<asrwt>0</asrwt>
<pdfrwt beam="1">  1        2 0.43381417E+00 0.17841497E+04</pdfrwt>
<pdfrwt beam="2">  1       -2 0.37437151E-01 0.17841497E+04</pdfrwt>
<totfact> 0.14379251E+01</totfact>
</mgrwt>
</event>
<event>
 8    1  0.7685004E-052  0.2849947E+04  0.7818608E-02  0.8287927E-01
          2   -1    0    0  501    0  0.00000000000E+00  0.00000000000E+00  0.36659140207E+04  0.36659140207E+04  0.25500000000E-02 0.  1.
         -2   -1    0    0    0  501 -0.00000000000E+00 -0.00000000000E+00 -0.55389996497E+03  0.55389996498E+03  0.25500000000E-02 0. -1.
     200001    2    1    2    0    0  0.84828985785E+03 -0.59110017494E+03  0.42182867304E+03  0.12733141141E+04  0.61187768721E+03 0.  0.
    5000001    2    3    3    0    0  0.84064167467E+03 -0.65168197646E+03  0.43703930458E+03  0.11543140608E+04  0.10034826156E+03 0.  0.
        -13    1    4    4    0    0  0.30734619668E+02 -0.54722094563E+01  0.64006628918E+01  0.31867563007E+02  0.10566000000E+00 0. -1.
     200003    1    4    4    0    0  0.80990705501E+03 -0.64620976700E+03  0.43063864168E+03  0.11224464978E+04  0.30000000000E+02 0. -1.
     200000    1    3    3    0    0  0.76481831800E+01  0.60581801513E+02 -0.15210631539E+02  0.11900005333E+03  0.10100000000E+03 0.  1.
    -200001    1    1    2    0    0 -0.84828985785E+03  0.59110017494E+03  0.26901853827E+04  0.29464998715E+04  0.61300000000E+03 0.  1.
<mgrwt>
<rscale>  0 0.28499471E+04</rscale>
<asrwt>0</asrwt>
<pdfrwt beam="1">  1        2 0.52370200E+00 0.28499471E+04</pdfrwt>
<pdfrwt beam="2">  1       -2 0.79128567E-01 0.28499471E+04</pdfrwt>
<totfact> 0.11694048E+00</totfact>
</mgrwt>
</event>
<event>
 8    1  0.7685004E-052  0.1543598E+04  0.7818608E-02  0.8855967E-01
          2   -1    0    0  501    0  0.00000000000E+00  0.00000000000E+00  0.14107302383E+04  0.14107302383E+04  0.25500000000E-02 0.  1.
         -2   -1    0    0    0  501 -0.00000000000E+00 -0.00000000000E+00 -0.42224500888E+03  0.42224500889E+03  0.25500000000E-02 0. -1.
     200001    2    1    2    0    0 -0.84390566840E+02 -0.77374857425E+02  0.10344368310E+04  0.12076839662E+04  0.61264375337E+03 0.  0.
    5000001    2    3    3    0    0 -0.31660723193E+03 -0.23964931095E+02  0.37297130535E+03  0.49739188445E+03  0.86467536480E+02 0.  0.
        -13    1    4    4    0    0 -0.80906417121E+02  0.86190749792E+00  0.48063894561E+02  0.94110256297E+02  0.10566000000E+00 0. -1.
     200003    1    4    4    0    0 -0.23570081481E+03 -0.24826838593E+02  0.32490741079E+03  0.40328162815E+03  0.30000000000E+02 0. -1.
     200000    1    3    3    0    0  0.23221666509E+03 -0.53409926330E+02  0.66146552566E+03  0.71029208176E+03  0.10100000000E+03 0.  1.
    -200001    1    1    2    0    0  0.84390566840E+02  0.77374857425E+02 -0.45951601631E+02  0.62529128094E+03  0.61300000000E+03 0. -1.
<mgrwt>
<rscale>  0 0.15435981E+04</rscale>
<asrwt>0</asrwt>
<pdfrwt beam="1">  1        2 0.20153289E+00 0.15435981E+04</pdfrwt>
<pdfrwt beam="2">  1       -2 0.60320716E-01 0.15435981E+04</pdfrwt>
<totfact> 0.40330929E+01</totfact>
</mgrwt>
</event>
<event>
 8    1  0.7685004E-052  0.1400917E+04  0.7818608E-02  0.8953155E-01
          2   -1    0    0  501    0  0.00000000000E+00  0.00000000000E+00  0.11800093835E+04  0.11800093835E+04  0.25500000000E-02 0.  1.
         -2   -1    0    0    0  501 -0.00000000000E+00 -0.00000000000E+00 -0.41579529359E+03  0.41579529359E+03  0.25500000000E-02 0. -1.
     200001    2    1    2    0    0 -0.95291946192E+02  0.26477045992E+03  0.59732503340E+03  0.90096303422E+03  0.61298714673E+03 0.  0.
    5000001    2    3    3    0    0  0.15839875220E+03 -0.11854840772E+02  0.45457333991E+03  0.48688626184E+03  0.72045878852E+02 0.  0.
        -13    1    4    4    0    0  0.29277547606E+02  0.17154381185E+02  0.14431416740E+03  0.14824991624E+03  0.10566000000E+00 0. -1.
     200003    1    4    4    0    0  0.12912120460E+03 -0.29009221957E+02  0.31025917250E+03  0.33863634560E+03  0.30000000000E+02 0. -1.
     200000    1    3    3    0    0 -0.25369069839E+03  0.27662530069E+03  0.14275169349E+03  0.41407677239E+03  0.10100000000E+03 0. -1.
    -200001    1    1    2    0    0  0.95291946192E+02 -0.26477045992E+03  0.16688905648E+03  0.69484164284E+03  0.61300000000E+03 0.  1.
<mgrwt>
<rscale>  0 0.14009173E+04</rscale>
<asrwt>0</asrwt>
<pdfrwt beam="1">  1        2 0.16857277E+00 0.14009173E+04</pdfrwt>
<pdfrwt beam="2">  1       -2 0.59399328E-01 0.14009173E+04</pdfrwt>
<totfact> 0.56565926E+01</totfact>
</mgrwt>
</event>
<event>
 8    1  0.7685004E-052  0.1818501E+04  0.7818608E-02  0.8696522E-01
         -2   -1    0    0    0  501 -0.00000000000E+00  0.00000000000E+00  0.15965475261E+04  0.15965475261E+04  0.25500000000E-02 0. -1.
          2   -1    0    0  501    0  0.00000000000E+00 -0.00000000000E+00 -0.51782767784E+03  0.51782767784E+03  0.25500000000E-02 0.  1.
     200001    2    1    2    0    0 -0.19581707878E+03 -0.59638659166E+03  0.81713526126E+03  0.11988334019E+04  0.61275622832E+03 0.  0.
    5000001    2    3    3    0    0  0.50982001991E+02 -0.52571317639E+03  0.29942255242E+03  0.61220578002E+03  0.78540077931E+02 0.  0.
        -13    1    4    4    0    0 -0.15830979822E+02 -0.12934296773E+03  0.85781522083E+02  0.15600866617E+03  0.10566000000E+00 0. -1.
     200003    1    4    4    0    0  0.66812981813E+02 -0.39637020866E+03  0.21364103034E+03  0.45619711386E+03  0.30000000000E+02 0. -1.
     200000    1    3    3    0    0 -0.24679908077E+03 -0.70673415277E+02  0.51771270884E+03  0.58662762192E+03  0.10100000000E+03 0.  1.
    -200001    1    1    2    0    0  0.19581707878E+03  0.59638659166E+03  0.26158458700E+03  0.91554180200E+03  0.61300000000E+03 0.  1.
<mgrwt>
<rscale>  0 0.18185010E+04</rscale>
<asrwt>0</asrwt>
<pdfrwt beam="1">  1        2 0.73975382E-01 0.18185010E+04</pdfrwt>
<pdfrwt beam="2">  1       -2 0.22807822E+00 0.18185010E+04</pdfrwt>
<totfact> 0.53560992E+00</totfact>
</mgrwt>
</event>
<event>
 8    1  0.7685004E-052  0.1370539E+04  0.7818608E-02  0.8975424E-01
         -2   -1    0    0    0  501 -0.00000000000E+00  0.00000000000E+00  0.49342207058E+03  0.49342207058E+03  0.25500000000E-02 0. -1.
          2   -1    0    0  501    0  0.00000000000E+00 -0.00000000000E+00 -0.95170964619E+03  0.95170964620E+03  0.25500000000E-02 0.  1.
     200001    2    1    2    0    0 -0.13728747703E+03  0.14974294711E+03 -0.47085897909E+03  0.79922317701E+03  0.61300791751E+03 0.  0.
    5000001    2    3    3    0    0 -0.16670678877E+02 -0.10146787412E+03  0.90079422605E+02  0.16478785391E+03  0.92016810471E+02 0.  0.
        -13    1    4    4    0    0 -0.38460884604E+02 -0.92000109560E+02  0.65661906049E+02  0.11939328655E+03  0.10566000000E+00 0. -1.
     200003    1    4    4    0    0  0.21790205728E+02 -0.94677645558E+01  0.24417516556E+02  0.45394567363E+02  0.30000000000E+02 0.  1.
     200000    1    3    3    0    0 -0.12061679816E+03  0.25121082122E+03 -0.56093840170E+03  0.63443532310E+03  0.10100000000E+03 0.  1.
    -200001    1    1    2    0    0  0.13728747703E+03 -0.14974294711E+03  0.12571403474E+02  0.64590853977E+03  0.61300000000E+03 0. -1.
<mgrwt>
<rscale>  0 0.13705394E+04</rscale>
<asrwt>0</asrwt>
<pdfrwt beam="1">  1        2 0.13595852E+00 0.13705394E+04</pdfrwt>
<pdfrwt beam="2">  1       -2 0.70488868E-01 0.13705394E+04</pdfrwt>
<totfact> 0.53856616E+01</totfact>
</mgrwt>
</event>
<event>
 8    1  0.7685004E-052  0.1985595E+04  0.7818608E-02  0.8613385E-01
          2   -1    0    0  501    0  0.00000000000E+00  0.00000000000E+00  0.13537444073E+04  0.13537444073E+04  0.25500000000E-02 0.  1.
         -2   -1    0    0    0  501 -0.00000000000E+00 -0.00000000000E+00 -0.72808904971E+03  0.72808904972E+03  0.25500000000E-02 0. -1.
     200001    2    1    2    0    0  0.55149014998E+03  0.47699875297E+03  0.19300101154E+02  0.95262803155E+03  0.61274666603E+03 0.  0.
    5000001    2    3    3    0    0  0.50494851099E+03  0.17574362321E+03  0.10394787332E+03  0.62053313141E+03  0.29731698062E+03 0.  0.
        -13    1    4    4    0    0  0.47002814502E+03  0.47592972861E+02  0.10672203808E+03  0.48433578513E+03  0.10566000000E+00 0. -1.
     200003    1    4    4    0    0  0.34920365964E+02  0.12815065035E+03 -0.27741647648E+01  0.13619734628E+03  0.30000000000E+02 0. -1.
     200000    1    3    3    0    0  0.46541638996E+02  0.30125512976E+03 -0.84647772165E+02  0.33209490014E+03  0.10100000000E+03 0. -1.
    -200001    1    1    2    0    0 -0.55149014998E+03 -0.47699875297E+03  0.60635525638E+03  0.11292054254E+04  0.61300000000E+03 0. -1.
<mgrwt>
<rscale>  0 0.19855946E+04</rscale>
<asrwt>0</asrwt>
<pdfrwt beam="1">  1        2 0.19339206E+00 0.19855946E+04</pdfrwt>
<pdfrwt beam="2">  1       -2 0.10401272E+00 0.19855946E+04</pdfrwt>
<totfact> 0.12314576E+01</totfact>
</mgrwt>
</event>
<event>
 8    1  0.7685004E-052  0.1530830E+04  0.7818608E-02  0.8864206E-01
          2   -1    0    0  501    0  0.00000000000E+00  0.00000000000E+00  0.20851431094E+04  0.20851431094E+04  0.25500000000E-02 0.  1.
         -2   -1    0    0    0  501 -0.00000000000E+00 -0.00000000000E+00 -0.28096869756E+03  0.28096869758E+03  0.25500000000E-02 0. -1.
     200001    2    1    2    0    0 -0.42421314464E+03  0.16619266672E+03  0.98119557748E+03  0.12433295679E+04  0.61281878125E+03 0.  0.
    5000001    2    3    3    0    0 -0.42764650307E+03  0.32787015624E+03  0.77905516524E+03  0.96545703451E+03  0.18654748471E+03 0.  0.
        -13    1    4    4    0    0 -0.36549263977E+03  0.18466958163E+03  0.52584268244E+03  0.66648200422E+03  0.10566000000E+00 0. -1.
     200003    1    4    4    0    0 -0.62153863299E+02  0.14320057461E+03  0.25321248279E+03  0.29897503028E+03  0.30000000000E+02 0. -1.
     200000    1    3    3    0    0  0.34333584357E+01 -0.16167748952E+03  0.20214041224E+03  0.27787253342E+03  0.10100000000E+03 0.  1.
    -200001    1    1    2    0    0  0.42421314464E+03 -0.16619266672E+03  0.82297883440E+03  0.11227822391E+04  0.61300000000E+03 0.  1.
<mgrwt>
<rscale>  0 0.15308298E+04</rscale>
<asrwt>0</asrwt>
<pdfrwt beam="1">  1        2 0.29787759E+00 0.15308298E+04</pdfrwt>
<pdfrwt beam="2">  1       -2 0.40138385E-01 0.15308298E+04</pdfrwt>
<totfact> 0.41129222E+01</totfact>
</mgrwt>
</event>
<event>
 8    1  0.7685004E-052  0.1533472E+04  0.7818608E-02  0.8862494E-01
         -2   -1    0    0    0  501 -0.00000000000E+00  0.00000000000E+00  0.54699446161E+03  0.54699446162E+03  0.25500000000E-02 0. -1.
          2   -1    0    0  501    0  0.00000000000E+00 -0.00000000000E+00 -0.10747534358E+04  0.10747534358E+04  0.25500000000E-02 0.  1.
     200001    2    1    2    0    0 -0.26287560422E+03  0.34949778281E+03 -0.41577312650E+03  0.86045812762E+03  0.61340737947E+03 0.  0.
    5000001    2    3    3    0    0 -0.19519308532E+03  0.31036756959E+03  0.38883642782E+02  0.38820197382E+03  0.12149265817E+03 0.  0.
        -13    1    4    4    0    0 -0.19139530556E+03  0.22422599469E+03  0.25076682600E+02  0.29586873924E+03  0.10566000000E+00 0. -1.
     200003    1    4    4    0    0 -0.37977797554E+01  0.86141574907E+02  0.13806960182E+02  0.92333234580E+02  0.30000000000E+02 0. -1.
     200000    1    3    3    0    0 -0.67682518899E+02  0.39130213217E+02 -0.45465676929E+03  0.47225615381E+03  0.10100000000E+03 0.  1.
    -200001    1    1    2    0    0  0.26287560422E+03 -0.34949778281E+03 -0.11198584765E+03  0.76128976977E+03  0.61300000000E+03 0. -1.
<mgrwt>
<rscale>  0 0.15334721E+04</rscale>
<asrwt>0</asrwt>
<pdfrwt beam="1">  1        2 0.15353620E+00 0.15334721E+04</pdfrwt>
<pdfrwt beam="2">  1       -2 0.78142067E-01 0.15334721E+04</pdfrwt>
<totfact> 0.35596347E+01</totfact>
</mgrwt>
</event>
<event>
 8    1  0.7685004E-052  0.1416399E+04  0.7818608E-02  0.8942033E-01
          2   -1    0    0  501    0  0.00000000000E+00  0.00000000000E+00  0.23265122961E+04  0.23265122961E+04  0.25500000000E-02 0.  1.
         -2   -1    0    0    0  501 -0.00000000000E+00 -0.00000000000E+00 -0.21557870202E+03  0.21557870203E+03  0.25500000000E-02 0. -1.
     200001    2    1    2    0    0 -0.49047559868E+02  0.26409374816E+03  0.14712708694E+04  0.16163002160E+04  0.61289252410E+03 0.  0.
    5000001    2    3    3    0    0 -0.30320473269E+03  0.10102799630E+03  0.53874090665E+03  0.63090717798E+03  0.75248500050E+02 0.  0.
        -13    1    4    4    0    0 -0.53528438536E+02  0.46434547089E+02  0.12403600487E+03  0.14285098027E+03  0.10566000000E+00 0. -1.
     200003    1    4    4    0    0 -0.24967629416E+03  0.54593449212E+02  0.41470490178E+03  0.48805619771E+03  0.30000000000E+02 0. -1.
     200000    1    3    3    0    0  0.25415717282E+03  0.16306575186E+03  0.93252996271E+03  0.98539303797E+03  0.10100000000E+03 0.  1.
    -200001    1    1    2    0    0  0.49047559868E+02 -0.26409374816E+03  0.63966272467E+03  0.92579078213E+03  0.61300000000E+03 0. -1.
<mgrwt>
<rscale>  0 0.14163990E+04</rscale>
<asrwt>0</asrwt>
<pdfrwt beam="1">  1        2 0.33235892E+00 0.14163990E+04</pdfrwt>
<pdfrwt beam="2">  1       -2 0.30796955E-01 0.14163990E+04</pdfrwt>
<totfact> 0.51711199E+01</totfact>
</mgrwt>
</event>
<event>
 8    1  0.7685004E-052  0.1885556E+04  0.7818608E-02  0.8662080E-01
          2   -1    0    0  501    0  0.00000000000E+00  0.00000000000E+00  0.98435251995E+03  0.98435251996E+03  0.25500000000E-02 0.  1.
         -2   -1    0    0    0  501 -0.00000000000E+00 -0.00000000000E+00 -0.90295941974E+03  0.90295941975E+03  0.25500000000E-02 0. -1.
     200001    2    1    2    0    0 -0.52447723842E+03 -0.45159328237E+03 -0.14537593782E+03  0.93536337864E+03  0.61217450168E+03 0.  0.
    5000001    2    3    3    0    0 -0.45855212554E+03 -0.56215551016E+03 -0.20989179929E+03  0.75948437733E+03  0.80455469449E+02 0.  0.
        -13    1    4    4    0    0 -0.26193726181E+03 -0.28329561147E+03 -0.13586271570E+03  0.40905527901E+03  0.10566000000E+00 0. -1.
     200003    1    4    4    0    0 -0.19661486373E+03 -0.27885989869E+03 -0.74029083593E+02  0.35042909833E+03  0.30000000000E+02 0. -1.
     200000    1    3    3    0    0 -0.65925112874E+02  0.11056222779E+03  0.64515861470E+02  0.17587900131E+03  0.10100000000E+03 0.  1.
    -200001    1    1    2    0    0  0.52447723842E+03  0.45159328237E+03  0.22676903803E+03  0.95194856106E+03  0.61300000000E+03 0. -1.
<mgrwt>
<rscale>  0 0.18855560E+04</rscale>
<asrwt>0</asrwt>
<pdfrwt beam="1">  1        2 0.14062179E+00 0.18855560E+04</pdfrwt>
<pdfrwt beam="2">  1       -2 0.12899420E+00 0.18855560E+04</pdfrwt>
<totfact> 0.11969780E+01</totfact>
</mgrwt>
</event>
<event>
 8    1  0.7685004E-052  0.1260678E+04  0.7818608E-02  0.9061343E-01
          2   -1    0    0  501    0  0.00000000000E+00  0.00000000000E+00  0.23223644597E+04  0.23223644597E+04  0.25500000000E-02 0.  1.
         -2   -1    0    0    0  501 -0.00000000000E+00 -0.00000000000E+00 -0.17108736001E+03  0.17108736003E+03  0.25500000000E-02 0. -1.
     200001    2    1    2    0    0 -0.10587673911E+03  0.10005003462E+03  0.10547592911E+04  0.12288015922E+04  0.61336473459E+03 0.  0.
    5000001    2    3    3    0    0  0.20657558243E+03 -0.79815975297E+02  0.27652918310E+03  0.36519211120E+03  0.88616182537E+02 0.  0.
        -13    1    4    4    0    0  0.50587413483E+00  0.87010232911E+01  0.11775253054E+01  0.87955355057E+01  0.10566000000E+00 0. -1.
     200003    1    4    4    0    0  0.20606970830E+03 -0.88516998588E+02  0.27535165779E+03  0.35639657569E+03  0.30000000000E+02 0. -1.
     200000    1    3    3    0    0 -0.31245232154E+03  0.17986600992E+03  0.77823010796E+03  0.86360948102E+03  0.10100000000E+03 0. -1.
    -200001    1    1    2    0    0  0.10587673911E+03 -0.10005003462E+03  0.10965178087E+04  0.12646502275E+04  0.61300000000E+03 0.  1.
<mgrwt>
<rscale>  0 0.12606779E+04</rscale>
<asrwt>0</asrwt>
<pdfrwt beam="1">  1        2 0.33176633E+00 0.12606779E+04</pdfrwt>
<pdfrwt beam="2">  1       -2 0.24441053E-01 0.12606779E+04</pdfrwt>
<totfact> 0.80451997E+01</totfact>
</mgrwt>
</event>
<event>
 8    1  0.7685004E-052  0.1361575E+04  0.7818608E-02  0.8982112E-01
          2   -1    0    0  501    0  0.00000000000E+00  0.00000000000E+00  0.65959607862E+03  0.65959607863E+03  0.25500000000E-02 0.  1.
         -2   -1    0    0    0  501 -0.00000000000E+00 -0.00000000000E+00 -0.70265942644E+03  0.70265942644E+03  0.25500000000E-02 0. -1.
     200001    2    1    2    0    0  0.49395953714E+02  0.11789029649E+03  0.24765370853E+03  0.67187626936E+03  0.61134873822E+03 0.  0.
    5000001    2    3    3    0    0 -0.17319925444E+03 -0.15020877151E+03  0.14675211094E+02  0.24070841663E+03  0.71864617438E+02 0.  0.
        -13    1    4    4    0    0 -0.70022891855E+02 -0.90478443499E+02 -0.11601304094E+02  0.11499632839E+03  0.10566000000E+00 0. -1.
     200003    1    4    4    0    0 -0.10317636258E+03 -0.59730328013E+02  0.26276515188E+02  0.12571208824E+03  0.30000000000E+02 0. -1.
     200000    1    3    3    0    0  0.22259520815E+03  0.26809906801E+03  0.23297849744E+03  0.43116785273E+03  0.10100000000E+03 0.  1.
    -200001    1    1    2    0    0 -0.49395953714E+02 -0.11789029649E+03 -0.29071705635E+03  0.69037923571E+03  0.61300000000E+03 0. -1.
<mgrwt>
<rscale>  0 0.13615747E+04</rscale>
<asrwt>0</asrwt>
<pdfrwt beam="1">  1        2 0.94228011E-01 0.13615747E+04</pdfrwt>
<pdfrwt beam="2">  1       -2 0.10037992E+00 0.13615747E+04</pdfrwt>
<totfact> 0.38749743E+01</totfact>
</mgrwt>
</event>
<event>
 8    1  0.7685004E-052  0.1668890E+04  0.7818608E-02  0.8779309E-01
          2   -1    0    0  501    0  0.00000000000E+00  0.00000000000E+00  0.76711013698E+03  0.76711013698E+03  0.25500000000E-02 0.  1.
         -2   -1    0    0    0  501 -0.00000000000E+00 -0.00000000000E+00 -0.90769019180E+03  0.90769019181E+03  0.25500000000E-02 0. -1.
     200001    2    1    2    0    0 -0.26054383672E+03  0.19904918121E+03  0.39347695807E+03  0.79816496536E+03  0.61215972426E+03 0.  0.
    5000001    2    3    3    0    0 -0.97443108118E+02  0.31234731116E+03 -0.95372809402E+01  0.33766546399E+03  0.82891517871E+02 0.  0.
        -13    1    4    4    0    0 -0.60806972854E+02  0.25968894986E+03 -0.73645994840E+01  0.26681470558E+03  0.10566000000E+00 0. -1.
     200003    1    4    4    0    0 -0.36636135264E+02  0.52658361305E+02 -0.21726814562E+01  0.70850758408E+02  0.30000000000E+02 0.  1.
     200000    1    3    3    0    0 -0.16310072860E+03 -0.11329812995E+03  0.40301423901E+03  0.46049950137E+03  0.10100000000E+03 0.  1.
    -200001    1    1    2    0    0  0.26054383672E+03 -0.19904918121E+03 -0.53405701289E+03  0.87663536343E+03  0.61300000000E+03 0. -1.
<mgrwt>
<rscale>  0 0.16688899E+04</rscale>
<asrwt>0</asrwt>
<pdfrwt beam="1">  1        2 0.10958716E+00 0.16688899E+04</pdfrwt>
<pdfrwt beam="2">  1       -2 0.12967003E+00 0.16688899E+04</pdfrwt>
<totfact> 0.16767300E+01</totfact>
</mgrwt>
</event>
<event>
 8    1  0.7685004E-052  0.1335385E+04  0.7818608E-02  0.9001966E-01
          2   -1    0    0  501    0  0.00000000000E+00  0.00000000000E+00  0.17020928013E+04  0.17020928013E+04  0.25500000000E-02 0.  1.
         -2   -1    0    0    0  501 -0.00000000000E+00 -0.00000000000E+00 -0.26192074334E+03  0.26192074335E+03  0.25500000000E-02 0. -1.
     200001    2    1    2    0    0  0.18779569824E+03  0.67144971614E+02  0.46126859216E+03  0.79192282000E+03  0.61204359912E+03 0.  0.
    5000001    2    3    3    0    0  0.18490551111E+03  0.21225222763E+03  0.52705529184E+03  0.60326079736E+03  0.83037658910E+02 0.  0.
        -13    1    4    4    0    0  0.50122949854E+02  0.11245626062E+03  0.22139650223E+03  0.25332813310E+03  0.10566000000E+00 0. -1.
     200003    1    4    4    0    0  0.13478256125E+03  0.99795967015E+02  0.30565878961E+03  0.34993266426E+03  0.30000000000E+02 0. -1.
     200000    1    3    3    0    0  0.28901871307E+01 -0.14510725602E+03 -0.65786699679E+02  0.18866202264E+03  0.10100000000E+03 0. -1.
    -200001    1    1    2    0    0 -0.18779569824E+03 -0.67144971614E+02  0.97890346582E+03  0.11720907247E+04  0.61300000000E+03 0.  1.
<mgrwt>
<rscale>  0 0.13353852E+04</rscale>
<asrwt>0</asrwt>
<pdfrwt beam="1">  1        2 0.24315612E+00 0.13353852E+04</pdfrwt>
<pdfrwt beam="2">  1       -2 0.37417248E-01 0.13353852E+04</pdfrwt>
<totfact> 0.75372382E+01</totfact>
</mgrwt>
</event>
<event>
 8    1  0.7685004E-052  0.1294753E+04  0.7818608E-02  0.9033736E-01
         -2   -1    0    0    0  501 -0.00000000000E+00  0.00000000000E+00  0.21270503682E+03  0.21270503683E+03  0.25500000000E-02 0. -1.
          2   -1    0    0  501    0  0.00000000000E+00 -0.00000000000E+00 -0.19703181588E+04  0.19703181588E+04  0.25500000000E-02 0.  1.
     200001    2    1    2    0    0 -0.19195032444E+03 -0.16075514785E+02 -0.10077289121E+04  0.11955017136E+04  0.61368024062E+03 0.  0.
    5000001    2    3    3    0    0  0.19704804315E+03 -0.49053653292E+02 -0.44604459589E+03  0.50405572245E+03  0.11782273807E+03 0.  0.
        -13    1    4    4    0    0  0.95427828080E+01 -0.10215453866E+02 -0.14719107999E+03  0.14785345919E+03  0.10566000000E+00 0. -1.
     200003    1    4    4    0    0  0.18750526034E+03 -0.38838199426E+02 -0.29885351590E+03  0.35620226326E+03  0.30000000000E+02 0. -1.
     200000    1    3    3    0    0 -0.38899836759E+03  0.32978138507E+02 -0.56168431619E+03  0.69144599114E+03  0.10100000000E+03 0. -1.
    -200001    1    1    2    0    0  0.19195032444E+03  0.16075514785E+02 -0.74988420989E+03  0.98752148203E+03  0.61300000000E+03 0. -1.
<mgrwt>
<rscale>  0 0.12947534E+04</rscale>
<asrwt>0</asrwt>
<pdfrwt beam="1">  1        2 0.28147401E+00 0.12947534E+04</pdfrwt>
<pdfrwt beam="2">  1       -2 0.30386435E-01 0.12947534E+04</pdfrwt>
<totfact> 0.81631899E+01</totfact>
</mgrwt>
</event>
<event>
 8    1  0.7685004E-052  0.1356087E+04  0.7818608E-02  0.8986233E-01
         -2   -1    0    0    0  501 -0.00000000000E+00  0.00000000000E+00  0.41007584997E+03  0.41007584998E+03  0.25500000000E-02 0. -1.
          2   -1    0    0  501    0  0.00000000000E+00 -0.00000000000E+00 -0.11211163126E+04  0.11211163126E+04  0.25500000000E-02 0.  1.
     200001    2    1    2    0    0  0.54113462735E+02  0.22836390284E+03 -0.16351189909E+03  0.67642034107E+03  0.61296818654E+03 0.  0.
    5000001    2    3    3    0    0 -0.87127459212E+02  0.31690458756E+03 -0.28833772044E+03  0.44496637900E+03  0.82684494605E+02 0.  0.
        -13    1    4    4    0    0 -0.74136677109E+02  0.18235679343E+03 -0.20056440661E+03  0.28102729292E+03  0.10566000000E+00 0. -1.
     200003    1    4    4    0    0 -0.12990782103E+02  0.13454779413E+03 -0.87773313830E+02  0.16393908608E+03  0.30000000000E+02 0. -1.
     200000    1    3    3    0    0  0.14124092195E+03 -0.88540684722E+02  0.12482582135E+03  0.23145396207E+03  0.10100000000E+03 0. -1.
    -200001    1    1    2    0    0 -0.54113462735E+02 -0.22836390284E+03 -0.54752856358E+03  0.85477182154E+03  0.61300000000E+03 0. -1.
<mgrwt>
<rscale>  0 0.13560866E+04</rscale>
<asrwt>0</asrwt>
<pdfrwt beam="1">  1        2 0.16015947E+00 0.13560866E+04</pdfrwt>
<pdfrwt beam="2">  1       -2 0.58582265E-01 0.13560866E+04</pdfrwt>
<totfact> 0.63208932E+01</totfact>
</mgrwt>
</event>
<event>
 8    1  0.7685004E-052  0.1257460E+04  0.7818608E-02  0.9063997E-01
          2   -1    0    0  501    0  0.00000000000E+00  0.00000000000E+00  0.64348195244E+03  0.64348195245E+03  0.25500000000E-02 0.  1.
         -2   -1    0    0    0  501 -0.00000000000E+00 -0.00000000000E+00 -0.61431597173E+03  0.61431597174E+03  0.25500000000E-02 0. -1.
     200001    2    1    2    0    0 -0.37534695296E+02  0.10909253345E+03 -0.56626601142E+02  0.62816358482E+03  0.61487631531E+03 0.  0.
    5000001    2    3    3    0    0  0.11646974863E+03 -0.20962233618E+03 -0.67309537633E+02  0.25990869755E+03  0.74264601488E+02 0.  0.
        -13    1    4    4    0    0  0.66519151360E+02 -0.15532006387E+03 -0.28659096031E+02  0.17137816280E+03  0.10566000000E+00 0. -1.
     200003    1    4    4    0    0  0.49950597268E+02 -0.54302272310E+02 -0.38650441603E+02  0.88530534741E+02  0.30000000000E+02 0. -1.
     200000    1    3    3    0    0 -0.15400444392E+03  0.31871486963E+03  0.10682936492E+02  0.36825488728E+03  0.10100000000E+03 0. -1.
    -200001    1    1    2    0    0  0.37534695296E+02 -0.10909253345E+03  0.85792581852E+02  0.62963433936E+03  0.61300000000E+03 0.  1.
<mgrwt>
<rscale>  0 0.12574597E+04</rscale>
<asrwt>0</asrwt>
<pdfrwt beam="1">  1        2 0.91925994E-01 0.12574597E+04</pdfrwt>
<pdfrwt beam="2">  1       -2 0.87759424E-01 0.12574597E+04</pdfrwt>
<totfact> 0.55014252E+01</totfact>
</mgrwt>
</event>
<event>
 8    1  0.7685004E-052  0.1370327E+04  0.7818608E-02  0.8975582E-01
          2   -1    0    0  501    0  0.00000000000E+00  0.00000000000E+00  0.72636469469E+03  0.72636469470E+03  0.25500000000E-02 0.  1.
         -2   -1    0    0    0  501 -0.00000000000E+00 -0.00000000000E+00 -0.64629980617E+03  0.64629980617E+03  0.25500000000E-02 0. -1.
     200001    2    1    2    0    0 -0.26615016516E+03  0.50929605097E+02  0.18331018194E+03  0.69453595428E+03  0.61265637505E+03 0.  0.
    5000001    2    3    3    0    0 -0.10847909367E+03  0.70126852213E+00 -0.18256848713E+03  0.28046922891E+03  0.18320352161E+03 0.  0.
        -13    1    4    4    0    0  0.12539981278E+02 -0.54538620105E+02 -0.44467573642E+01  0.56138195807E+02  0.10566000000E+00 0. -1.
     200003    1    4    4    0    0 -0.12101907495E+03  0.55239888627E+02 -0.17812172977E+03  0.22433103310E+03  0.30000000000E+02 0. -1.
     200000    1    3    3    0    0 -0.15767107149E+03  0.50228336575E+02  0.36587866907E+03  0.41406672537E+03  0.10100000000E+03 0.  1.
    -200001    1    1    2    0    0  0.26615016516E+03 -0.50929605097E+02 -0.10324529341E+03  0.67812854659E+03  0.61300000000E+03 0. -1.
<mgrwt>
<rscale>  0 0.13703275E+04</rscale>
<asrwt>0</asrwt>
<pdfrwt beam="1">  1        2 0.10376639E+00 0.13703275E+04</pdfrwt>
<pdfrwt beam="2">  1       -2 0.92328544E-01 0.13703275E+04</pdfrwt>
<totfact> 0.41836015E+01</totfact>
</mgrwt>
</event>
<event>
 8    1  0.7685004E-052  0.1536417E+04  0.7818608E-02  0.8860591E-01
         -2   -1    0    0    0  501 -0.00000000000E+00  0.00000000000E+00  0.51777854709E+03  0.51777854710E+03  0.25500000000E-02 0. -1.
          2   -1    0    0  501    0  0.00000000000E+00 -0.00000000000E+00 -0.11397622286E+04  0.11397622286E+04  0.25500000000E-02 0.  1.
     200001    2    1    2    0    0  0.90047930372E+02 -0.40833957327E+03 -0.52700064729E+03  0.90944946203E+03  0.61197941540E+03 0.  0.
    5000001    2    3    3    0    0 -0.14575261830E+03 -0.12396781973E+03 -0.48082107278E+03  0.52369987218E+03  0.80379139243E+02 0.  0.
        -13    1    4    4    0    0 -0.16560176219E+01  0.84283821118E+01 -0.11681205041E+02  0.14499714984E+02  0.10566000000E+00 0. -1.
     200003    1    4    4    0    0 -0.14409660067E+03 -0.13239620184E+03 -0.46913986774E+03  0.50920015719E+03  0.30000000000E+02 0. -1.
     200000    1    3    3    0    0  0.23580054867E+03 -0.28437175354E+03 -0.46179574512E+02  0.38574958985E+03  0.10100000000E+03 0. -1.
    -200001    1    1    2    0    0 -0.90047930372E+02  0.40833957327E+03 -0.94983034256E+02  0.74809131372E+03  0.61300000000E+03 0.  1.
<mgrwt>
<rscale>  0 0.15364172E+04</rscale>
<asrwt>0</asrwt>
<pdfrwt beam="1">  1        2 0.16282317E+00 0.15364172E+04</pdfrwt>
<pdfrwt beam="2">  1       -2 0.73968364E-01 0.15364172E+04</pdfrwt>
<totfact> 0.36808669E+01</totfact>
</mgrwt>
</event>
<event>
 8    1  0.7685004E-052  0.1569623E+04  0.7818608E-02  0.8839430E-01
          2   -1    0    0  501    0  0.00000000000E+00  0.00000000000E+00  0.18526424892E+04  0.18526424893E+04  0.25500000000E-02 0.  1.
         -2   -1    0    0    0  501 -0.00000000000E+00 -0.00000000000E+00 -0.33245958626E+03  0.33245958627E+03  0.25500000000E-02 0. -1.
     200001    2    1    2    0    0 -0.19685895499E+03  0.44700024468E+03  0.70356238189E+03  0.10532006918E+04  0.61291843271E+03 0.  0.
    5000001    2    3    3    0    0  0.17340771675E+03  0.32289207943E+03  0.35331818796E+03  0.51899825804E+03  0.10097484202E+03 0.  0.
        -13    1    4    4    0    0  0.11205216954E+03  0.15025906663E+03  0.12764826455E+03  0.22677646793E+03  0.10566000000E+00 0. -1.
     200003    1    4    4    0    0  0.61355547218E+02  0.17263301280E+03  0.22566992341E+03  0.29222179011E+03  0.30000000000E+02 0. -1.
     200000    1    3    3    0    0 -0.37026667174E+03  0.12410816526E+03  0.35024419393E+03  0.53420243379E+03  0.10100000000E+03 0.  1.
    -200001    1    1    2    0    0  0.19685895499E+03 -0.44700024468E+03  0.81662052110E+03  0.11319013837E+04  0.61300000000E+03 0.  1.
<mgrwt>
<rscale>  0 0.15696226E+04</rscale>
<asrwt>0</asrwt>
<pdfrwt beam="1">  1        2 0.26466321E+00 0.15696226E+04</pdfrwt>
<pdfrwt beam="2">  1       -2 0.47494227E-01 0.15696226E+04</pdfrwt>
<totfact> 0.38660053E+01</totfact>
</mgrwt>
</event>
<event>
 8    1  0.7685004E-052  0.1754514E+04  0.7818608E-02  0.8730869E-01
          2   -1    0    0  501    0  0.00000000000E+00  0.00000000000E+00  0.61554241907E+03  0.61554241908E+03  0.25500000000E-02 0.  1.
         -2   -1    0    0    0  501 -0.00000000000E+00 -0.00000000000E+00 -0.12502472328E+04  0.12502472328E+04  0.25500000000E-02 0. -1.
     200001    2    1    2    0    0 -0.44945953272E+03 -0.32723604134E+03 -0.62706047090E+03  0.10381878550E+04  0.61280656793E+03 0.  0.
    5000001    2    3    3    0    0 -0.45823802594E+03 -0.45856082074E+03 -0.55467878467E+03  0.85718131328E+03  0.82650680227E+02 0.  0.
        -13    1    4    4    0    0 -0.11612933129E+03 -0.85369617703E+02 -0.94379574086E+02  0.17228322141E+03  0.10566000000E+00 0. -1.
     200003    1    4    4    0    0 -0.34210869465E+03 -0.37319120304E+03 -0.46029921058E+03  0.68489809187E+03  0.30000000000E+02 0. -1.
     200000    1    3    3    0    0  0.87784932208E+01  0.13132477940E+03 -0.72381686226E+02  0.18100654167E+03  0.10100000000E+03 0. -1.
    -200001    1    1    2    0    0  0.44945953272E+03  0.32723604134E+03 -0.76443428377E+01  0.82760179693E+03  0.61300000000E+03 0.  1.
<mgrwt>
<rscale>  0 0.17545144E+04</rscale>
<asrwt>0</asrwt>
<pdfrwt beam="1">  1        2 0.87934632E-01 0.17545144E+04</pdfrwt>
<pdfrwt beam="2">  1       -2 0.17860675E+00 0.17545144E+04</pdfrwt>
<totfact> 0.92642696E+00</totfact>
</mgrwt>
</event>
<event>
 8    1  0.7685004E-052  0.1732593E+04  0.7818608E-02  0.8742991E-01
         -2   -1    0    0    0  501 -0.00000000000E+00  0.00000000000E+00  0.28198764840E+03  0.28198764841E+03  0.25500000000E-02 0. -1.
          2   -1    0    0  501    0  0.00000000000E+00 -0.00000000000E+00 -0.26613552824E+04  0.26613552824E+04  0.25500000000E-02 0.  1.
     200001    2    1    2    0    0  0.22330547077E+02 -0.29100226364E+03 -0.27337086150E+03  0.73061330960E+03  0.61145990014E+03 0.  0.
    5000001    2    3    3    0    0  0.18847022833E+02 -0.32140821393E+02  0.17692467914E+03  0.20147395637E+03  0.88888527584E+02 0.  0.
        -13    1    4    4    0    0  0.13262146201E+02 -0.55667964730E+02  0.11673237309E+03  0.13000486495E+03  0.10566000000E+00 0. -1.
     200003    1    4    4    0    0  0.55848766318E+01  0.23527143337E+02  0.60192306047E+02  0.71469091417E+02  0.30000000000E+02 0. -1.
     200000    1    3    3    0    0  0.34835242437E+01 -0.25886144224E+03 -0.45029554064E+03  0.52913935323E+03  0.10100000000E+03 0. -1.
    -200001    1    1    2    0    0 -0.22330547077E+02  0.29100226364E+03 -0.21059967725E+04  0.22127296212E+04  0.61300000000E+03 0.  1.
<mgrwt>
<rscale>  0 0.17325926E+04</rscale>
<asrwt>0</asrwt>
<pdfrwt beam="1">  1        2 0.38019360E+00 0.17325926E+04</pdfrwt>
<pdfrwt beam="2">  1       -2 0.40283951E-01 0.17325926E+04</pdfrwt>
<totfact> 0.20095375E+01</totfact>
</mgrwt>
</event>
<event>
 8    1  0.7685004E-052  0.1318167E+04  0.7818608E-02  0.9015281E-01
         -2   -1    0    0    0  501 -0.00000000000E+00  0.00000000000E+00  0.49300175252E+03  0.49300175253E+03  0.25500000000E-02 0. -1.
          2   -1    0    0  501    0  0.00000000000E+00 -0.00000000000E+00 -0.88111524641E+03  0.88111524642E+03  0.25500000000E-02 0.  1.
     200001    2    1    2    0    0 -0.15177199094E+03 -0.98890956363E+02 -0.36158886432E+03  0.73436180009E+03  0.61296540535E+03 0.  0.
    5000001    2    3    3    0    0  0.21369616354E+03 -0.11696434750E+03 -0.17464379926E+03  0.31122697907E+03  0.83755996701E+02 0.  0.
        -13    1    4    4    0    0  0.15196610818E+03 -0.45809385674E+02 -0.10547687816E+03  0.19057172100E+03  0.10566000000E+00 0. -1.
     200003    1    4    4    0    0  0.61730055358E+02 -0.71154961829E+02 -0.69166921099E+02  0.12065525808E+03  0.30000000000E+02 0. -1.
     200000    1    3    3    0    0 -0.36546815448E+03  0.18073391139E+02 -0.18694506506E+03  0.42313482102E+03  0.10100000000E+03 0. -1.
    -200001    1    1    2    0    0  0.15177199094E+03  0.98890956363E+02 -0.26524629570E+02  0.63975519885E+03  0.61300000000E+03 0. -1.
<mgrwt>
<rscale>  0 0.13181675E+04</rscale>
<asrwt>0</asrwt>
<pdfrwt beam="1">  1        2 0.12587361E+00 0.13181675E+04</pdfrwt>
<pdfrwt beam="2">  1       -2 0.70428822E-01 0.13181675E+04</pdfrwt>
<totfact> 0.60172462E+01</totfact>
</mgrwt>
</event>
<event>
 8    1  0.7685004E-052  0.2442928E+04  0.7818608E-02  0.8423604E-01
          2   -1    0    0  501    0  0.00000000000E+00  0.00000000000E+00  0.20610749782E+04  0.20610749782E+04  0.25500000000E-02 0.  1.
         -2   -1    0    0    0  501 -0.00000000000E+00 -0.00000000000E+00 -0.72388185693E+03  0.72388185694E+03  0.25500000000E-02 0. -1.
     200001    2    1    2    0    0 -0.13084182547E+03 -0.15067779213E+03  0.18513018711E+04  0.19603962327E+04  0.61319767701E+03 0.  0.
    5000001    2    3    3    0    0  0.80591201442E+02  0.17694749377E+03  0.34981392377E+03  0.40581934213E+03  0.67187795678E+02 0.  0.
        -13    1    4    4    0    0  0.41079601461E+00  0.32037189399E+02  0.96569805113E+02  0.10174619738E+03  0.10566000000E+00 0. -1.
     200003    1    4    4    0    0  0.80180405427E+02  0.14491030437E+03  0.25324411865E+03  0.30407314475E+03  0.30000000000E+02 0. -1.
     200000    1    3    3    0    0 -0.21143302691E+03 -0.32762528590E+03  0.15014879473E+04  0.15545768906E+04  0.10100000000E+03 0. -1.
    -200001    1    1    2    0    0  0.13084182547E+03  0.15067779213E+03 -0.51410874984E+03  0.82456060238E+03  0.61300000000E+03 0. -1.
<mgrwt>
<rscale>  0 0.24429284E+04</rscale>
<asrwt>0</asrwt>
<pdfrwt beam="1">  1        2 0.29443928E+00 0.24429284E+04</pdfrwt>
<pdfrwt beam="2">  1       -2 0.10341169E+00 0.24429284E+04</pdfrwt>
<totfact> 0.51270967E+00</totfact>
</mgrwt>
</event>
<event>
 8    1  0.7685004E-052  0.1780774E+04  0.7818608E-02  0.8716591E-01
         -2   -1    0    0    0  501 -0.00000000000E+00  0.00000000000E+00  0.15838871874E+04  0.15838871874E+04  0.25500000000E-02 0. -1.
          2   -1    0    0  501    0  0.00000000000E+00 -0.00000000000E+00 -0.50053353977E+03  0.50053353978E+03  0.25500000000E-02 0.  1.
     200001    2    1    2    0    0  0.52120171221E+03 -0.35997918723E+03  0.69240079355E+03  0.11201337501E+04  0.61159179129E+03 0.  0.
    5000001    2    3    3    0    0  0.32749213583E+03 -0.24948585059E+03  0.75898245434E+03  0.86642861618E+03  0.71762749833E+02 0.  0.
        -13    1    4    4    0    0  0.95238862105E+02 -0.65080315487E+02  0.27224830177E+03  0.29567725192E+03  0.10566000000E+00 0. -1.
     200003    1    4    4    0    0  0.23225327372E+03 -0.18440553510E+03  0.48673415257E+03  0.57075136426E+03  0.30000000000E+02 0. -1.
     200000    1    3    3    0    0  0.19370957639E+03 -0.11049333664E+03 -0.66581660797E+02  0.25370513393E+03  0.10100000000E+03 0.  1.
    -200001    1    1    2    0    0 -0.52120171221E+03  0.35997918723E+03  0.39095285409E+03  0.96428697709E+03  0.61300000000E+03 0.  1.
<mgrwt>
<rscale>  0 0.17807736E+04</rscale>
<asrwt>0</asrwt>
<pdfrwt beam="1">  1        2 0.71504790E-01 0.17807736E+04</pdfrwt>
<pdfrwt beam="2">  1       -2 0.22626960E+00 0.17807736E+04</pdfrwt>
<totfact> 0.57338559E+00</totfact>
</mgrwt>
</event>
<event>
 8    1  0.7685004E-052  0.1655200E+04  0.7818608E-02  0.8787336E-01
         -2   -1    0    0    0  501 -0.00000000000E+00  0.00000000000E+00  0.16035746633E+04  0.16035746633E+04  0.25500000000E-02 0. -1.
          2   -1    0    0  501    0  0.00000000000E+00 -0.00000000000E+00 -0.42712191674E+03  0.42712191674E+03  0.25500000000E-02 0.  1.
     200001    2    1    2    0    0  0.86482743741E+02 -0.27520859628E+02 -0.86111487184E+02  0.62425635486E+03  0.61159148595E+03 0.  0.
    5000001    2    3    3    0    0 -0.91292887634E+02  0.23755421939E+03  0.32920034686E+02  0.26895581191E+03  0.80542545228E+02 0.  0.
        -13    1    4    4    0    0 -0.13140535186E+02  0.34115820697E+02  0.32575912497E+02  0.48966969744E+02  0.10566000000E+00 0. -1.
     200003    1    4    4    0    0 -0.78152352447E+02  0.20343839869E+03  0.34412218858E+00  0.21998884216E+03  0.30000000000E+02 0. -1.
     200000    1    3    3    0    0  0.17777563137E+03 -0.26507507902E+03 -0.11903152187E+03  0.35530054296E+03  0.10100000000E+03 0.  1.
    -200001    1    1    2    0    0 -0.86482743741E+02  0.27520859628E+02  0.12625642338E+04  0.14064402252E+04  0.61300000000E+03 0. -1.
<mgrwt>
<rscale>  0 0.16552001E+04</rscale>
<asrwt>0</asrwt>
<pdfrwt beam="1">  1        2 0.61017418E-01 0.16552001E+04</pdfrwt>
<pdfrwt beam="2">  1       -2 0.22908209E+00 0.16552001E+04</pdfrwt>
<totfact> 0.66582294E+00</totfact>
</mgrwt>
</event>
<event>
 8    1  0.7685004E-052  0.1395598E+04  0.7818608E-02  0.8957011E-01
          2   -1    0    0  501    0  0.00000000000E+00  0.00000000000E+00  0.11045966317E+04  0.11045966317E+04  0.25500000000E-02 0.  1.
         -2   -1    0    0    0  501 -0.00000000000E+00 -0.00000000000E+00 -0.44081583104E+03  0.44081583105E+03  0.25500000000E-02 0. -1.
     200001    2    1    2    0    0  0.79323941595E+02 -0.19384321159E+03  0.45656164498E+02  0.65002732539E+03  0.61366404490E+03 0.  0.
    5000001    2    3    3    0    0  0.24373768179E+03  0.18918682077E+02 -0.14778875619E+03  0.30373057590E+03  0.10317350544E+03 0.  0.
        -13    1    4    4    0    0  0.20334699217E+03 -0.41626675143E+00 -0.83467916540E+02  0.21981145729E+03  0.10566000000E+00 0. -1.
     200003    1    4    4    0    0  0.40390689625E+02  0.19334948829E+02 -0.64320839653E+02  0.83919118610E+02  0.30000000000E+02 0. -1.
     200000    1    3    3    0    0 -0.16441374020E+03 -0.21276189367E+03  0.19344492069E+03  0.34629674948E+03  0.10100000000E+03 0.  1.
    -200001    1    1    2    0    0 -0.79323941595E+02  0.19384321159E+03  0.61812463618E+03  0.89538513738E+03  0.61300000000E+03 0.  1.
<mgrwt>
<rscale>  0 0.13955983E+04</rscale>
<asrwt>0</asrwt>
<pdfrwt beam="1">  1        2 0.15779952E+00 0.13955983E+04</pdfrwt>
<pdfrwt beam="2">  1       -2 0.62973690E-01 0.13955983E+04</pdfrwt>
<totfact> 0.55308149E+01</totfact>
</mgrwt>
</event>
<event>
 8    1  0.7685004E-052  0.2995270E+04  0.7818608E-02  0.8245083E-01
          2   -1    0    0  501    0  0.00000000000E+00  0.00000000000E+00  0.16667702559E+04  0.16667702559E+04  0.25500000000E-02 0.  1.
         -2   -1    0    0    0  501 -0.00000000000E+00 -0.00000000000E+00 -0.13456626148E+04  0.13456626148E+04  0.25500000000E-02 0. -1.
     200001    2    1    2    0    0 -0.11797671124E+04  0.32860473710E+03 -0.44906336091E+03  0.14412028159E+04  0.61284267295E+03 0.  0.
    5000001    2    3    3    0    0 -0.11905094828E+04  0.26660689427E+03 -0.48709333313E+03  0.13162771987E+04  0.83268746578E+02 0.  0.
        -13    1    4    4    0    0 -0.84014572345E+03  0.16223204161E+03 -0.35552285290E+03  0.92658544240E+03  0.10566000000E+00 0. -1.
     200003    1    4    4    0    0 -0.35036375930E+03  0.10437485265E+03 -0.13157048023E+03  0.38969175634E+03  0.30000000000E+02 0. -1.
     200000    1    3    3    0    0  0.10742370372E+02  0.61997842836E+02  0.38029972226E+02  0.12492561717E+03  0.10100000000E+03 0.  1.
    -200001    1    1    2    0    0  0.11797671124E+04 -0.32860473710E+03  0.77017100197E+03  0.15712300548E+04  0.61300000000E+03 0.  1.
<mgrwt>
<rscale>  0 0.29952699E+04</rscale>
<asrwt>0</asrwt>
<pdfrwt beam="1">  1        2 0.23811004E+00 0.29952699E+04</pdfrwt>
<pdfrwt beam="2">  1       -2 0.19223751E+00 0.29952699E+04</pdfrwt>
<totfact> 0.15429725E+00</totfact>
</mgrwt>
</event>
<event>
 8    1  0.7685004E-052  0.1511341E+04  0.7818608E-02  0.8876946E-01
          2   -1    0    0  501    0  0.00000000000E+00  0.00000000000E+00  0.12589757077E+04  0.12589757077E+04  0.25500000000E-02 0.  1.
         -2   -1    0    0    0  501 -0.00000000000E+00 -0.00000000000E+00 -0.45357353751E+03  0.45357353752E+03  0.25500000000E-02 0. -1.
     200001    2    1    2    0    0  0.11504965277E+03 -0.42405182240E+03  0.35901232454E+03  0.83614222506E+03  0.61415600678E+03 0.  0.
    5000001    2    3    3    0    0  0.60205142784E+02 -0.56096294609E+03  0.24804905448E+03  0.62574635207E+03  0.10828701492E+03 0.  0.
        -13    1    4    4    0    0  0.42277208538E+02 -0.21545057202E+03  0.47210790748E+02  0.22457778446E+03  0.10566000000E+00 0. -1.
     200003    1    4    4    0    0  0.17927934246E+02 -0.34551237407E+03  0.20083826373E+03  0.40116856761E+03  0.30000000000E+02 0. -1.
     200000    1    3    3    0    0  0.54844509990E+02  0.13691112369E+03  0.11096327006E+03  0.21039587298E+03  0.10100000000E+03 0.  1.
    -200001    1    1    2    0    0 -0.11504965277E+03  0.42405182240E+03  0.44638984562E+03  0.87640702015E+03  0.61300000000E+03 0. -1.
<mgrwt>
<rscale>  0 0.15113412E+04</rscale>
<asrwt>0</asrwt>
<pdfrwt beam="1">  1        2 0.17985368E+00 0.15113412E+04</pdfrwt>
<pdfrwt beam="2">  1       -2 0.64796219E-01 0.15113412E+04</pdfrwt>
<totfact> 0.42063798E+01</totfact>
</mgrwt>
</event>
<event>
 8    1  0.7685004E-052  0.1692549E+04  0.7818608E-02  0.8765625E-01
         -2   -1    0    0    0  501 -0.00000000000E+00  0.00000000000E+00  0.33416086704E+03  0.33416086705E+03  0.25500000000E-02 0. -1.
          2   -1    0    0  501    0  0.00000000000E+00 -0.00000000000E+00 -0.21432217047E+04  0.21432217047E+04  0.25500000000E-02 0.  1.
     200001    2    1    2    0    0  0.26050161297E+02 -0.56247764096E+03 -0.11294099028E+04  0.14027877175E+04  0.61252505611E+03 0.  0.
    5000001    2    3    3    0    0 -0.26018401210E+03 -0.37708890135E+03 -0.55215296790E+03  0.72475707241E+03  0.10250928926E+03 0.  0.
        -13    1    4    4    0    0 -0.17025059227E+03 -0.30381516337E+03 -0.38575509754E+03  0.51970753709E+03  0.10566000000E+00 0. -1.
     200003    1    4    4    0    0 -0.89933419830E+02 -0.73273737984E+02 -0.16639787035E+03  0.20504953533E+03  0.30000000000E+02 0.  1.
     200000    1    3    3    0    0  0.28623417339E+03 -0.18538873961E+03 -0.57725693488E+03  0.67803064508E+03  0.10100000000E+03 0. -1.
    -200001    1    1    2    0    0 -0.26050161297E+02  0.56247764096E+03 -0.67965093485E+03  0.10745948542E+04  0.61300000000E+03 0.  1.
<mgrwt>
<rscale>  0 0.16925493E+04</rscale>
<asrwt>0</asrwt>
<pdfrwt beam="1">  1        2 0.30617452E+00 0.16925493E+04</pdfrwt>
<pdfrwt beam="2">  1       -2 0.47737268E-01 0.16925493E+04</pdfrwt>
<totfact> 0.26854424E+01</totfact>
</mgrwt>
</event>
<event>
 8    1  0.7685004E-052  0.1501642E+04  0.7818608E-02  0.8883362E-01
         -2   -1    0    0    0  501 -0.00000000000E+00  0.00000000000E+00  0.19696657587E+03  0.19696657589E+03  0.25500000000E-02 0. -1.
          2   -1    0    0  501    0  0.00000000000E+00 -0.00000000000E+00 -0.28620699118E+04  0.28620699118E+04  0.25500000000E-02 0.  1.
     200001    2    1    2    0    0 -0.33275825246E+03 -0.23954651379E+03 -0.10485263913E+04  0.12821851702E+04  0.61358017437E+03 0.  0.
    5000001    2    3    3    0    0  0.39855482667E+02 -0.11223819219E+03 -0.78533038421E+03  0.79791092706E+03  0.75711055154E+02 0.  0.
        -13    1    4    4    0    0  0.37976723398E+02 -0.24182844079E+02 -0.33970340995E+03  0.34267398408E+03  0.10566000000E+00 0. -1.
     200003    1    4    4    0    0  0.18787592684E+01 -0.88055348112E+02 -0.44562697426E+03  0.45523694298E+03  0.30000000000E+02 0. -1.
     200000    1    3    3    0    0 -0.37261373513E+03 -0.12730832160E+03 -0.26319600712E+03  0.48427424309E+03  0.10100000000E+03 0. -1.
    -200001    1    1    2    0    0  0.33275825246E+03  0.23954651379E+03 -0.16165769446E+04  0.17768513175E+04  0.61300000000E+03 0.  1.
<mgrwt>
<rscale>  0 0.15016419E+04</rscale>
<asrwt>0</asrwt>
<pdfrwt beam="1">  1        2 0.40886711E+00 0.15016419E+04</pdfrwt>
<pdfrwt beam="2">  1       -2 0.28138084E-01 0.15016419E+04</pdfrwt>
<totfact> 0.31566149E+01</totfact>
</mgrwt>
</event>
<event>
 8    1  0.7685004E-052  0.1639534E+04  0.7818608E-02  0.8796622E-01
          2   -1    0    0  501    0  0.00000000000E+00  0.00000000000E+00  0.24192926322E+04  0.24192926322E+04  0.25500000000E-02 0.  1.
         -2   -1    0    0    0  501 -0.00000000000E+00 -0.00000000000E+00 -0.27777441406E+03  0.27777441407E+03  0.25500000000E-02 0. -1.
     200001    2    1    2    0    0 -0.27850529413E+02 -0.89238326868E+02  0.18899282066E+03  0.64844224931E+03  0.61320464239E+03 0.  0.
    5000001    2    3    3    0    0 -0.68899844970E+02  0.23980411413E+03  0.15351533237E+03  0.29999766769E+03  0.64640865967E+02 0.  0.
        -13    1    4    4    0    0 -0.56664957370E+01  0.31578347375E+01 -0.36278950387E+01  0.74332954074E+01  0.10566000000E+00 0. -1.
     200003    1    4    4    0    0 -0.63233349233E+02  0.23664627939E+03  0.15714322741E+03  0.29256437228E+03  0.30000000000E+02 0. -1.
     200000    1    3    3    0    0  0.41049315557E+02 -0.32904244100E+03  0.35477488291E+02  0.34844458162E+03  0.10100000000E+03 0. -1.
    -200001    1    1    2    0    0  0.27850529413E+02  0.89238326868E+02  0.19525253974E+04  0.20486247969E+04  0.61300000000E+03 0.  1.
<mgrwt>
<rscale>  0 0.16395336E+04</rscale>
<asrwt>0</asrwt>
<pdfrwt beam="1">  1        2 0.34561323E+00 0.16395336E+04</pdfrwt>
<pdfrwt beam="2">  1       -2 0.39682059E-01 0.16395336E+04</pdfrwt>
<totfact> 0.27996922E+01</totfact>
</mgrwt>
</event>
<event>
 8    1  0.7685004E-052  0.1270837E+04  0.7818608E-02  0.9053016E-01
         -2   -1    0    0    0  501 -0.00000000000E+00  0.00000000000E+00  0.38222386407E+03  0.38222386408E+03  0.25500000000E-02 0. -1.
          2   -1    0    0  501    0  0.00000000000E+00 -0.00000000000E+00 -0.10563362032E+04  0.10563362032E+04  0.25500000000E-02 0.  1.
     200001    2    1    2    0    0  0.36915078481E+02 -0.13597258441E+03 -0.43938703500E+03  0.76720603614E+03  0.61293789949E+03 0.  0.
    5000001    2    3    3    0    0 -0.21848607461E+03 -0.12060446050E+03 -0.41478068747E+03  0.49103145264E+03  0.82384877810E+02 0.  0.
        -13    1    4    4    0    0 -0.95459436377E+02 -0.15144485658E+02 -0.17799983670E+03  0.20254829663E+03  0.10566000000E+00 0. -1.
     200003    1    4    4    0    0 -0.12302663823E+03 -0.10545997484E+03 -0.23678085077E+03  0.28848315601E+03  0.30000000000E+02 0. -1.
     200000    1    3    3    0    0  0.25540115309E+03 -0.15368123916E+02 -0.24606347527E+02  0.27617458350E+03  0.10100000000E+03 0. -1.
    -200001    1    1    2    0    0 -0.36915078481E+02  0.13597258441E+03 -0.23472530412E+03  0.67135403114E+03  0.61300000000E+03 0. -1.
<mgrwt>
<rscale>  0 0.12708374E+04</rscale>
<asrwt>0</asrwt>
<pdfrwt beam="1">  1        2 0.15090517E+00 0.12708374E+04</pdfrwt>
<pdfrwt beam="2">  1       -2 0.54603409E-01 0.12708374E+04</pdfrwt>
<totfact> 0.80466918E+01</totfact>
</mgrwt>
</event>
<event>
 8    1  0.7685004E-052  0.1356652E+04  0.7818608E-02  0.8985808E-01
         -2   -1    0    0    0  501 -0.00000000000E+00  0.00000000000E+00  0.26930454012E+03  0.26930454013E+03  0.25500000000E-02 0. -1.
          2   -1    0    0  501    0  0.00000000000E+00 -0.00000000000E+00 -0.17085713261E+04  0.17085713261E+04  0.25500000000E-02 0.  1.
     200001    2    1    2    0    0 -0.20128408597E+03 -0.89087178080E+02 -0.10023921350E+04  0.11936053330E+04  0.60946853091E+03 0.  0.
    5000001    2    3    3    0    0 -0.86199387910E+02 -0.30654489721E+02  0.49661533128E+02  0.12886274094E+03  0.75955947189E+02 0.  0.
        -13    1    4    4    0    0  0.62285991644E+01 -0.11127423156E+02  0.22875235194E+02  0.26189741176E+02  0.10566000000E+00 0. -1.
     200003    1    4    4    0    0 -0.92427987074E+02 -0.19527066565E+02  0.26786297934E+02  0.10267299976E+03  0.30000000000E+02 0. -1.
     200000    1    3    3    0    0 -0.11508469806E+03 -0.58432688360E+02 -0.10520536681E+04  0.10647425921E+04  0.10100000000E+03 0.  1.
    -200001    1    1    2    0    0  0.20128408597E+03  0.89087178080E+02 -0.43687465095E+03  0.78427053318E+03  0.61300000000E+03 0.  1.
<mgrwt>
<rscale>  0 0.13566518E+04</rscale>
<asrwt>0</asrwt>
<pdfrwt beam="1">  1        2 0.24408161E+00 0.13566518E+04</pdfrwt>
<pdfrwt beam="2">  1       -2 0.38472078E-01 0.13566518E+04</pdfrwt>
<totfact> 0.70761928E+01</totfact>
</mgrwt>
</event>
<event>
 8    1  0.7685004E-052  0.1422033E+04  0.7818608E-02  0.8938023E-01
         -2   -1    0    0    0  501 -0.00000000000E+00  0.00000000000E+00  0.90963647992E+03  0.90963647992E+03  0.25500000000E-02 0. -1.
          2   -1    0    0  501    0  0.00000000000E+00 -0.00000000000E+00 -0.55576499625E+03  0.55576499625E+03  0.25500000000E-02 0.  1.
     200001    2    1    2    0    0 -0.61868892594E+02  0.12656540541E+03 -0.16547880826E+03  0.64971753772E+03  0.61229329665E+03 0.  0.
    5000001    2    3    3    0    0  0.11306790237E+02 -0.21912278491E+03 -0.15255006059E+03  0.28199052213E+03  0.90024969947E+02 0.  0.
        -13    1    4    4    0    0 -0.41636259423E+01 -0.16806106693E+03 -0.77421380634E+02  0.18508360096E+03  0.10566000000E+00 0. -1.
     200003    1    4    4    0    0  0.15470416179E+02 -0.51061717973E+02 -0.75128679956E+02  0.96906921172E+02  0.30000000000E+02 0. -1.
     200000    1    3    3    0    0 -0.73175682831E+02  0.34568819031E+03 -0.12928747673E+02  0.36772701559E+03  0.10100000000E+03 0.  1.
    -200001    1    1    2    0    0  0.61868892594E+02 -0.12656540541E+03  0.51935029193E+03  0.81568393845E+03  0.61300000000E+03 0. -1.
<mgrwt>
<rscale>  0 0.14220325E+04</rscale>
<asrwt>0</asrwt>
<pdfrwt beam="1">  1        2 0.79394999E-01 0.14220325E+04</pdfrwt>
<pdfrwt beam="2">  1       -2 0.12994807E+00 0.14220325E+04</pdfrwt>
<totfact> 0.25125928E+01</totfact>
</mgrwt>
</event>
<event>
 8    1  0.7685004E-052  0.1290112E+04  0.7818608E-02  0.9037444E-01
         -2   -1    0    0    0  501 -0.00000000000E+00  0.00000000000E+00  0.20491341222E+03  0.20491341224E+03  0.25500000000E-02 0. -1.
          2   -1    0    0  501    0  0.00000000000E+00 -0.00000000000E+00 -0.20305991288E+04  0.20305991288E+04  0.25500000000E-02 0.  1.
     200001    2    1    2    0    0  0.19503711749E+02  0.18769415223E+03 -0.79051395760E+03  0.10177444760E+04  0.61260265407E+03 0.  0.
    5000001    2    3    3    0    0  0.84659051913E+02  0.12114692165E+03 -0.85182545524E+03  0.86729896432E+03  0.68972136543E+02 0.  0.
        -13    1    4    4    0    0 -0.60106008515E+01 -0.27535024124E+01 -0.38998598731E+02  0.39555163571E+02  0.10566000000E+00 0. -1.
     200003    1    4    4    0    0  0.90669652764E+02  0.12390042407E+03 -0.81282685651E+03  0.82774380075E+03  0.30000000000E+02 0. -1.
     200000    1    3    3    0    0 -0.65155340164E+02  0.66547230575E+02  0.61311497644E+02  0.15044551171E+03  0.10100000000E+03 0. -1.
    -200001    1    1    2    0    0 -0.19503711749E+02 -0.18769415223E+03 -0.10351717590E+04  0.12177680650E+04  0.61300000000E+03 0. -1.
<mgrwt>
<rscale>  0 0.12901116E+04</rscale>
<asrwt>0</asrwt>
<pdfrwt beam="1">  1        2 0.29008558E+00 0.12901116E+04</pdfrwt>
<pdfrwt beam="2">  1       -2 0.29273346E-01 0.12901116E+04</pdfrwt>
<totfact> 0.81517946E+01</totfact>
</mgrwt>
</event>
<event>
 8    1  0.7685004E-052  0.1247904E+04  0.7818608E-02  0.9071929E-01
          2   -1    0    0  501    0  0.00000000000E+00  0.00000000000E+00  0.13767128273E+04  0.13767128273E+04  0.25500000000E-02 0.  1.
         -2   -1    0    0    0  501 -0.00000000000E+00 -0.00000000000E+00 -0.28278681257E+03  0.28278681259E+03  0.25500000000E-02 0. -1.
     200001    2    1    2    0    0 -0.26510484545E+02  0.11402144182E+03  0.56312595072E+03  0.84021861184E+03  0.61249717088E+03 0.  0.
    5000001    2    3    3    0    0  0.12462734668E+03  0.27976635715E+03  0.46666912327E+03  0.57598587249E+03  0.14205092241E+03 0.  0.
        -13    1    4    4    0    0  0.45889760142E+02  0.20066441657E+03  0.20782166253E+03  0.29250971393E+03  0.10566000000E+00 0. -1.
     200003    1    4    4    0    0  0.78737586543E+02  0.79101940579E+02  0.25884746074E+03  0.28347615855E+03  0.30000000000E+02 0. -1.
     200000    1    3    3    0    0 -0.15113783123E+03 -0.16574491533E+03  0.96456827449E+02  0.26423273936E+03  0.10100000000E+03 0. -1.
    -200001    1    1    2    0    0  0.26510484545E+02 -0.11402144182E+03  0.53080006404E+03  0.81928102808E+03  0.61300000000E+03 0. -1.
<mgrwt>
<rscale>  0 0.12479042E+04</rscale>
<asrwt>0</asrwt>
<pdfrwt beam="1">  1        2 0.19667327E+00 0.12479042E+04</pdfrwt>
<pdfrwt beam="2">  1       -2 0.40398115E-01 0.12479042E+04</pdfrwt>
<totfact> 0.97153569E+01</totfact>
</mgrwt>
</event>
<event>
 8    1  0.7685004E-052  0.1242819E+04  0.7818608E-02  0.9076181E-01
          2   -1    0    0  501    0  0.00000000000E+00  0.00000000000E+00  0.94301564735E+03  0.94301564735E+03  0.25500000000E-02 0.  1.
         -2   -1    0    0    0  501 -0.00000000000E+00 -0.00000000000E+00 -0.40948382899E+03  0.40948382900E+03  0.25500000000E-02 0. -1.
     200001    2    1    2    0    0  0.74776649124E+02  0.63425083369E+02  0.29245713447E+03  0.68654130074E+03  0.61334614506E+03 0.  0.
    5000001    2    3    3    0    0  0.15497299252E+03 -0.19136623466E+03  0.63409158202E+02  0.32046201333E+03  0.19503209086E+03 0.  0.
        -13    1    4    4    0    0  0.15408514296E+03 -0.39253615028E+02  0.35586833877E+02  0.16294020831E+03  0.10566000000E+00 0. -1.
     200003    1    4    4    0    0  0.88784956317E+00 -0.15211261963E+03  0.27822324325E+02  0.15752180502E+03  0.30000000000E+02 0. -1.
     200000    1    3    3    0    0 -0.80196343400E+02  0.25479131803E+03  0.22904797627E+03  0.36607928741E+03  0.10100000000E+03 0.  1.
    -200001    1    1    2    0    0 -0.74776649124E+02 -0.63425083369E+02  0.24107468389E+03  0.66595817561E+03  0.61300000000E+03 0. -1.
<mgrwt>
<rscale>  0 0.12428188E+04</rscale>
<asrwt>0</asrwt>
<pdfrwt beam="1">  1        2 0.13471652E+00 0.12428188E+04</pdfrwt>
<pdfrwt beam="2">  1       -2 0.58497691E-01 0.12428188E+04</pdfrwt>
<totfact> 0.82064404E+01</totfact>
</mgrwt>
</event>
<event>
 8    1  0.7685004E-052  0.1271590E+04  0.7818608E-02  0.9052403E-01
         -2   -1    0    0    0  501 -0.00000000000E+00  0.00000000000E+00  0.19555798370E+03  0.19555798372E+03  0.25500000000E-02 0. -1.
          2   -1    0    0  501    0  0.00000000000E+00 -0.00000000000E+00 -0.20670850482E+04  0.20670850482E+04  0.25500000000E-02 0.  1.
     200001    2    1    2    0    0 -0.13000378291E+03 -0.10561469925E+03 -0.10283669427E+04  0.12068289199E+04  0.60896799972E+03 0.  0.
    5000001    2    3    3    0    0  0.30495951865E+02  0.81192361468E+02  0.26558740377E+02  0.11883708182E+03  0.76776836896E+02 0.  0.
        -13    1    4    4    0    0  0.45515490851E+02  0.36908671192E+02  0.35608250886E+01  0.58707755501E+02  0.10566000000E+00 0. -1.
     200003    1    4    4    0    0 -0.15019538986E+02  0.44283690276E+02  0.22997915289E+02  0.60129326318E+02  0.30000000000E+02 0. -1.
     200000    1    3    3    0    0 -0.16049973478E+03 -0.18680706072E+03 -0.10549256831E+04  0.10879918381E+04  0.10100000000E+03 0.  1.
    -200001    1    1    2    0    0  0.13000378291E+03  0.10561469925E+03 -0.84316012178E+03  0.10558141121E+04  0.61300000000E+03 0. -1.
<mgrwt>
<rscale>  0 0.12715895E+04</rscale>
<asrwt>0</asrwt>
<pdfrwt beam="1">  1        2 0.29529785E+00 0.12715895E+04</pdfrwt>
<pdfrwt beam="2">  1       -2 0.27936856E-01 0.12715895E+04</pdfrwt>
<totfact> 0.85243733E+01</totfact>
</mgrwt>
</event>
<event>
 8    1  0.7685004E-052  0.1379579E+04  0.7818608E-02  0.8968734E-01
         -2   -1    0    0    0  501 -0.00000000000E+00  0.00000000000E+00  0.34593551616E+03  0.34593551617E+03  0.25500000000E-02 0. -1.
          2   -1    0    0  501    0  0.00000000000E+00 -0.00000000000E+00 -0.13754289984E+04  0.13754289984E+04  0.25500000000E-02 0.  1.
     200001    2    1    2    0    0 -0.23683498469E+03  0.20780359976E+03 -0.55843319752E+03  0.88653522790E+03  0.61222865677E+03 0.  0.
    5000001    2    3    3    0    0  0.73496195301E+02  0.25333837257E+03 -0.50025640049E+02  0.28068202678E+03  0.81840172012E+02 0.  0.
        -13    1    4    4    0    0  0.40368912729E+02  0.10801416305E+03  0.13107853116E+02  0.11605401980E+03  0.10566000000E+00 0. -1.
     200003    1    4    4    0    0  0.33127282572E+02  0.14532420952E+03 -0.63133493165E+02  0.16462800698E+03  0.30000000000E+02 0. -1.
     200000    1    3    3    0    0 -0.31033118000E+03 -0.45534772808E+02 -0.50840755747E+03  0.60585320112E+03  0.10100000000E+03 0.  1.
    -200001    1    1    2    0    0  0.23683498469E+03 -0.20780359976E+03 -0.47106028473E+03  0.83482928668E+03  0.61300000000E+03 0.  1.
<mgrwt>
<rscale>  0 0.13795793E+04</rscale>
<asrwt>0</asrwt>
<pdfrwt beam="1">  1        2 0.19648985E+00 0.13795793E+04</pdfrwt>
<pdfrwt beam="2">  1       -2 0.49419360E-01 0.13795793E+04</pdfrwt>
<totfact> 0.64499546E+01</totfact>
</mgrwt>
</event>
<event>
 8    1  0.7685004E-052  0.2220428E+04  0.7818608E-02  0.8509973E-01
          2   -1    0    0  501    0  0.00000000000E+00  0.00000000000E+00  0.33106555974E+04  0.33106555974E+04  0.25500000000E-02 0.  1.
         -2   -1    0    0    0  501 -0.00000000000E+00 -0.00000000000E+00 -0.37230551778E+03  0.37230551778E+03  0.25500000000E-02 0. -1.
     200001    2    1    2    0    0  0.88366313283E+03  0.34533152830E+02  0.19198060461E+04  0.22013221513E+04  0.61490721934E+03 0.  0.
    5000001    2    3    3    0    0  0.10839673737E+03  0.22764710732E+03  0.61554119405E+03  0.66846899867E+03  0.66232790064E+02 0.  0.
        -13    1    4    4    0    0  0.36703528313E+01  0.21815859677E+02  0.23515022788E+02  0.32285765968E+02  0.10566000000E+00 0. -1.
     200003    1    4    4    0    0  0.10472638454E+03  0.20583124764E+03  0.59202617126E+03  0.63618323271E+03  0.30000000000E+02 0. -1.
     200000    1    3    3    0    0  0.77526639546E+03 -0.19311395449E+03  0.13042648520E+04  0.15328531527E+04  0.10100000000E+03 0.  1.
    -200001    1    1    2    0    0 -0.88366313283E+03 -0.34533152830E+02  0.10185440336E+04  0.14816389639E+04  0.61300000000E+03 0. -1.
<mgrwt>
<rscale>  0 0.22204282E+04</rscale>
<asrwt>0</asrwt>
<pdfrwt beam="1">  1        2 0.47295081E+00 0.22204282E+04</pdfrwt>
<pdfrwt beam="2">  1       -2 0.53186502E-01 0.22204282E+04</pdfrwt>
<totfact> 0.47782305E+00</totfact>
</mgrwt>
</event>
<event>
 8    1  0.7685004E-052  0.1407602E+04  0.7818608E-02  0.8948334E-01
         -2   -1    0    0    0  501 -0.00000000000E+00  0.00000000000E+00  0.44574541634E+03  0.44574541635E+03  0.25500000000E-02 0. -1.
          2   -1    0    0  501    0  0.00000000000E+00 -0.00000000000E+00 -0.11112522197E+04  0.11112522197E+04  0.25500000000E-02 0.  1.
     200001    2    1    2    0    0 -0.31133850185E+02 -0.16273287074E+03 -0.66752084549E+03  0.92199813977E+03  0.61404005303E+03 0.  0.
    5000001    2    3    3    0    0 -0.16678287127E+03 -0.18735896126E+03 -0.32764590145E+02  0.26463704801E+03  0.77713205448E+02 0.  0.
        -13    1    4    4    0    0 -0.12972835657E+03 -0.15448016073E+03 -0.41829620215E+02  0.20601770518E+03  0.10566000000E+00 0. -1.
     200003    1    4    4    0    0 -0.37054514698E+02 -0.32878800537E+02  0.90650300702E+01  0.58619342835E+02  0.30000000000E+02 0.  1.
     200000    1    3    3    0    0  0.13564902108E+03  0.24626090522E+02 -0.63475625535E+03  0.65736109176E+03  0.10100000000E+03 0.  1.
    -200001    1    1    2    0    0  0.31133850185E+02  0.16273287074E+03  0.20140421774E+01  0.63499949623E+03  0.61300000000E+03 0. -1.
<mgrwt>
<rscale>  0 0.14076016E+04</rscale>
<asrwt>0</asrwt>
<pdfrwt beam="1">  1        2 0.15875032E+00 0.14076016E+04</pdfrwt>
<pdfrwt beam="2">  1       -2 0.63677917E-01 0.14076016E+04</pdfrwt>
<totfact> 0.53477590E+01</totfact>
</mgrwt>
</event>
<event>
 8    1  0.7685004E-052  0.1238510E+04  0.7818608E-02  0.9079801E-01
          2   -1    0    0  501    0  0.00000000000E+00  0.00000000000E+00  0.53493664303E+03  0.53493664304E+03  0.25500000000E-02 0.  1.
         -2   -1    0    0    0  501 -0.00000000000E+00 -0.00000000000E+00 -0.71686403371E+03  0.71686403371E+03  0.25500000000E-02 0. -1.
     200001    2    1    2    0    0 -0.32162472072E+02  0.12119669755E+02 -0.86785368022E+01  0.61386221861E+03  0.61283782147E+03 0.  0.
    5000001    2    3    3    0    0 -0.88636697758E+02 -0.26663973329E+03 -0.36706122312E+02  0.31074064480E+03  0.12751155774E+03 0.  0.
        -13    1    4    4    0    0 -0.94074152308E+02 -0.25500029825E+03 -0.16378977853E+02  0.27229282091E+03  0.10566000000E+00 0. -1.
     200003    1    4    4    0    0  0.54374545493E+01 -0.11639435040E+02 -0.20327144459E+02  0.38447823890E+02  0.30000000000E+02 0.  1.
     200000    1    3    3    0    0  0.56474225687E+02  0.27875940305E+03  0.28027585510E+02  0.30312157380E+03  0.10100000000E+03 0.  1.
    -200001    1    1    2    0    0  0.32162472072E+02 -0.12119669755E+02 -0.17324885387E+03  0.63793845814E+03  0.61300000000E+03 0. -1.
<mgrwt>
<rscale>  0 0.12385101E+04</rscale>
<asrwt>0</asrwt>
<pdfrwt beam="1">  1        2 0.76419521E-01 0.12385101E+04</pdfrwt>
<pdfrwt beam="2">  1       -2 0.10240915E+00 0.12385101E+04</pdfrwt>
<totfact> 0.47765209E+01</totfact>
</mgrwt>
</event>
<event>
 8    1  0.7685004E-052  0.1638542E+04  0.7818608E-02  0.8797214E-01
         -2   -1    0    0    0  501 -0.00000000000E+00  0.00000000000E+00  0.83165716362E+03  0.83165716362E+03  0.25500000000E-02 0. -1.
          2   -1    0    0  501    0  0.00000000000E+00 -0.00000000000E+00 -0.80706906024E+03  0.80706906025E+03  0.25500000000E-02 0.  1.
     200001    2    1    2    0    0  0.19338694691E+03 -0.29916860915E+03  0.42321653505E+03  0.82535423364E+03  0.61253327054E+03 0.  0.
    5000001    2    3    3    0    0  0.49369038417E+02 -0.10100217587E+03  0.52269929770E+03  0.54231905330E+03  0.90866155812E+02 0.  0.
        -13    1    4    4    0    0  0.67162054044E+02 -0.58180764766E+02  0.30081524482E+03  0.31366473435E+03  0.10566000000E+00 0. -1.
     200003    1    4    4    0    0 -0.17793015628E+02 -0.42821411099E+02  0.22188405288E+03  0.22865431896E+03  0.30000000000E+02 0. -1.
     200000    1    3    3    0    0  0.14401790849E+03 -0.19816643328E+03 -0.99482762650E+02  0.28303518034E+03  0.10100000000E+03 0.  1.
    -200001    1    1    2    0    0 -0.19338694691E+03  0.29916860915E+03 -0.39862843168E+03  0.81337199022E+03  0.61300000000E+03 0.  1.
<mgrwt>
<rscale>  0 0.16385417E+04</rscale>
<asrwt>0</asrwt>
<pdfrwt beam="1">  1        2 0.11529558E+00 0.16385417E+04</pdfrwt>
<pdfrwt beam="2">  1       -2 0.11880817E+00 0.16385417E+04</pdfrwt>
<totfact> 0.19606608E+01</totfact>
</mgrwt>
</event>
<event>
 8    1  0.7685004E-052  0.1431864E+04  0.7818608E-02  0.8931071E-01
          2   -1    0    0  501    0  0.00000000000E+00  0.00000000000E+00  0.65328026236E+03  0.65328026237E+03  0.25500000000E-02 0.  1.
         -2   -1    0    0    0  501 -0.00000000000E+00 -0.00000000000E+00 -0.78459252427E+03  0.78459252428E+03  0.25500000000E-02 0. -1.
     200001    2    1    2    0    0  0.39878560097E+02  0.31477274392E+03 -0.25625321543E+03  0.73640901585E+03  0.61315605546E+03 0.  0.
    5000001    2    3    3    0    0 -0.11539766624E+03  0.14854124020E+03  0.15548419352E+03  0.25529331956E+03  0.74954807481E+02 0.  0.
        -13    1    4    4    0    0 -0.30402211673E+02  0.25425525062E+02  0.32681346019E+01  0.39767369376E+02  0.10566000000E+00 0. -1.
     200003    1    4    4    0    0 -0.84995454570E+02  0.12311571514E+03  0.15221605892E+03  0.21552595019E+03  0.30000000000E+02 0. -1.
     200000    1    3    3    0    0  0.15527622634E+03  0.16623150372E+03 -0.41173740894E+03  0.48111569629E+03  0.10100000000E+03 0. -1.
    -200001    1    1    2    0    0 -0.39878560097E+02 -0.31477274392E+03  0.12494095351E+03  0.70146377079E+03  0.61300000000E+03 0.  1.
<mgrwt>
<rscale>  0 0.14318643E+04</rscale>
<asrwt>0</asrwt>
<pdfrwt beam="1">  1        2 0.93325752E-01 0.14318643E+04</pdfrwt>
<pdfrwt beam="2">  1       -2 0.11208465E+00 0.14318643E+04</pdfrwt>
<totfact> 0.29915541E+01</totfact>
</mgrwt>
</event>
<event>
 8    1  0.7685004E-052  0.1335605E+04  0.7818608E-02  0.9001797E-01
         -2   -1    0    0    0  501 -0.00000000000E+00  0.00000000000E+00  0.15198356698E+03  0.15198356700E+03  0.25500000000E-02 0. -1.
          2   -1    0    0  501    0  0.00000000000E+00 -0.00000000000E+00 -0.29342652843E+04  0.29342652843E+04  0.25500000000E-02 0.  1.
     200001    2    1    2    0    0 -0.92777911769E+02  0.10579193253E+03 -0.87210761132E+03  0.10751959457E+04  0.61292329212E+03 0.  0.
    5000001    2    3    3    0    0 -0.74981656041E+02 -0.20949064487E+03 -0.15257338578E+03  0.28295209937E+03  0.85291696308E+02 0.  0.
        -13    1    4    4    0    0 -0.36617012347E+02 -0.12660762111E+03 -0.12801157710E+03  0.18373151704E+03  0.10566000000E+00 0. -1.
     200003    1    4    4    0    0 -0.38364643694E+02 -0.82883023758E+02 -0.24561808681E+02  0.99220582334E+02  0.30000000000E+02 0. -1.
     200000    1    3    3    0    0 -0.17796255728E+02  0.31528257740E+03 -0.71953422554E+03  0.79224384633E+03  0.10100000000E+03 0. -1.
    -200001    1    1    2    0    0  0.92777911769E+02 -0.10579193253E+03 -0.19101741060E+04  0.20110529056E+04  0.61300000000E+03 0.  1.
<mgrwt>
<rscale>  0 0.13356049E+04</rscale>
<asrwt>0</asrwt>
<pdfrwt beam="1">  1        2 0.41918072E+00 0.13356049E+04</pdfrwt>
<pdfrwt beam="2">  1       -2 0.21711940E-01 0.13356049E+04</pdfrwt>
<totfact> 0.46749321E+01</totfact>
</mgrwt>
</event>
<event>
 8    1  0.7685004E-052  0.2340603E+04  0.7818608E-02  0.8462082E-01
          2   -1    0    0  501    0  0.00000000000E+00  0.00000000000E+00  0.67957314013E+03  0.67957314013E+03  0.25500000000E-02 0.  1.
         -2   -1    0    0    0  501 -0.00000000000E+00 -0.00000000000E+00 -0.20153915909E+04  0.20153915909E+04  0.25500000000E-02 0. -1.
     200001    2    1    2    0    0  0.82651345888E+03  0.55386988556E+03 -0.73738090169E+03  0.13820318127E+04  0.61350223260E+03 0.  0.
    5000001    2    3    3    0    0  0.78812485525E+02  0.31146667081E+03 -0.40489489588E+03  0.52263434466E+03  0.77355585498E+02 0.  0.
        -13    1    4    4    0    0  0.44899532492E+02  0.12831291712E+03 -0.12237314097E+03  0.18290809034E+03  0.10566000000E+00 0. -1.
     200003    1    4    4    0    0  0.33912953033E+02  0.18315375369E+03 -0.28252175491E+03  0.33972625432E+03  0.30000000000E+02 0. -1.
     200000    1    3    3    0    0  0.74770097336E+03  0.24240321475E+03 -0.33248600581E+03  0.85939746808E+03  0.10100000000E+03 0. -1.
    -200001    1    1    2    0    0 -0.82651345888E+03 -0.55386988556E+03 -0.59843754911E+03  0.13129329183E+04  0.61300000000E+03 0.  1.
<mgrwt>
<rscale>  0 0.23406033E+04</rscale>
<asrwt>0</asrwt>
<pdfrwt beam="1">  1        2 0.97081878E-01 0.23406033E+04</pdfrwt>
<pdfrwt beam="2">  1       -2 0.28791308E+00 0.23406033E+04</pdfrwt>
<totfact> 0.15966865E+00</totfact>
</mgrwt>
</event>
<event>
 8    1  0.7685004E-052  0.1425876E+04  0.7818608E-02  0.8935299E-01
          2   -1    0    0  501    0  0.00000000000E+00  0.00000000000E+00  0.46859186076E+03  0.46859186077E+03  0.25500000000E-02 0.  1.
         -2   -1    0    0    0  501 -0.00000000000E+00 -0.00000000000E+00 -0.10846971684E+04  0.10846971684E+04  0.25500000000E-02 0. -1.
     200001    2    1    2    0    0 -0.32429758735E+03  0.14970236894E+03 -0.39104267449E+03  0.80897598130E+03  0.61151291125E+03 0.  0.
    5000001    2    3    3    0    0 -0.22227719059E+03  0.34747367802E+03 -0.29239419758E+03  0.54543438298E+03  0.20459519297E+03 0.  0.
        -13    1    4    4    0    0 -0.37794220536E+02  0.24027985190E+03 -0.17863683866E+03  0.30178459475E+03  0.10566000000E+00 0. -1.
     200003    1    4    4    0    0 -0.18448297006E+03  0.10719382611E+03 -0.11375735891E+03  0.24364978823E+03  0.30000000000E+02 0. -1.
     200000    1    3    3    0    0 -0.10202039676E+03 -0.19777130908E+03 -0.98648476913E+02  0.26354159832E+03  0.10100000000E+03 0.  1.
    -200001    1    1    2    0    0  0.32429758735E+03 -0.14970236894E+03 -0.22506263319E+03  0.74431304791E+03  0.61300000000E+03 0.  1.
<mgrwt>
<rscale>  0 0.14258755E+04</rscale>
<asrwt>0</asrwt>
<pdfrwt beam="1">  1        2 0.66941695E-01 0.14258755E+04</pdfrwt>
<pdfrwt beam="2">  1       -2 0.15495674E+00 0.14258755E+04</pdfrwt>
<totfact> 0.19317821E+01</totfact>
</mgrwt>
</event>
<event>
 8    1  0.7685004E-052  0.1930951E+04  0.7818608E-02  0.8639602E-01
         -2   -1    0    0    0  501 -0.00000000000E+00  0.00000000000E+00  0.10706413681E+04  0.10706413681E+04  0.25500000000E-02 0. -1.
          2   -1    0    0  501    0  0.00000000000E+00 -0.00000000000E+00 -0.87063990390E+03  0.87063990390E+03  0.25500000000E-02 0.  1.
     200001    2    1    2    0    0  0.27780684454E+03  0.11419462594E+03  0.78754379560E+03  0.10406192674E+04  0.61028368338E+03 0.  0.
    5000001    2    3    3    0    0  0.27214531496E+03  0.21668842250E+03  0.81737874890E+03  0.89355412641E+03  0.96509133104E+02 0.  0.
        -13    1    4    4    0    0  0.10211902801E+03  0.50915224486E+02  0.35513695237E+03  0.37301866182E+03  0.10566000000E+00 0. -1.
     200003    1    4    4    0    0  0.17002628695E+03  0.16577319801E+03  0.46224179653E+03  0.52053546459E+03  0.30000000000E+02 0. -1.
     200000    1    3    3    0    0  0.56615295817E+01 -0.10249379656E+03 -0.29834953303E+02  0.14706514097E+03  0.10100000000E+03 0. -1.
    -200001    1    1    2    0    0 -0.27780684454E+03 -0.11419462594E+03 -0.58754233137E+03  0.90066200465E+03  0.61300000000E+03 0.  1.
<mgrwt>
<rscale>  0 0.19309512E+04</rscale>
<asrwt>0</asrwt>
<pdfrwt beam="1">  1        2 0.12437713E+00 0.19309512E+04</pdfrwt>
<pdfrwt beam="2">  1       -2 0.15294877E+00 0.19309512E+04</pdfrwt>
<totfact> 0.90675937E+00</totfact>
</mgrwt>
</event>
<event>
 8    1  0.7685004E-052  0.1392897E+04  0.7818608E-02  0.8958976E-01
         -2   -1    0    0    0  501 -0.00000000000E+00  0.00000000000E+00  0.33701937057E+03  0.33701937058E+03  0.25500000000E-02 0. -1.
          2   -1    0    0  501    0  0.00000000000E+00 -0.00000000000E+00 -0.14392057064E+04  0.14392057064E+04  0.25500000000E-02 0.  1.
     200001    2    1    2    0    0  0.36279614106E+02 -0.31448616053E+03 -0.66193152885E+03  0.95780522712E+03  0.61564579806E+03 0.  0.
    5000001    2    3    3    0    0  0.25277508458E+03 -0.15691767346E+02 -0.34704696815E+03  0.46232398157E+03  0.17076413818E+03 0.  0.
        -13    1    4    4    0    0  0.20579185535E+03 -0.28043317311E+02 -0.14742620892E+03  0.25469827957E+03  0.10566000000E+00 0. -1.
     200003    1    4    4    0    0  0.46983229222E+02  0.12351549965E+02 -0.19962075923E+03  0.20762570200E+03  0.30000000000E+02 0. -1.
     200000    1    3    3    0    0 -0.21649547047E+03 -0.29879439318E+03 -0.31488456069E+03  0.49548124555E+03  0.10100000000E+03 0. -1.
    -200001    1    1    2    0    0 -0.36279614106E+02  0.31448616053E+03 -0.44025480699E+03  0.81841984986E+03  0.61300000000E+03 0.  1.
<mgrwt>
<rscale>  0 0.13928966E+04</rscale>
<asrwt>0</asrwt>
<pdfrwt beam="1">  1        2 0.20560081E+00 0.13928966E+04</pdfrwt>
<pdfrwt beam="2">  1       -2 0.48145625E-01 0.13928966E+04</pdfrwt>
<totfact> 0.62754478E+01</totfact>
</mgrwt>
</event>
<event>
 8    1  0.7685004E-052  0.1351549E+04  0.7818608E-02  0.8989656E-01
         -2   -1    0    0    0  501 -0.00000000000E+00  0.00000000000E+00  0.92369056562E+02  0.92369056597E+02  0.25500000000E-02 0. -1.
          2   -1    0    0  501    0  0.00000000000E+00 -0.00000000000E+00 -0.49439852258E+04  0.49439852258E+04  0.25500000000E-02 0.  1.
     200001    2    1    2    0    0 -0.18072156670E+03  0.23487041474E+02 -0.15852113024E+04  0.17079339845E+04  0.60904162103E+03 0.  0.
    5000001    2    3    3    0    0 -0.35240349472E+03 -0.12044134418E+03 -0.89779526991E+03  0.97791215851E+03  0.10761738990E+03 0.  0.
        -13    1    4    4    0    0 -0.10714510446E+02 -0.98555498051E+01 -0.54590730239E+01  0.15548158681E+02  0.10566000000E+00 0. -1.
     200003    1    4    4    0    0 -0.34168898427E+03 -0.11058579438E+03 -0.89233619689E+03  0.96236399983E+03  0.30000000000E+02 0. -1.
     200000    1    3    3    0    0  0.17168192802E+03  0.14392838566E+03 -0.68741603253E+03  0.73002182596E+03  0.10100000000E+03 0.  1.
    -200001    1    1    2    0    0  0.18072156670E+03 -0.23487041474E+02 -0.32664048668E+04  0.33284202979E+04  0.61300000000E+03 0.  1.
<mgrwt>
<rscale>  0 0.13515491E+04</rscale>
<asrwt>0</asrwt>
<pdfrwt beam="1">  1        2 0.70628344E+00 0.13515491E+04</pdfrwt>
<pdfrwt beam="2">  1       -2 0.13195583E-01 0.13515491E+04</pdfrwt>
<totfact> 0.44686799E+00</totfact>
</mgrwt>
</event>
<event>
 8    1  0.7685004E-052  0.1408409E+04  0.7818608E-02  0.8947754E-01
          2   -1    0    0  501    0  0.00000000000E+00  0.00000000000E+00  0.11492813744E+04  0.11492813744E+04  0.25500000000E-02 0.  1.
         -2   -1    0    0    0  501 -0.00000000000E+00 -0.00000000000E+00 -0.43149044506E+03  0.43149044507E+03  0.25500000000E-02 0. -1.
     200001    2    1    2    0    0 -0.29083350037E+03  0.15761350314E+03  0.24463469849E+03  0.73870771260E+03  0.61352816369E+03 0.  0.
    5000001    2    3    3    0    0  0.71509736947E+02 -0.24686323564E+02  0.29825398897E+03  0.31727933582E+03  0.77380087554E+02 0.  0.
        -13    1    4    4    0    0 -0.10408080667E+02 -0.51784869165E+01  0.88648458127E+02  0.89407522963E+02  0.10566000000E+00 0. -1.
     200003    1    4    4    0    0  0.81917817614E+02 -0.19507836648E+02  0.20960553085E+03  0.22787181286E+03  0.30000000000E+02 0. -1.
     200000    1    3    3    0    0 -0.36234323732E+03  0.18229982670E+03 -0.53619290481E+02  0.42142837678E+03  0.10100000000E+03 0. -1.
    -200001    1    1    2    0    0  0.29083350037E+03 -0.15761350314E+03  0.47315623085E+03  0.84206410688E+03  0.61300000000E+03 0. -1.
<mgrwt>
<rscale>  0 0.14084089E+04</rscale>
<asrwt>0</asrwt>
<pdfrwt beam="1">  1        2 0.16418306E+00 0.14084089E+04</pdfrwt>
<pdfrwt beam="2">  1       -2 0.61641492E-01 0.14084089E+04</pdfrwt>
<totfact> 0.54451022E+01</totfact>
</mgrwt>
</event>
<event>
 8    1  0.7685004E-052  0.1476242E+04  0.7818608E-02  0.8900407E-01
         -2   -1    0    0    0  501 -0.00000000000E+00  0.00000000000E+00  0.92204433799E+03  0.92204433799E+03  0.25500000000E-02 0. -1.
          2   -1    0    0  501    0  0.00000000000E+00 -0.00000000000E+00 -0.59088515555E+03  0.59088515555E+03  0.25500000000E-02 0.  1.
     200001    2    1    2    0    0  0.34094378860E+03  0.18768342664E+03  0.30221403066E+03  0.78624210722E+03  0.61267903116E+03 0.  0.
    5000001    2    3    3    0    0 -0.81808888037E+02 -0.31812871663E+02 -0.82383934243E+02  0.16574630129E+03  0.11392967481E+03 0.  0.
        -13    1    4    4    0    0 -0.14370983441E+02 -0.49890140335E+02  0.22948820251E+01  0.51969499856E+02  0.10566000000E+00 0. -1.
     200003    1    4    4    0    0 -0.67437904596E+02  0.18077268672E+02 -0.84678816268E+02  0.11377680143E+03  0.30000000000E+02 0. -1.
     200000    1    3    3    0    0  0.42275267664E+03  0.21949629830E+03  0.38459796490E+03  0.62049580594E+03  0.10100000000E+03 0. -1.
    -200001    1    1    2    0    0 -0.34094378860E+03 -0.18768342664E+03  0.28945151779E+02  0.72668738632E+03  0.61300000000E+03 0.  1.
<mgrwt>
<rscale>  0 0.14762416E+04</rscale>
<asrwt>0</asrwt>
<pdfrwt beam="1">  1        2 0.84412165E-01 0.14762416E+04</pdfrwt>
<pdfrwt beam="2">  1       -2 0.13172062E+00 0.14762416E+04</pdfrwt>
<totfact> 0.22500466E+01</totfact>
</mgrwt>
</event>
<event>
 8    1  0.7685004E-052  0.1233370E+04  0.7818608E-02  0.9084139E-01
         -2   -1    0    0    0  501 -0.00000000000E+00  0.00000000000E+00  0.24456148015E+03  0.24456148016E+03  0.25500000000E-02 0. -1.
          2   -1    0    0  501    0  0.00000000000E+00 -0.00000000000E+00 -0.15550308924E+04  0.15550308924E+04  0.25500000000E-02 0.  1.
     200001    2    1    2    0    0 -0.52694403817E+01  0.38830118604E+02 -0.73555811344E+03  0.95826749678E+03  0.61293989267E+03 0.  0.
    5000001    2    3    3    0    0  0.10698978451E+03  0.24330246329E+03 -0.16993443665E+03  0.33815281621E+03  0.12176498561E+03 0.  0.
        -13    1    4    4    0    0  0.92214624607E+02  0.10034554010E+03 -0.39827331719E+02  0.14198236484E+03  0.10566000000E+00 0. -1.
     200003    1    4    4    0    0  0.14775159905E+02  0.14295692319E+03 -0.13010710493E+03  0.19617045138E+03  0.30000000000E+02 0. -1.
     200000    1    3    3    0    0 -0.11225922489E+03 -0.20447234469E+03 -0.56562367679E+03  0.62011468057E+03  0.10100000000E+03 0. -1.
    -200001    1    1    2    0    0  0.52694403817E+01 -0.38830118604E+02 -0.57491129880E+03  0.84132487578E+03  0.61300000000E+03 0. -1.
<mgrwt>
<rscale>  0 0.12333704E+04</rscale>
<asrwt>0</asrwt>
<pdfrwt beam="1">  1        2 0.22214726E+00 0.12333704E+04</pdfrwt>
<pdfrwt beam="2">  1       -2 0.34937355E-01 0.12333704E+04</pdfrwt>
<totfact> 0.10337600E+02</totfact>
</mgrwt>
</event>
<event>
 8    1  0.7685004E-052  0.1597917E+04  0.7818608E-02  0.8821828E-01
          2   -1    0    0  501    0  0.00000000000E+00  0.00000000000E+00  0.12148598847E+04  0.12148598847E+04  0.25500000000E-02 0.  1.
         -2   -1    0    0    0  501 -0.00000000000E+00 -0.00000000000E+00 -0.52543917771E+03  0.52543917772E+03  0.25500000000E-02 0. -1.
     200001    2    1    2    0    0  0.32206286737E+01  0.50997860395E+03  0.29220956668E+03  0.84943754739E+03  0.61324478563E+03 0.  0.
    5000001    2    3    3    0    0 -0.14791447716E+03  0.14113917450E+02 -0.95462241304E+02  0.19429325927E+03  0.80987257421E+02 0.  0.
        -13    1    4    4    0    0 -0.10046321236E+03  0.13706353586E+02 -0.93800748700E+02  0.13812788563E+03  0.10566000000E+00 0. -1.
     200003    1    4    4    0    0 -0.47451264800E+02  0.40756386397E+00 -0.16614926046E+01  0.56165373648E+02  0.30000000000E+02 0.  1.
     200000    1    3    3    0    0  0.15113510584E+03  0.49586468650E+03  0.38767180799E+03  0.65514428811E+03  0.10100000000E+03 0.  1.
    -200001    1    1    2    0    0 -0.32206286737E+01 -0.50997860395E+03  0.39721114026E+03  0.89086151499E+03  0.61300000000E+03 0.  1.
<mgrwt>
<rscale>  0 0.15979174E+04</rscale>
<asrwt>0</asrwt>
<pdfrwt beam="1">  1        2 0.17355141E+00 0.15979174E+04</pdfrwt>
<pdfrwt beam="2">  1       -2 0.75062740E-01 0.15979174E+04</pdfrwt>
<totfact> 0.32111156E+01</totfact>
</mgrwt>
</event>
<event>
 8    1  0.7685004E-052  0.1453924E+04  0.7818608E-02  0.8915685E-01
          2   -1    0    0  501    0  0.00000000000E+00  0.00000000000E+00  0.84678503343E+03  0.84678503344E+03  0.25500000000E-02 0.  1.
         -2   -1    0    0    0  501 -0.00000000000E+00 -0.00000000000E+00 -0.62409402570E+03  0.62409402570E+03  0.25500000000E-02 0. -1.
     200001    2    1    2    0    0  0.34449380590E+03 -0.16069058693E+03  0.20155861313E+03  0.74927457943E+03  0.61342405710E+03 0.  0.
    5000001    2    3    3    0    0  0.32104974378E+03 -0.31984699129E+03  0.28021332673E+03  0.54368287467E+03  0.10815046887E+03 0.  0.
        -13    1    4    4    0    0  0.10718381355E+03 -0.81938699057E+02  0.13575542215E+03  0.19139452996E+03  0.10566000000E+00 0. -1.
     200003    1    4    4    0    0  0.21386593023E+03 -0.23790829223E+03  0.14445790458E+03  0.35228834471E+03  0.30000000000E+02 0. -1.
     200000    1    3    3    0    0  0.23444062120E+02  0.15915640435E+03 -0.78654713599E+02  0.20559170476E+03  0.10100000000E+03 0. -1.
    -200001    1    1    2    0    0 -0.34449380590E+03  0.16069058693E+03  0.21132394608E+02  0.72160447971E+03  0.61300000000E+03 0. -1.
<mgrwt>
<rscale>  0 0.14539236E+04</rscale>
<asrwt>0</asrwt>
<pdfrwt beam="1">  1        2 0.12096929E+00 0.14539236E+04</pdfrwt>
<pdfrwt beam="2">  1       -2 0.89156289E-01 0.14539236E+04</pdfrwt>
<totfact> 0.37022790E+01</totfact>
</mgrwt>
</event>
<event>
 8    1  0.7685004E-052  0.1314122E+04  0.7818608E-02  0.9018440E-01
         -2   -1    0    0    0  501 -0.00000000000E+00  0.00000000000E+00  0.18761495435E+03  0.18761495436E+03  0.25500000000E-02 0. -1.
          2   -1    0    0  501    0  0.00000000000E+00 -0.00000000000E+00 -0.23011459966E+04  0.23011459966E+04  0.25500000000E-02 0.  1.
     200001    2    1    2    0    0  0.78582646645E+02  0.21486882177E+03 -0.93375871546E+03  0.11396962431E+04  0.61209341194E+03 0.  0.
    5000001    2    3    3    0    0 -0.80642176868E+02 -0.18190411994E+03 -0.26622843772E+03  0.34058487202E+03  0.74351896141E+02 0.  0.
        -13    1    4    4    0    0 -0.33288197543E+02 -0.13119393624E+03 -0.15108630154E+03  0.20284731863E+03  0.10566000000E+00 0. -1.
     200003    1    4    4    0    0 -0.47353979325E+02 -0.50710183705E+02 -0.11514213618E+03  0.13773755339E+03  0.30000000000E+02 0.  1.
     200000    1    3    3    0    0  0.15922482351E+03  0.39677294171E+03 -0.66753027774E+03  0.79911137108E+03  0.10100000000E+03 0. -1.
    -200001    1    1    2    0    0 -0.78582646645E+02 -0.21486882177E+03 -0.11797723268E+04  0.13490647079E+04  0.61300000000E+03 0. -1.
<mgrwt>
<rscale>  0 0.13141224E+04</rscale>
<asrwt>0</asrwt>
<pdfrwt beam="1">  1        2 0.32873512E+00 0.13141224E+04</pdfrwt>
<pdfrwt beam="2">  1       -2 0.26802138E-01 0.13141224E+04</pdfrwt>
<totfact> 0.69485559E+01</totfact>
</mgrwt>
</event>
<event>
 8    1  0.7685004E-052  0.4957444E+04  0.7818608E-02  0.7835106E-01
         -2   -1    0    0    0  501 -0.00000000000E+00  0.00000000000E+00  0.17526485153E+04  0.17526485154E+04  0.25500000000E-02 0. -1.
          2   -1    0    0  501    0  0.00000000000E+00 -0.00000000000E+00 -0.35055879100E+04  0.35055879100E+04  0.25500000000E-02 0.  1.
     200001    2    1    2    0    0 -0.71482570240E+03 -0.17958307820E+04  0.63560785956E+03  0.21250414158E+04  0.61304134083E+03 0.  0.
    5000001    2    3    3    0    0 -0.41928598838E+03 -0.38953917385E+03  0.24941579795E+03  0.63361755988E+03  0.10826570977E+03 0.  0.
        -13    1    4    4    0    0 -0.78100257021E+02 -0.25018384409E+02  0.41932353640E+02  0.92108105783E+02  0.10566000000E+00 0. -1.
     200003    1    4    4    0    0 -0.34118573136E+03 -0.36452078944E+03  0.20748344431E+03  0.54150945410E+03  0.30000000000E+02 0. -1.
     200000    1    3    3    0    0 -0.29553971402E+03 -0.14062916081E+04  0.38619206161E+03  0.14914238559E+04  0.10100000000E+03 0. -1.
    -200001    1    1    2    0    0  0.71482570240E+03  0.17958307820E+04 -0.23885472542E+04  0.31331950096E+04  0.61300000000E+03 0.  1.
<mgrwt>
<rscale>  0 0.49574443E+04</rscale>
<asrwt>0</asrwt>
<pdfrwt beam="1">  1        2 0.50079827E+00 0.49574443E+04</pdfrwt>
<pdfrwt beam="2">  1       -2 0.25037836E+00 0.49574443E+04</pdfrwt>
<totfact> 0.56409518E-02</totfact>
</mgrwt>
</event>
<event>
 8    1  0.7685004E-052  0.1876780E+04  0.7818608E-02  0.8666501E-01
          2   -1    0    0  501    0  0.00000000000E+00  0.00000000000E+00  0.11668899692E+04  0.11668899692E+04  0.25500000000E-02 0.  1.
         -2   -1    0    0    0  501 -0.00000000000E+00 -0.00000000000E+00 -0.75463516698E+03  0.75463516698E+03  0.25500000000E-02 0. -1.
     200001    2    1    2    0    0 -0.19769701642E+03 -0.80559767258E+02 -0.48762922516E+03  0.81196024436E+03  0.61312575447E+03 0.  0.
    5000001    2    3    3    0    0 -0.45127216646E+02 -0.26941809436E+03 -0.46905252775E+03  0.54834858831E+03  0.77803118613E+02 0.  0.
        -13    1    4    4    0    0  0.33001978824E+00 -0.11642181197E+03 -0.24884753516E+03  0.27473487972E+03  0.10566000000E+00 0. -1.
     200003    1    4    4    0    0 -0.45457236434E+02 -0.15299628238E+03 -0.22020499259E+03  0.27361370859E+03  0.30000000000E+02 0. -1.
     200000    1    3    3    0    0 -0.15256979978E+03  0.18885832710E+03 -0.18576697411E+02  0.26361165605E+03  0.10100000000E+03 0.  1.
    -200001    1    1    2    0    0  0.19769701642E+03  0.80559767258E+02  0.89988402735E+03  0.11095648918E+04  0.61300000000E+03 0.  1.
<mgrwt>
<rscale>  0 0.18767804E+04</rscale>
<asrwt>0</asrwt>
<pdfrwt beam="1">  1        2 0.16669857E+00 0.18767804E+04</pdfrwt>
<pdfrwt beam="2">  1       -2 0.10780502E+00 0.18767804E+04</pdfrwt>
<totfact> 0.14505184E+01</totfact>
</mgrwt>
</event>
<event>
 8    1  0.7685004E-052  0.1981251E+04  0.7818608E-02  0.8615437E-01
         -2   -1    0    0    0  501 -0.00000000000E+00  0.00000000000E+00  0.32212927741E+03  0.32212927742E+03  0.25500000000E-02 0. -1.
          2   -1    0    0  501    0  0.00000000000E+00 -0.00000000000E+00 -0.30464131388E+04  0.30464131388E+04  0.25500000000E-02 0.  1.
     200001    2    1    2    0    0 -0.12105556612E+03  0.43671211460E+03 -0.24375055294E+04  0.25540593085E+04  0.61352573218E+03 0.  0.
    5000001    2    3    3    0    0  0.12432647279E+03  0.36057522547E+03 -0.19914384759E+04  0.20294775826E+04  0.86489824709E+02 0.  0.
        -13    1    4    4    0    0  0.79124982811E+02  0.20776086958E+03 -0.96267397587E+03  0.98801140521E+03  0.10566000000E+00 0. -1.
     200003    1    4    4    0    0  0.45201489980E+02  0.15281435589E+03 -0.10287645000E+04  0.10414661774E+04  0.30000000000E+02 0. -1.
     200000    1    3    3    0    0 -0.24538203891E+03  0.76136889136E+02 -0.44606705353E+03  0.52458172591E+03  0.10100000000E+03 0. -1.
    -200001    1    1    2    0    0  0.12105556612E+03 -0.43671211460E+03 -0.28677833195E+03  0.81448310775E+03  0.61300000000E+03 0. -1.
<mgrwt>
<rscale>  0 0.19812510E+04</rscale>
<asrwt>0</asrwt>
<pdfrwt beam="1">  1        2 0.43520186E+00 0.19812510E+04</pdfrwt>
<pdfrwt beam="2">  1       -2 0.46018470E-01 0.19812510E+04</pdfrwt>
<totfact> 0.92971545E+00</totfact>
</mgrwt>
</event>
<event>
 8    1  0.7685004E-052  0.1467935E+04  0.7818608E-02  0.8906060E-01
         -2   -1    0    0    0  501 -0.00000000000E+00  0.00000000000E+00  0.50852265143E+03  0.50852265143E+03  0.25500000000E-02 0. -1.
          2   -1    0    0  501    0  0.00000000000E+00 -0.00000000000E+00 -0.10593590763E+04  0.10593590763E+04  0.25500000000E-02 0.  1.
     200001    2    1    2    0    0  0.46829683031E+02 -0.39290095348E+03 -0.18919002737E+03  0.75355912872E+03  0.61277590974E+03 0.  0.
    5000001    2    3    3    0    0  0.11908308340E+03 -0.52049142177E+02 -0.33205069267E+03  0.36367365730E+03  0.71491066282E+02 0.  0.
        -13    1    4    4    0    0  0.80448825935E+02 -0.74031326572E+01 -0.15816485369E+03  0.17760335603E+03  0.10566000000E+00 0. -1.
     200003    1    4    4    0    0  0.38634257466E+02 -0.44646009520E+02 -0.17388583898E+03  0.18607030127E+03  0.30000000000E+02 0. -1.
     200000    1    3    3    0    0 -0.72253400369E+02 -0.34085181130E+03  0.14286066529E+03  0.38988547142E+03  0.10100000000E+03 0. -1.
    -200001    1    1    2    0    0 -0.46829683031E+02  0.39290095348E+03 -0.36164639751E+03  0.81432259903E+03  0.61300000000E+03 0. -1.
<mgrwt>
<rscale>  0 0.14679347E+04</rscale>
<asrwt>0</asrwt>
<pdfrwt beam="1">  1        2 0.15133701E+00 0.14679347E+04</pdfrwt>
<pdfrwt beam="2">  1       -2 0.72646094E-01 0.14679347E+04</pdfrwt>
<totfact> 0.42954166E+01</totfact>
</mgrwt>
</event>
<event>
 8    1  0.7685004E-052  0.1498173E+04  0.7818608E-02  0.8885669E-01
          2   -1    0    0  501    0  0.00000000000E+00  0.00000000000E+00  0.16464929364E+04  0.16464929364E+04  0.25500000000E-02 0.  1.
         -2   -1    0    0    0  501 -0.00000000000E+00 -0.00000000000E+00 -0.34080362020E+03  0.34080362021E+03  0.25500000000E-02 0. -1.
     200001    2    1    2    0    0  0.33994932297E+03  0.23137307746E+03  0.48447523565E+03  0.88309521208E+03  0.61322251791E+03 0.  0.
    5000001    2    3    3    0    0  0.34237698428E+03 -0.25038457824E+01  0.51843823128E+03  0.62607615863E+03  0.77232688323E+02 0.  0.
        -13    1    4    4    0    0  0.93579652572E+02 -0.28061983527E+02  0.17081255473E+03  0.19677796196E+03  0.10566000000E+00 0. -1.
     200003    1    4    4    0    0  0.24879733171E+03  0.25558137745E+02  0.34762567655E+03  0.42929819667E+03  0.30000000000E+02 0. -1.
     200000    1    3    3    0    0 -0.24276613043E+01  0.23387692324E+03 -0.33962995623E+02  0.25701905345E+03  0.10100000000E+03 0. -1.
    -200001    1    1    2    0    0 -0.33994932297E+03 -0.23137307746E+03  0.82121408053E+03  0.11042013445E+04  0.61300000000E+03 0.  1.
<mgrwt>
<rscale>  0 0.14981732E+04</rscale>
<asrwt>0</asrwt>
<pdfrwt beam="1">  1        2 0.23521328E+00 0.14981732E+04</pdfrwt>
<pdfrwt beam="2">  1       -2 0.48686231E-01 0.14981732E+04</pdfrwt>
<totfact> 0.47286956E+01</totfact>
</mgrwt>
</event>
<event>
 8    1  0.7685004E-052  0.2825479E+04  0.7818608E-02  0.8295402E-01
         -2   -1    0    0    0  501 -0.00000000000E+00  0.00000000000E+00  0.18910095504E+04  0.18910095504E+04  0.25500000000E-02 0.  1.
          2   -1    0    0  501    0  0.00000000000E+00 -0.00000000000E+00 -0.10554321493E+04  0.10554321493E+04  0.25500000000E-02 0. -1.
     200001    2    1    2    0    0  0.51427093469E+03  0.10105765145E+04 -0.18525334920E+03  0.13021777590E+04  0.61286917581E+03 0.  0.
    5000001    2    3    3    0    0  0.54936941298E+03  0.98864600369E+03 -0.26877233969E+03  0.11647395101E+04  0.71776621037E+02 0.  0.
        -13    1    4    4    0    0  0.40148936790E+03  0.70941667755E+03 -0.17414601558E+03  0.83354218899E+03  0.10566000000E+00 0. -1.
     200003    1    4    4    0    0  0.14788004508E+03  0.27922932613E+03 -0.94626324113E+02  0.33119732113E+03  0.30000000000E+02 0.  1.
     200000    1    3    3    0    0 -0.35098478286E+02  0.21930510854E+02  0.83518990496E+02  0.13743824889E+03  0.10100000000E+03 0.  1.
    -200001    1    1    2    0    0 -0.51427093469E+03 -0.10105765145E+04  0.10208307503E+04  0.16442639407E+04  0.61300000000E+03 0.  1.
<mgrwt>
<rscale>  0 0.28254786E+04</rscale>
<asrwt>0</asrwt>
<pdfrwt beam="1">  1        2 0.15077602E+00 0.28254786E+04</pdfrwt>
<pdfrwt beam="2">  1       -2 0.27014422E+00 0.28254786E+04</pdfrwt>
<totfact> 0.10977886E+00</totfact>
</mgrwt>
</event>
<event>
 8    1  0.7685004E-052  0.1701086E+04  0.7818608E-02  0.8760745E-01
         -2   -1    0    0    0  501 -0.00000000000E+00  0.00000000000E+00  0.11570539692E+04  0.11570539692E+04  0.25500000000E-02 0. -1.
          2   -1    0    0  501    0  0.00000000000E+00 -0.00000000000E+00 -0.62522895280E+03  0.62522895281E+03  0.25500000000E-02 0.  1.
     200001    2    1    2    0    0  0.22092984498E+03  0.28912624515E+03  0.75212289544E+03  0.10361568351E+04  0.61280352076E+03 0.  0.
    5000001    2    3    3    0    0  0.17306350605E+03  0.12681881609E+03  0.80173731292E+03  0.83293902498E+03  0.70503270632E+02 0.  0.
        -13    1    4    4    0    0  0.19226991266E+02 -0.72447658408E+00  0.34133386631E+02  0.39182921106E+02  0.10566000000E+00 0. -1.
     200003    1    4    4    0    0  0.15383651479E+03  0.12754329267E+03  0.76760392629E+03  0.79375610387E+03  0.30000000000E+02 0. -1.
     200000    1    3    3    0    0  0.47866338929E+02  0.16230742906E+03 -0.49614417473E+02  0.20321781013E+03  0.10100000000E+03 0.  1.
    -200001    1    1    2    0    0 -0.22092984498E+03 -0.28912624515E+03 -0.22029787905E+03  0.74612608690E+03  0.61300000000E+03 0. -1.
<mgrwt>
<rscale>  0 0.17010863E+04</rscale>
<asrwt>0</asrwt>
<pdfrwt beam="1">  1        2 0.89318422E-01 0.17010863E+04</pdfrwt>
<pdfrwt beam="2">  1       -2 0.16529342E+00 0.17010863E+04</pdfrwt>
<totfact> 0.11344989E+01</totfact>
</mgrwt>
</event>
<event>
 8    1  0.7685004E-052  0.2147009E+04  0.7818608E-02  0.8540814E-01
         -2   -1    0    0    0  501 -0.00000000000E+00  0.00000000000E+00  0.47055289160E+03  0.47055289161E+03  0.25500000000E-02 0. -1.
          2   -1    0    0  501    0  0.00000000000E+00 -0.00000000000E+00 -0.24490583813E+04  0.24490583813E+04  0.25500000000E-02 0.  1.
     200001    2    1    2    0    0  0.33556335849E+03  0.29714176451E+03 -0.20211248238E+04  0.21590316233E+04  0.61284255836E+03 0.  0.
    5000001    2    3    3    0    0  0.14505702580E+03 -0.16399660893E+03 -0.43710177543E+03  0.49521935025E+03  0.79043116714E+02 0.  0.
        -13    1    4    4    0    0  0.13476888694E+02 -0.34626491274E+02 -0.31906998315E+02  0.48976403832E+02  0.10566000000E+00 0. -1.
     200003    1    4    4    0    0  0.13158013711E+03 -0.12937011766E+03 -0.40519477711E+03  0.44624294641E+03  0.30000000000E+02 0. -1.
     200000    1    3    3    0    0  0.19050633269E+03  0.46113837344E+03 -0.15840230484E+04  0.16638122731E+04  0.10100000000E+03 0. -1.
    -200001    1    1    2    0    0 -0.33556335849E+03 -0.29714176451E+03  0.42619334072E+02  0.76057964962E+03  0.61300000000E+03 0. -1.
<mgrwt>
<rscale>  0 0.21470086E+04</rscale>
<asrwt>0</asrwt>
<pdfrwt beam="1">  1        2 0.34986548E+00 0.21470086E+04</pdfrwt>
<pdfrwt beam="2">  1       -2 0.67221843E-01 0.21470086E+04</pdfrwt>
<totfact> 0.87763044E+00</totfact>
</mgrwt>
</event>
<event>
 8    1  0.7685004E-052  0.1947088E+04  0.7818608E-02  0.8631766E-01
          2   -1    0    0  501    0  0.00000000000E+00  0.00000000000E+00  0.29084940212E+04  0.29084940212E+04  0.25500000000E-02 0.  1.
         -2   -1    0    0    0  501 -0.00000000000E+00 -0.00000000000E+00 -0.32586896976E+03  0.32586896977E+03  0.25500000000E-02 0. -1.
     200001    2    1    2    0    0  0.64804113418E+03 -0.34491327429E+03  0.98773918058E+03  0.13746983923E+04  0.61257203876E+03 0.  0.
    5000001    2    3    3    0    0  0.38160568332E+03 -0.46459432394E+03  0.44883916408E+03  0.75346926319E+03  0.69199363938E+02 0.  0.
        -13    1    4    4    0    0  0.42246205490E+02 -0.79396931457E+02  0.51770629392E+02  0.10377294365E+03  0.10566000000E+00 0. -1.
     200003    1    4    4    0    0  0.33935947783E+03 -0.38519739249E+03  0.39706853469E+03  0.64969631953E+03  0.30000000000E+02 0. -1.
     200000    1    3    3    0    0  0.26643545086E+03  0.11968104966E+03  0.53890001650E+03  0.62122912915E+03  0.10100000000E+03 0. -1.
    -200001    1    1    2    0    0 -0.64804113418E+03  0.34491327429E+03  0.15948858708E+04  0.18596645986E+04  0.61300000000E+03 0. -1.
<mgrwt>
<rscale>  0 0.19470880E+04</rscale>
<asrwt>0</asrwt>
<pdfrwt beam="1">  1        2 0.41549916E+00 0.19470880E+04</pdfrwt>
<pdfrwt beam="2">  1       -2 0.46552708E-01 0.19470880E+04</pdfrwt>
<totfact> 0.10874421E+01</totfact>
</mgrwt>
</event>
<event>
 8    1  0.7685004E-052  0.1300365E+04  0.7818608E-02  0.9029276E-01
         -2   -1    0    0    0  501 -0.00000000000E+00  0.00000000000E+00  0.32247733934E+03  0.32247733935E+03  0.25500000000E-02 0. -1.
          2   -1    0    0  501    0  0.00000000000E+00 -0.00000000000E+00 -0.13109054161E+04  0.13109054161E+04  0.25500000000E-02 0.  1.
     200001    2    1    2    0    0  0.97538466610E+02 -0.12178823809E+03 -0.30517391977E+03  0.70228052130E+03  0.61296058755E+03 0.  0.
    5000001    2    3    3    0    0  0.18970822240E+03 -0.59544047507E+02 -0.22607891469E+01  0.36415781007E+03  0.30507555823E+03 0.  0.
        -13    1    4    4    0    0  0.37967812231E+02 -0.11293079129E+03  0.11284173438E+03  0.16409810045E+03  0.10566000000E+00 0. -1.
     200003    1    4    4    0    0  0.15174041017E+03  0.53386743788E+02 -0.11510252353E+03  0.20005970962E+03  0.30000000000E+02 0. -1.
     200000    1    3    3    0    0 -0.92169755793E+02 -0.62244190580E+02 -0.30291313063E+03  0.33812271123E+03  0.10100000000E+03 0. -1.
    -200001    1    1    2    0    0 -0.97538466610E+02  0.12178823809E+03 -0.68325415697E+03  0.93110223414E+03  0.61300000000E+03 0. -1.
<mgrwt>
<rscale>  0 0.13003650E+04</rscale>
<asrwt>0</asrwt>
<pdfrwt beam="1">  1        2 0.18727220E+00 0.13003650E+04</pdfrwt>
<pdfrwt beam="2">  1       -2 0.46068192E-01 0.13003650E+04</pdfrwt>
<totfact> 0.81085501E+01</totfact>
</mgrwt>
</event>
<event>
 8    1  0.7685004E-052  0.1579313E+04  0.7818608E-02  0.8833359E-01
         -2   -1    0    0    0  501 -0.00000000000E+00  0.00000000000E+00  0.20672745323E+03  0.20672745324E+03  0.25500000000E-02 0. -1.
          2   -1    0    0  501    0  0.00000000000E+00 -0.00000000000E+00 -0.30163256002E+04  0.30163256002E+04  0.25500000000E-02 0.  1.
     200001    2    1    2    0    0 -0.21282360033E+03  0.41065173277E+03 -0.10284813244E+04  0.12834461690E+04  0.61280625295E+03 0.  0.
    5000001    2    3    3    0    0 -0.39914997390E+02  0.29635364052E+03 -0.10059044528E+04  0.10517736545E+04  0.70465345777E+02 0.  0.
        -13    1    4    4    0    0 -0.33154711267E+02  0.10787956722E+03 -0.45188767950E+03  0.46576788420E+03  0.10566000000E+00 0. -1.
     200003    1    4    4    0    0 -0.67602861238E+01  0.18847407331E+03 -0.55401677326E+03  0.58600577031E+03  0.30000000000E+02 0. -1.
     200000    1    3    3    0    0 -0.17290860294E+03  0.11429809224E+03 -0.22576871673E+02  0.23167251454E+03  0.10100000000E+03 0. -1.
    -200001    1    1    2    0    0  0.21282360033E+03 -0.41065173277E+03 -0.17811168226E+04  0.19396068844E+04  0.61300000000E+03 0. -1.
<mgrwt>
<rscale>  0 0.15793129E+04</rscale>
<asrwt>0</asrwt>
<pdfrwt beam="1">  1        2 0.43090363E+00 0.15793129E+04</pdfrwt>
<pdfrwt beam="2">  1       -2 0.29532495E-01 0.15793129E+04</pdfrwt>
<totfact> 0.23560382E+01</totfact>
</mgrwt>
</event>
<event>
 8    1  0.7685004E-052  0.1289609E+04  0.7818608E-02  0.9037846E-01
         -2   -1    0    0    0  501 -0.00000000000E+00  0.00000000000E+00  0.33442110520E+03  0.33442110521E+03  0.25500000000E-02 0. -1.
          2   -1    0    0  501    0  0.00000000000E+00 -0.00000000000E+00 -0.12432622475E+04  0.12432622475E+04  0.25500000000E-02 0.  1.
     200001    2    1    2    0    0  0.87499514104E+02 -0.80677426025E+02 -0.65072699463E+03  0.90199339035E+03  0.61317325664E+03 0.  0.
    5000001    2    3    3    0    0  0.17155359752E+02  0.24617250373E+03 -0.37437983396E+03  0.45663069563E+03  0.86348851496E+02 0.  0.
        -13    1    4    4    0    0  0.61705418160E+01  0.19929785662E+03 -0.32566318034E+03  0.38185629422E+03  0.10566000000E+00 0. -1.
     200003    1    4    4    0    0  0.10984817936E+02  0.46874647111E+02 -0.48716653619E+02  0.74774401413E+02  0.30000000000E+02 0.  1.
     200000    1    3    3    0    0  0.70344154352E+02 -0.32684992976E+03 -0.27634716067E+03  0.44536269472E+03  0.10100000000E+03 0. -1.
    -200001    1    1    2    0    0 -0.87499514104E+02  0.80677426025E+02 -0.25811414772E+03  0.67568996240E+03  0.61300000000E+03 0. -1.
<mgrwt>
<rscale>  0 0.12896095E+04</rscale>
<asrwt>0</asrwt>
<pdfrwt beam="1">  1        2 0.17760889E+00 0.12896095E+04</pdfrwt>
<pdfrwt beam="2">  1       -2 0.47774444E-01 0.12896095E+04</pdfrwt>
<totfact> 0.82259086E+01</totfact>
</mgrwt>
</event>
<event>
 8    1  0.7685004E-052  0.1327253E+04  0.7818608E-02  0.9008228E-01
          2   -1    0    0  501    0  0.00000000000E+00  0.00000000000E+00  0.67042593525E+03  0.67042593526E+03  0.25500000000E-02 0.  1.
         -2   -1    0    0    0  501 -0.00000000000E+00 -0.00000000000E+00 -0.65689636664E+03  0.65689636665E+03  0.25500000000E-02 0. -1.
     200001    2    1    2    0    0  0.22268084183E+03 -0.11832869217E+03  0.45643765966E+02  0.66370437088E+03  0.61223500541E+03 0.  0.
    5000001    2    3    3    0    0  0.28535136578E+03  0.86335312699E+02  0.11180621640E+03  0.41795364492E+03  0.27074975735E+03 0.  0.
        -13    1    4    4    0    0 -0.23602297992E+02  0.77408383746E+02 -0.15391767771E+02  0.82377448515E+02  0.10566000000E+00 0. -1.
     200003    1    4    4    0    0  0.30895366377E+03  0.89269289532E+01  0.12719798417E+03  0.33557619641E+03  0.30000000000E+02 0. -1.
     200000    1    3    3    0    0 -0.62670523951E+02 -0.20466400487E+03 -0.66162450430E+02  0.24575072596E+03  0.10100000000E+03 0. -1.
    -200001    1    1    2    0    0 -0.22268084183E+03  0.11832869217E+03 -0.32114197355E+02  0.66361793103E+03  0.61300000000E+03 0.  1.
<mgrwt>
<rscale>  0 0.13272533E+04</rscale>
<asrwt>0</asrwt>
<pdfrwt beam="1">  1        2 0.95775134E-01 0.13272533E+04</pdfrwt>
<pdfrwt beam="2">  1       -2 0.93842338E-01 0.13272533E+04</pdfrwt>
<totfact> 0.44611568E+01</totfact>
</mgrwt>
</event>
<event>
 8    1  0.7685004E-052  0.2120841E+04  0.7818608E-02  0.8552118E-01
         -2   -1    0    0    0  501 -0.00000000000E+00  0.00000000000E+00  0.37928221160E+03  0.37928221161E+03  0.25500000000E-02 0. -1.
          2   -1    0    0  501    0  0.00000000000E+00 -0.00000000000E+00 -0.29647882393E+04  0.29647882393E+04  0.25500000000E-02 0.  1.
     200001    2    1    2    0    0  0.19918432154E+03  0.19747967335E+03 -0.25836594428E+04  0.26699450730E+04  0.61207676051E+03 0.  0.
    5000001    2    3    3    0    0 -0.84511709565E+01  0.33531878934E+03 -0.19742834702E+04  0.20038728579E+04  0.72118632826E+02 0.  0.
        -13    1    4    4    0    0 -0.14559541847E+02  0.12200085421E+03 -0.88375123714E+03  0.89225133734E+03  0.10566000000E+00 0. -1.
     200003    1    4    4    0    0  0.61083708907E+01  0.21331793512E+03 -0.10905322330E+04  0.11116215205E+04  0.30000000000E+02 0. -1.
     200000    1    3    3    0    0  0.20763549250E+03 -0.13783911599E+03 -0.60937597267E+03  0.66607221509E+03  0.10100000000E+03 0.  1.
    -200001    1    1    2    0    0 -0.19918432154E+03 -0.19747967335E+03 -0.18465848770E+01  0.67412537796E+03  0.61300000000E+03 0. -1.
<mgrwt>
<rscale>  0 0.21208408E+04</rscale>
<asrwt>0</asrwt>
<pdfrwt beam="1">  1        2 0.42354116E+00 0.21208408E+04</pdfrwt>
<pdfrwt beam="2">  1       -2 0.54183175E-01 0.21208408E+04</pdfrwt>
<totfact> 0.73155955E+00</totfact>
</mgrwt>
</event>
<event>
 8    1  0.7685004E-052  0.1289359E+04  0.7818608E-02  0.9038046E-01
         -2   -1    0    0    0  501 -0.00000000000E+00  0.00000000000E+00  0.58362930366E+03  0.58362930367E+03  0.25500000000E-02 0. -1.
          2   -1    0    0  501    0  0.00000000000E+00 -0.00000000000E+00 -0.71211605148E+03  0.71211605149E+03  0.25500000000E-02 0.  1.
     200001    2    1    2    0    0  0.34488776432E+02  0.13977663358E+03  0.72057523045E+02  0.63490196405E+03  0.61415082376E+03 0.  0.
    5000001    2    3    3    0    0  0.27242676778E+03  0.18564847679E+03 -0.41180428169E+02  0.34899542805E+03  0.10686571199E+03 0.  0.
        -13    1    4    4    0    0  0.22693188925E+03  0.14867828444E+03 -0.64982419034E+02  0.27897318970E+03  0.10566000000E+00 0. -1.
     200003    1    4    4    0    0  0.45494878536E+02  0.36970192346E+02  0.23801990865E+02  0.70022238355E+02  0.30000000000E+02 0. -1.
     200000    1    3    3    0    0 -0.23793799135E+03 -0.45871843209E+02  0.11323795121E+03  0.28590653599E+03  0.10100000000E+03 0.  1.
    -200001    1    1    2    0    0 -0.34488776432E+02 -0.13977663358E+03 -0.20054427086E+03  0.66084339111E+03  0.61300000000E+03 0.  1.
<mgrwt>
<rscale>  0 0.12893592E+04</rscale>
<asrwt>0</asrwt>
<pdfrwt beam="1">  1        2 0.10173086E+00 0.12893592E+04</pdfrwt>
<pdfrwt beam="2">  1       -2 0.83375615E-01 0.12893592E+04</pdfrwt>
<totfact> 0.54495947E+01</totfact>
</mgrwt>
</event>
<event>
 8    1  0.7685004E-052  0.1909197E+04  0.7818608E-02  0.8650292E-01
          2   -1    0    0  501    0  0.00000000000E+00  0.00000000000E+00  0.13724856385E+04  0.13724856385E+04  0.25500000000E-02 0.  1.
         -2   -1    0    0    0  501 -0.00000000000E+00 -0.00000000000E+00 -0.66394751017E+03  0.66394751017E+03  0.25500000000E-02 0. -1.
     200001    2    1    2    0    0  0.50935589021E+03 -0.21262111319E+03  0.86655972050E+03  0.11965575720E+04  0.61332953067E+03 0.  0.
    5000001    2    3    3    0    0  0.38385074214E+02  0.12832316695E+03  0.14982408517E+02  0.16048738615E+03  0.87129096447E+02 0.  0.
        -13    1    4    4    0    0  0.16971708747E+02 -0.11130473404E+01 -0.14918298922E+02  0.22623982385E+02  0.10566000000E+00 0. -1.
     200003    1    4    4    0    0  0.21413365466E+02  0.12943621429E+03  0.29900707439E+02  0.13786340376E+03  0.30000000000E+02 0. -1.
     200000    1    3    3    0    0  0.47097081600E+03 -0.34094428014E+03  0.85157731198E+03  0.10360701858E+04  0.10100000000E+03 0.  1.
    -200001    1    1    2    0    0 -0.50935589021E+03  0.21262111319E+03 -0.15802159221E+03  0.83987557666E+03  0.61300000000E+03 0. -1.
<mgrwt>
<rscale>  0 0.19091971E+04</rscale>
<asrwt>0</asrwt>
<pdfrwt beam="1">  1        2 0.19606937E+00 0.19091971E+04</pdfrwt>
<pdfrwt beam="2">  1       -2 0.94849646E-01 0.19091971E+04</pdfrwt>
<totfact> 0.15049583E+01</totfact>
</mgrwt>
</event>
<event>
 8    1  0.7685004E-052  0.1632460E+04  0.7818608E-02  0.8800851E-01
          2   -1    0    0  501    0  0.00000000000E+00  0.00000000000E+00  0.81373057476E+03  0.81373057476E+03  0.25500000000E-02 0.  1.
         -2   -1    0    0    0  501 -0.00000000000E+00 -0.00000000000E+00 -0.81873685796E+03  0.81873685796E+03  0.25500000000E-02 0. -1.
     200001    2    1    2    0    0  0.31581653887E+03  0.31068151269E+03  0.30160511687E+03  0.81635307848E+03  0.61579510690E+03 0.  0.
    5000001    2    3    3    0    0  0.15688186332E+03  0.41699274285E+03  0.37519774501E+03  0.58792544516E+03  0.79925681584E+02 0.  0.
        -13    1    4    4    0    0  0.87507618007E+02  0.25925233954E+03  0.26668138052E+03  0.38208419052E+03  0.10566000000E+00 0. -1.
     200003    1    4    4    0    0  0.69374245309E+02  0.15774040331E+03  0.10851636449E+03  0.20584125464E+03  0.30000000000E+02 0. -1.
     200000    1    3    3    0    0  0.15893467555E+03 -0.10631123016E+03 -0.73592628139E+02  0.22842763333E+03  0.10100000000E+03 0. -1.
    -200001    1    1    2    0    0 -0.31581653887E+03 -0.31068151269E+03 -0.30661140007E+03  0.81611435424E+03  0.61300000000E+03 0. -1.
<mgrwt>
<rscale>  0 0.16324598E+04</rscale>
<asrwt>0</asrwt>
<pdfrwt beam="1">  1        2 0.11624722E+00 0.16324598E+04</pdfrwt>
<pdfrwt beam="2">  1       -2 0.11696241E+00 0.16324598E+04</pdfrwt>
<totfact> 0.20169763E+01</totfact>
</mgrwt>
</event>
<event>
 8    1  0.7685004E-052  0.1430688E+04  0.7818608E-02  0.8931900E-01
         -2   -1    0    0    0  501 -0.00000000000E+00  0.00000000000E+00  0.40161052377E+03  0.40161052378E+03  0.25500000000E-02 0. -1.
          2   -1    0    0  501    0  0.00000000000E+00 -0.00000000000E+00 -0.12741621468E+04  0.12741621468E+04  0.25500000000E-02 0.  1.
     200001    2    1    2    0    0  0.23147301988E+03 -0.16745514326E+02 -0.10034407848E+03  0.66288883566E+03  0.61277443091E+03 0.  0.
    5000001    2    3    3    0    0  0.35161781964E+03 -0.40168988070E+02 -0.25002520174E+03  0.44474010041E+03  0.10016245164E+03 0.  0.
        -13    1    4    4    0    0  0.30766621794E+03 -0.48240984661E+02 -0.23064543517E+03  0.38753454322E+03  0.10566000000E+00 0. -1.
     200003    1    4    4    0    0  0.43951601703E+02  0.80719965912E+01 -0.19379766571E+02  0.57205557191E+02  0.30000000000E+02 0. -1.
     200000    1    3    3    0    0 -0.12014479976E+03  0.23423473744E+02  0.14968112326E+03  0.21814873525E+03  0.10100000000E+03 0. -1.
    -200001    1    1    2    0    0 -0.23147301988E+03  0.16745514326E+02 -0.77220754450E+03  0.10128838349E+04  0.61300000000E+03 0.  1.
<mgrwt>
<rscale>  0 0.14306878E+04</rscale>
<asrwt>0</asrwt>
<pdfrwt beam="1">  1        2 0.18202316E+00 0.14306878E+04</pdfrwt>
<pdfrwt beam="2">  1       -2 0.57372933E-01 0.14306878E+04</pdfrwt>
<totfact> 0.53704812E+01</totfact>
</mgrwt>
</event>
<event>
 8    1  0.7685004E-052  0.2131042E+04  0.7818608E-02  0.8547691E-01
          2   -1    0    0  501    0  0.00000000000E+00  0.00000000000E+00  0.96120516128E+03  0.96120516129E+03  0.25500000000E-02 0.  1.
         -2   -1    0    0    0  501 -0.00000000000E+00 -0.00000000000E+00 -0.11811576137E+04  0.11811576137E+04  0.25500000000E-02 0. -1.
     200001    2    1    2    0    0  0.77625165238E+03  0.35819252473E+03  0.67753970603E+02  0.10517608777E+04  0.60888572873E+03 0.  0.
    5000001    2    3    3    0    0  0.56451325019E+03  0.50349717248E+03 -0.23524357647E+02  0.76110760514E+03  0.80912167514E+02 0.  0.
        -13    1    4    4    0    0  0.24995890722E+03  0.23377495261E+03 -0.44553761623E+02  0.34513074712E+03  0.10566000000E+00 0. -1.
     200003    1    4    4    0    0  0.31455434297E+03  0.26972221987E+03  0.21029403976E+02  0.41597685802E+03  0.30000000000E+02 0.  1.
     200000    1    3    3    0    0  0.21173840219E+03 -0.14530464775E+03  0.91278328251E+02  0.29065327252E+03  0.10100000000E+03 0. -1.
    -200001    1    1    2    0    0 -0.77625165238E+03 -0.35819252473E+03 -0.28770642301E+03  0.10906018973E+04  0.61300000000E+03 0. -1.
<mgrwt>
<rscale>  0 0.21310418E+04</rscale>
<asrwt>0</asrwt>
<pdfrwt beam="1">  1        2 0.13731502E+00 0.21310418E+04</pdfrwt>
<pdfrwt beam="2">  1       -2 0.16873680E+00 0.21310418E+04</pdfrwt>
<totfact> 0.59647536E+00</totfact>
</mgrwt>
</event>
<event>
 8    1  0.7685004E-052  0.1304803E+04  0.7818608E-02  0.9025765E-01
         -2   -1    0    0    0  501 -0.00000000000E+00  0.00000000000E+00  0.57671043263E+03  0.57671043263E+03  0.25500000000E-02 0. -1.
          2   -1    0    0  501    0  0.00000000000E+00 -0.00000000000E+00 -0.73802672069E+03  0.73802672070E+03  0.25500000000E-02 0.  1.
     200001    2    1    2    0    0  0.10676360508E+03  0.17946245620E+03  0.23396361762E+00  0.64729972228E+03  0.61269212102E+03 0.  0.
    5000001    2    3    3    0    0 -0.16856894735E+03 -0.10287609729E+02 -0.10757105430E+03  0.28173710954E+03  0.19819924885E+03 0.  0.
        -13    1    4    4    0    0 -0.75117286538E+02 -0.31838464875E+02 -0.15149704695E+03  0.17206876818E+03  0.10566000000E+00 0. -1.
     200003    1    4    4    0    0 -0.93451660809E+02  0.21550855146E+02  0.43925992657E+02  0.10966834136E+03  0.30000000000E+02 0. -1.
     200000    1    3    3    0    0  0.27533255242E+03  0.18975006593E+03  0.10780501791E+03  0.36556261274E+03  0.10100000000E+03 0. -1.
    -200001    1    1    2    0    0 -0.10676360508E+03 -0.17946245620E+03 -0.16155025168E+03  0.66743743105E+03  0.61300000000E+03 0.  1.
<mgrwt>
<rscale>  0 0.13048030E+04</rscale>
<asrwt>0</asrwt>
<pdfrwt beam="1">  1        2 0.10543239E+00 0.13048030E+04</pdfrwt>
<pdfrwt beam="2">  1       -2 0.82387205E-01 0.13048030E+04</pdfrwt>
<totfact> 0.53484530E+01</totfact>
</mgrwt>
</event>
<event>
 8    1  0.7685004E-052  0.1509049E+04  0.7818608E-02  0.8878458E-01
          2   -1    0    0  501    0  0.00000000000E+00  0.00000000000E+00  0.11956734463E+04  0.11956734463E+04  0.25500000000E-02 0.  1.
         -2   -1    0    0    0  501 -0.00000000000E+00 -0.00000000000E+00 -0.47613912349E+03  0.47613912350E+03  0.25500000000E-02 0. -1.
     200001    2    1    2    0    0 -0.40673324292E+03 -0.10734331693E+03  0.22044979955E+03  0.77637475512E+03  0.61417027580E+03 0.  0.
    5000001    2    3    3    0    0 -0.33321662295E+03 -0.24857909285E+03  0.34705452916E+03  0.54925805523E+03  0.91720672768E+02 0.  0.
        -13    1    4    4    0    0 -0.74613374306E+02 -0.18696998475E+02  0.81456661407E+02  0.11203540614E+03  0.10566000000E+00 0. -1.
     200003    1    4    4    0    0 -0.25860324864E+03 -0.22988209437E+03  0.26559786776E+03  0.43722264909E+03  0.30000000000E+02 0. -1.
     200000    1    3    3    0    0 -0.73516619972E+02  0.14123577591E+03 -0.12660472961E+03  0.22711669989E+03  0.10100000000E+03 0. -1.
    -200001    1    1    2    0    0  0.40673324292E+03  0.10734331693E+03  0.49908452324E+03  0.89543781466E+03  0.61300000000E+03 0. -1.
<mgrwt>
<rscale>  0 0.15090486E+04</rscale>
<asrwt>0</asrwt>
<pdfrwt beam="1">  1        2 0.17081049E+00 0.15090486E+04</pdfrwt>
<pdfrwt beam="2">  1       -2 0.68019875E-01 0.15090486E+04</pdfrwt>
<totfact> 0.41142637E+01</totfact>
</mgrwt>
</event>
<event>
 8    1  0.7685004E-052  0.2136612E+04  0.7818608E-02  0.8545285E-01
         -2   -1    0    0    0  501 -0.00000000000E+00  0.00000000000E+00  0.49017661378E+03  0.49017661379E+03  0.25500000000E-02 0. -1.
          2   -1    0    0  501    0  0.00000000000E+00 -0.00000000000E+00 -0.23282997702E+04  0.23282997702E+04  0.25500000000E-02 0.  1.
     200001    2    1    2    0    0 -0.78632533963E+03  0.24727037148E+03 -0.53292648990E+03  0.11575255976E+04  0.61351828758E+03 0.  0.
    5000001    2    3    3    0    0 -0.64204099996E+03  0.19818775653E+03 -0.15915949346E+03  0.74143685543E+03  0.27000339585E+03 0.  0.
        -13    1    4    4    0    0 -0.60481807199E+03  0.10126812331E+03 -0.11135124099E+03  0.62326498622E+03  0.10566000000E+00 0. -1.
     200003    1    4    4    0    0 -0.37222927965E+02  0.96919633222E+02 -0.47808252465E+02  0.11817186922E+03  0.30000000000E+02 0. -1.
     200000    1    3    3    0    0 -0.14428433967E+03  0.49082614945E+02 -0.37376699644E+03  0.41608874221E+03  0.10100000000E+03 0.  1.
    -200001    1    1    2    0    0  0.78632533963E+03 -0.24727037148E+03 -0.13051966665E+04  0.16609507863E+04  0.61300000000E+03 0. -1.
<mgrwt>
<rscale>  0 0.21366124E+04</rscale>
<asrwt>0</asrwt>
<pdfrwt beam="1">  1        2 0.33261425E+00 0.21366124E+04</pdfrwt>
<pdfrwt beam="2">  1       -2 0.70025232E-01 0.21366124E+04</pdfrwt>
<totfact> 0.92957197E+00</totfact>
</mgrwt>
</event>
<event>
 8    1  0.7685004E-052  0.1738971E+04  0.7818608E-02  0.8739445E-01
          2   -1    0    0  501    0  0.00000000000E+00  0.00000000000E+00  0.46841370403E+03  0.46841370404E+03  0.25500000000E-02 0.  1.
         -2   -1    0    0    0  501 -0.00000000000E+00 -0.00000000000E+00 -0.16139682551E+04  0.16139682552E+04  0.25500000000E-02 0. -1.
     200001    2    1    2    0    0  0.45010052425E+03 -0.22538727538E+02 -0.68521358292E+02  0.76372052629E+03  0.61276046671E+03 0.  0.
    5000001    2    3    3    0    0  0.21495368710E+03  0.16589601142E+03  0.19731851654E+03  0.34938548684E+03  0.97000243515E+02 0.  0.
        -13    1    4    4    0    0  0.14037435024E+03  0.67049611363E+02  0.14148023848E+03  0.21027904706E+03  0.10566000000E+00 0. -1.
     200003    1    4    4    0    0  0.74579336858E+02  0.98846400059E+02  0.55838278059E+02  0.13910643978E+03  0.30000000000E+02 0. -1.
     200000    1    3    3    0    0  0.23514683715E+03 -0.18843473896E+03 -0.26583987483E+03  0.41433503945E+03  0.10100000000E+03 0. -1.
    -200001    1    1    2    0    0 -0.45010052425E+03  0.22538727538E+02 -0.10770331928E+04  0.13186614329E+04  0.61300000000E+03 0. -1.
<mgrwt>
<rscale>  0 0.17389708E+04</rscale>
<asrwt>0</asrwt>
<pdfrwt beam="1">  1        2 0.66916244E-01 0.17389708E+04</pdfrwt>
<pdfrwt beam="2">  1       -2 0.23056689E+00 0.17389708E+04</pdfrwt>
<totfact> 0.58329378E+00</totfact>
</mgrwt>
</event>
<event>
 8    1  0.7685004E-052  0.1352932E+04  0.7818608E-02  0.8988611E-01
         -2   -1    0    0    0  501 -0.00000000000E+00  0.00000000000E+00  0.27006240951E+03  0.27006240952E+03  0.25500000000E-02 0. -1.
          2   -1    0    0  501    0  0.00000000000E+00 -0.00000000000E+00 -0.16944468369E+04  0.16944468369E+04  0.25500000000E-02 0.  1.
     200001    2    1    2    0    0 -0.12982040759E+03  0.24964698362E+03 -0.65580020469E+03  0.94193031937E+03  0.61480229620E+03 0.  0.
    5000001    2    3    3    0    0  0.18841556303E+03 -0.39474466681E+02 -0.32961698271E+03  0.39287491204E+03  0.92976789058E+02 0.  0.
        -13    1    4    4    0    0  0.13197170650E+01 -0.23260090505E+02 -0.29761029699E+02  0.37795548894E+02  0.10566000000E+00 0. -1.
     200003    1    4    4    0    0  0.18709584596E+03 -0.16214376177E+02 -0.29985595301E+03  0.35507936314E+03  0.30000000000E+02 0. -1.
     200000    1    3    3    0    0 -0.31823597062E+03  0.28912145030E+03 -0.32618322197E+03  0.54905540733E+03  0.10100000000E+03 0.  1.
    -200001    1    1    2    0    0  0.12982040759E+03 -0.24964698362E+03 -0.76858422266E+03  0.10225789270E+04  0.61300000000E+03 0. -1.
<mgrwt>
<rscale>  0 0.13529322E+04</rscale>
<asrwt>0</asrwt>
<pdfrwt beam="1">  1        2 0.24206383E+00 0.13529322E+04</pdfrwt>
<pdfrwt beam="2">  1       -2 0.38580345E-01 0.13529322E+04</pdfrwt>
<totfact> 0.71595364E+01</totfact>
</mgrwt>
</event>
<event>
 8    1  0.7685004E-052  0.2705563E+04  0.7818608E-02  0.8333202E-01
          2   -1    0    0  501    0  0.00000000000E+00  0.00000000000E+00  0.14005807465E+04  0.14005807465E+04  0.25500000000E-02 0.  1.
         -2   -1    0    0    0  501 -0.00000000000E+00 -0.00000000000E+00 -0.13066138466E+04  0.13066138466E+04  0.25500000000E-02 0. -1.
     200001    2    1    2    0    0 -0.54776386261E+03 -0.10150957576E+04  0.39914561877E+03  0.13657894728E+04  0.61286133232E+03 0.  0.
    5000001    2    3    3    0    0 -0.25196855303E+03 -0.19037363819E+03 -0.11356709645E+03  0.34562440388E+03  0.82634552861E+02 0.  0.
        -13    1    4    4    0    0 -0.15926210917E+03 -0.15488514622E+03 -0.86906862845E+02  0.23855113060E+03  0.10566000000E+00 0. -1.
     200003    1    4    4    0    0 -0.92706443854E+02 -0.35488491977E+02 -0.26660233609E+02  0.10707327328E+03  0.30000000000E+02 0. -1.
     200000    1    3    3    0    0 -0.29579530958E+03 -0.82472211945E+03  0.51271271523E+03  0.10201650689E+04  0.10100000000E+03 0.  1.
    -200001    1    1    2    0    0  0.54776386261E+03  0.10150957576E+04 -0.30517871881E+03  0.13414051203E+04  0.61300000000E+03 0. -1.
<mgrwt>
<rscale>  0 0.27055633E+04</rscale>
<asrwt>0</asrwt>
<pdfrwt beam="1">  1        2 0.20008296E+00 0.27055633E+04</pdfrwt>
<pdfrwt beam="2">  1       -2 0.18665912E+00 0.27055633E+04</pdfrwt>
<totfact> 0.23827889E+00</totfact>
</mgrwt>
</event>
<event>
 8    1  0.7685004E-052  0.1348312E+04  0.7818608E-02  0.8992107E-01
          2   -1    0    0  501    0  0.00000000000E+00  0.00000000000E+00  0.21740696862E+04  0.21740696862E+04  0.25500000000E-02 0.  1.
         -2   -1    0    0    0  501 -0.00000000000E+00 -0.00000000000E+00 -0.20904873804E+03  0.20904873805E+03  0.25500000000E-02 0. -1.
     200001    2    1    2    0    0  0.13047817839E+03  0.16677797103E+03  0.13083609304E+04  0.14601824429E+04  0.61276830522E+03 0.  0.
    5000001    2    3    3    0    0  0.33877690496E+03  0.68992726505E+02  0.99762715800E+03  0.10605491225E+04  0.99873455648E+02 0.  0.
        -13    1    4    4    0    0  0.17905025003E+03  0.61274396408E+02  0.42445778340E+03  0.46473429478E+03  0.10566000000E+00 0. -1.
     200003    1    4    4    0    0  0.15972665493E+03  0.77183300967E+01  0.57316937460E+03  0.59581482769E+03  0.30000000000E+02 0. -1.
     200000    1    3    3    0    0 -0.20829872657E+03  0.97785244524E+02  0.31073377236E+03  0.39963332046E+03  0.10100000000E+03 0. -1.
    -200001    1    1    2    0    0 -0.13047817839E+03 -0.16677797103E+03  0.65666001784E+03  0.92293598136E+03  0.61300000000E+03 0. -1.
<mgrwt>
<rscale>  0 0.13483123E+04</rscale>
<asrwt>0</asrwt>
<pdfrwt beam="1">  1        2 0.31058141E+00 0.13483123E+04</pdfrwt>
<pdfrwt beam="2">  1       -2 0.29864103E-01 0.13483123E+04</pdfrwt>
<totfact> 0.65999514E+01</totfact>
</mgrwt>
</event>
<event>
 8    1  0.7685004E-052  0.1366769E+04  0.7818608E-02  0.8978230E-01
         -2   -1    0    0    0  501 -0.00000000000E+00  0.00000000000E+00  0.17980227519E+03  0.17980227521E+03  0.25500000000E-02 0. -1.
          2   -1    0    0  501    0  0.00000000000E+00 -0.00000000000E+00 -0.25973787049E+04  0.25973787049E+04  0.25500000000E-02 0.  1.
     200001    2    1    2    0    0 -0.28841872990E+03  0.52370048908E+02 -0.13606593983E+04  0.15206895965E+04  0.61251519571E+03 0.  0.
    5000001    2    3    3    0    0 -0.40681931746E+03 -0.10436384795E+03 -0.66929032937E+03  0.79489595984E+03  0.86696436889E+02 0.  0.
        -13    1    4    4    0    0 -0.30187422672E+03 -0.56036799135E+02 -0.44212633104E+03  0.53827862244E+03  0.10566000000E+00 0. -1.
     200003    1    4    4    0    0 -0.10494509074E+03 -0.48327048811E+02 -0.22716399833E+03  0.25661733740E+03  0.30000000000E+02 0. -1.
     200000    1    3    3    0    0  0.11840058756E+03  0.15673389685E+03 -0.69136906894E+03  0.72579363668E+03  0.10100000000E+03 0.  1.
    -200001    1    1    2    0    0  0.28841872990E+03 -0.52370048908E+02 -0.10569170314E+04  0.12564913836E+04  0.61300000000E+03 0. -1.
<mgrwt>
<rscale>  0 0.13667693E+04</rscale>
<asrwt>0</asrwt>
<pdfrwt beam="1">  1        2 0.37105408E+00 0.13667693E+04</pdfrwt>
<pdfrwt beam="2">  1       -2 0.25686041E-01 0.13667693E+04</pdfrwt>
<totfact> 0.52356470E+01</totfact>
</mgrwt>
</event>
<event>
 8    1  0.7685004E-052  0.1318290E+04  0.7818608E-02  0.9015186E-01
          2   -1    0    0  501    0  0.00000000000E+00  0.00000000000E+00  0.36642915929E+03  0.36642915930E+03  0.25500000000E-02 0.  1.
         -2   -1    0    0    0  501 -0.00000000000E+00 -0.00000000000E+00 -0.11856914543E+04  0.11856914543E+04  0.25500000000E-02 0. -1.
     200001    2    1    2    0    0 -0.19448091549E+03 -0.14068833510E+03 -0.36183776573E+03  0.75048339257E+03  0.61211332259E+03 0.  0.
    5000001    2    3    3    0    0  0.27799122134E+02 -0.32297244333E+03 -0.28569300903E+03  0.43642139994E+03  0.61311928531E+02 0.  0.
        -13    1    4    4    0    0  0.75334419596E+01 -0.17724988457E+03 -0.12864672268E+03  0.21914439246E+03  0.10566000000E+00 0. -1.
     200003    1    4    4    0    0  0.20265680174E+02 -0.14572255876E+03 -0.15704628635E+03  0.21727700748E+03  0.30000000000E+02 0. -1.
     200000    1    3    3    0    0 -0.22228003763E+03  0.18228410823E+03 -0.76144756705E+02  0.31406199263E+03  0.10100000000E+03 0. -1.
    -200001    1    1    2    0    0  0.19448091549E+03  0.14068833510E+03 -0.45742452924E+03  0.80163722099E+03  0.61300000000E+03 0.  1.
<mgrwt>
<rscale>  0 0.13182897E+04</rscale>
<asrwt>0</asrwt>
<pdfrwt beam="1">  1        2 0.52347023E-01 0.13182897E+04</pdfrwt>
<pdfrwt beam="2">  1       -2 0.16938449E+00 0.13182897E+04</pdfrwt>
<totfact> 0.20114814E+01</totfact>
</mgrwt>
</event>
<event>
 8    1  0.7685004E-052  0.1278407E+04  0.7818608E-02  0.9046866E-01
         -2   -1    0    0    0  501 -0.00000000000E+00  0.00000000000E+00  0.25719192410E+03  0.25719192412E+03  0.25500000000E-02 0. -1.
          2   -1    0    0  501    0  0.00000000000E+00 -0.00000000000E+00 -0.15886239573E+04  0.15886239573E+04  0.25500000000E-02 0.  1.
     200001    2    1    2    0    0 -0.17548019774E+03  0.17287979383E+02 -0.72405214924E+03  0.96503696621E+03  0.61314978375E+03 0.  0.
    5000001    2    3    3    0    0 -0.16063519050E+03  0.28933035308E+03 -0.35318797408E+03  0.49390146156E+03  0.98393043750E+02 0.  0.
        -13    1    4    4    0    0 -0.11816315293E+03  0.24909512652E+03 -0.31181080433E+03  0.41621737305E+03  0.10566000000E+00 0. -1.
     200003    1    4    4    0    0 -0.42472037575E+02  0.40235226558E+02 -0.41377169755E+02  0.77684088518E+02  0.30000000000E+02 0.  1.
     200000    1    3    3    0    0 -0.14845007237E+02 -0.27204237370E+03 -0.37086417515E+03  0.47113550465E+03  0.10100000000E+03 0. -1.
    -200001    1    1    2    0    0  0.17548019774E+03 -0.17287979383E+02 -0.60737988395E+03  0.88077891519E+03  0.61300000000E+03 0.  1.
<mgrwt>
<rscale>  0 0.12784072E+04</rscale>
<asrwt>0</asrwt>
<pdfrwt beam="1">  1        2 0.22694628E+00 0.12784072E+04</pdfrwt>
<pdfrwt beam="2">  1       -2 0.36741704E-01 0.12784072E+04</pdfrwt>
<totfact> 0.89838690E+01</totfact>
</mgrwt>
</event>
<event>
 8    1  0.7685004E-052  0.1339935E+04  0.7818608E-02  0.8998482E-01
          2   -1    0    0  501    0  0.00000000000E+00  0.00000000000E+00  0.78053269651E+03  0.78053269651E+03  0.25500000000E-02 0.  1.
         -2   -1    0    0    0  501 -0.00000000000E+00 -0.00000000000E+00 -0.57506439567E+03  0.57506439567E+03  0.25500000000E-02 0. -1.
     200001    2    1    2    0    0  0.64131524790E+02 -0.65361232475E+02 -0.15548029542E+03  0.63835387519E+03  0.61232067132E+03 0.  0.
    5000001    2    3    3    0    0  0.10919874334E+03 -0.17460081968E+03  0.16216340470E+03  0.28471159572E+03  0.11114814948E+03 0.  0.
        -13    1    4    4    0    0 -0.13219798951E+02 -0.49781266966E+02  0.63393158722E+02  0.81680116074E+02  0.10566000000E+00 0. -1.
     200003    1    4    4    0    0  0.12241854229E+03 -0.12481955272E+03  0.98770245978E+02  0.20303147964E+03  0.30000000000E+02 0. -1.
     200000    1    3    3    0    0 -0.45067218547E+02  0.10923958721E+03 -0.31764370012E+03  0.35364227947E+03  0.10100000000E+03 0. -1.
    -200001    1    1    2    0    0 -0.64131524790E+02  0.65361232475E+02  0.36094859627E+03  0.71724321700E+03  0.61300000000E+03 0.  1.
<mgrwt>
<rscale>  0 0.13399352E+04</rscale>
<asrwt>0</asrwt>
<pdfrwt beam="1">  1        2 0.11150467E+00 0.13399352E+04</pdfrwt>
<pdfrwt beam="2">  1       -2 0.82152057E-01 0.13399352E+04</pdfrwt>
<totfact> 0.50015522E+01</totfact>
</mgrwt>
</event>
<event>
 8    1  0.7685004E-052  0.1778328E+04  0.7818608E-02  0.8717910E-01
         -2   -1    0    0    0  501 -0.00000000000E+00  0.00000000000E+00  0.27729078743E+03  0.27729078745E+03  0.25500000000E-02 0. -1.
          2   -1    0    0  501    0  0.00000000000E+00 -0.00000000000E+00 -0.28512035856E+04  0.28512035856E+04  0.25500000000E-02 0.  1.
     200001    2    1    2    0    0 -0.49829266697E+03  0.38528041464E+03 -0.10487724197E+04  0.13682220209E+04  0.61267555049E+03 0.  0.
    5000001    2    3    3    0    0 -0.40089745332E+03  0.48095142140E+03 -0.55182695578E+03  0.84306055683E+03  0.11918504748E+03 0.  0.
        -13    1    4    4    0    0 -0.87715983161E+01 -0.40235950757E+01  0.17435293046E+00  0.96525549640E+01  0.10566000000E+00 0. -1.
     200003    1    4    4    0    0 -0.39212585500E+03  0.48497501647E+03 -0.55200130871E+03  0.83340800187E+03  0.30000000000E+02 0. -1.
     200000    1    3    3    0    0 -0.97395213656E+02 -0.95671006756E+02 -0.49694546396E+03  0.52516146405E+03  0.10100000000E+03 0.  1.
    -200001    1    1    2    0    0  0.49829266697E+03 -0.38528041464E+03 -0.15251403784E+04  0.17602723522E+04  0.61300000000E+03 0. -1.
<mgrwt>
<rscale>  0 0.17783279E+04</rscale>
<asrwt>0</asrwt>
<pdfrwt beam="1">  1        2 0.40731478E+00 0.17783279E+04</pdfrwt>
<pdfrwt beam="2">  1       -2 0.39612971E-01 0.17783279E+04</pdfrwt>
<totfact> 0.16332228E+01</totfact>
</mgrwt>
</event>
<event>
 8    1  0.7685004E-052  0.1413363E+04  0.7818608E-02  0.8944202E-01
         -2   -1    0    0    0  501 -0.00000000000E+00  0.00000000000E+00  0.49910964107E+03  0.49910964108E+03  0.25500000000E-02 0.  1.
          2   -1    0    0  501    0  0.00000000000E+00 -0.00000000000E+00 -0.10005799115E+04  0.10005799115E+04  0.25500000000E-02 0. -1.
     200001    2    1    2    0    0  0.49601396884E+01 -0.29845611394E+03 -0.56708601068E+02  0.68563636177E+03  0.61463867452E+03 0.  0.
    5000001    2    3    3    0    0 -0.17152666989E+03 -0.85562315539E+02  0.20258196846E+03  0.29333040617E+03  0.90889850469E+02 0.  0.
        -13    1    4    4    0    0 -0.11984830236E+03 -0.91205978658E+02  0.16004512699E+03  0.21976487426E+03  0.10566000000E+00 0. -1.
     200003    1    4    4    0    0 -0.51678367524E+02  0.56436631183E+01  0.42536841474E+02  0.73565531915E+02  0.30000000000E+02 0.  1.
     200000    1    3    3    0    0  0.17648680957E+03 -0.21289379840E+03 -0.25929056953E+03  0.39230595560E+03  0.10100000000E+03 0. -1.
    -200001    1    1    2    0    0 -0.49601396884E+01  0.29845611394E+03 -0.44476166934E+03  0.81405319080E+03  0.61300000000E+03 0.  1.
<mgrwt>
<rscale>  0 0.14133635E+04</rscale>
<asrwt>0</asrwt>
<pdfrwt beam="1">  1        2 0.14293999E+00 0.14133635E+04</pdfrwt>
<pdfrwt beam="2">  1       -2 0.71301378E-01 0.14133635E+04</pdfrwt>
<totfact> 0.48797588E+01</totfact>
</mgrwt>
</event>
<event>
 8    1  0.7685004E-052  0.1326892E+04  0.7818608E-02  0.9008507E-01
         -2   -1    0    0    0  501 -0.00000000000E+00  0.00000000000E+00  0.10660963700E+03  0.10660963703E+03  0.25500000000E-02 0. -1.
          2   -1    0    0  501    0  0.00000000000E+00 -0.00000000000E+00 -0.41287141886E+04  0.41287141886E+04  0.25500000000E-02 0.  1.
     200001    2    1    2    0    0 -0.68746213255E+02  0.13737221432E+03 -0.13657527391E+04  0.15048346536E+04  0.61290262119E+03 0.  0.
    5000001    2    3    3    0    0  0.11866861948E+03  0.90691358945E+02 -0.10320855786E+04  0.11062895547E+04  0.36928142867E+03 0.  0.
        -13    1    4    4    0    0 -0.33513849961E+02  0.18530432981E+03 -0.72889481322E+03  0.75282702707E+03  0.10566000000E+00 0. -1.
     200003    1    4    4    0    0  0.15218246944E+03 -0.94612970860E+02 -0.30319076534E+03  0.35346252764E+03  0.30000000000E+02 0. -1.
     200000    1    3    3    0    0 -0.18741483273E+03  0.46680855372E+02 -0.33366716056E+03  0.39854509886E+03  0.10100000000E+03 0.  1.
    -200001    1    1    2    0    0  0.68746213255E+02 -0.13737221432E+03 -0.26563518124E+04  0.27304891720E+04  0.61300000000E+03 0.  1.
<mgrwt>
<rscale>  0 0.13268922E+04</rscale>
<asrwt>0</asrwt>
<pdfrwt beam="1">  1        2 0.58981621E+00 0.13268922E+04</pdfrwt>
<pdfrwt beam="2">  1       -2 0.15229951E-01 0.13268922E+04</pdfrwt>
<totfact> 0.15953324E+01</totfact>
</mgrwt>
</event>
<event>
 8    1  0.7685004E-052  0.1451788E+04  0.7818608E-02  0.8917162E-01
          2   -1    0    0  501    0  0.00000000000E+00  0.00000000000E+00  0.21476614448E+03  0.21476614450E+03  0.25500000000E-02 0.  1.
         -2   -1    0    0    0  501 -0.00000000000E+00 -0.00000000000E+00 -0.24534690893E+04  0.24534690893E+04  0.25500000000E-02 0. -1.
     200001    2    1    2    0    0 -0.14204595265E+03  0.16615389711E+03 -0.52753988903E+03  0.83748889046E+03  0.61262152829E+03 0.  0.
    5000001    2    3    3    0    0 -0.66113278424E+00  0.32866089231E+03 -0.11855128456E+03  0.36433894660E+03  0.10329589396E+03 0.  0.
        -13    1    4    4    0    0 -0.36827555380E+02  0.18520705780E+03 -0.95589200567E+02  0.21164883539E+03  0.10566000000E+00 0. -1.
     200003    1    4    4    0    0  0.36166422595E+02  0.14345383452E+03 -0.22962083989E+02  0.15269011121E+03  0.30000000000E+02 0. -1.
     200000    1    3    3    0    0 -0.14138481986E+03 -0.16250699520E+03 -0.40898860448E+03  0.47314994385E+03  0.10100000000E+03 0.  1.
    -200001    1    1    2    0    0  0.14204595265E+03 -0.16615389711E+03 -0.17111630558E+04  0.18307463433E+04  0.61300000000E+03 0. -1.
<mgrwt>
<rscale>  0 0.14517880E+04</rscale>
<asrwt>0</asrwt>
<pdfrwt beam="1">  1        2 0.30680879E-01 0.14517880E+04</pdfrwt>
<pdfrwt beam="2">  1       -2 0.35049557E+00 0.14517880E+04</pdfrwt>
<totfact> 0.26261101E+00</totfact>
</mgrwt>
</event>
<event>
 8    1  0.7685004E-052  0.1880737E+04  0.7818608E-02  0.8664505E-01
          2   -1    0    0  501    0  0.00000000000E+00  0.00000000000E+00  0.21692931641E+04  0.21692931641E+04  0.25500000000E-02 0.  1.
         -2   -1    0    0    0  501 -0.00000000000E+00 -0.00000000000E+00 -0.40764112182E+03  0.40764112183E+03  0.25500000000E-02 0. -1.
     200001    2    1    2    0    0 -0.31968018413E+03 -0.67670283012E+02  0.17492167138E+04  0.18821693439E+04  0.61321092604E+03 0.  0.
    5000001    2    3    3    0    0 -0.30765297255E+03 -0.22481772705E+03  0.10061328973E+04  0.11158700999E+04  0.29609003842E+03 0.  0.
        -13    1    4    4    0    0 -0.26430111198E+02 -0.10264511021E+03  0.62114127737E+02  0.12285253541E+03  0.10566000000E+00 0. -1.
     200003    1    4    4    0    0 -0.28122286135E+03 -0.12217261684E+03  0.94401876954E+03  0.99301756445E+03  0.30000000000E+02 0. -1.
     200000    1    3    3    0    0 -0.12027211580E+02  0.15714744404E+03  0.74308381651E+03  0.76629924400E+03  0.10100000000E+03 0.  1.
    -200001    1    1    2    0    0  0.31968018413E+03  0.67670283012E+02  0.12435328471E+02  0.69476494207E+03  0.61300000000E+03 0. -1.
<mgrwt>
<rscale>  0 0.18807372E+04</rscale>
<asrwt>0</asrwt>
<pdfrwt beam="1">  1        2 0.30989902E+00 0.18807372E+04</pdfrwt>
<pdfrwt beam="2">  1       -2 0.58234446E-01 0.18807372E+04</pdfrwt>
<totfact> 0.17027690E+01</totfact>
</mgrwt>
</event>
<event>
 8    1  0.7685004E-052  0.1556593E+04  0.7818608E-02  0.8847667E-01
         -2   -1    0    0    0  501 -0.00000000000E+00  0.00000000000E+00  0.34695156966E+03  0.34695156967E+03  0.25500000000E-02 0. -1.
          2   -1    0    0  501    0  0.00000000000E+00 -0.00000000000E+00 -0.17459083002E+04  0.17459083002E+04  0.25500000000E-02 0.  1.
     200001    2    1    2    0    0  0.21989899780E+03  0.16042998400E+03 -0.12254062714E+04  0.14000524573E+04  0.62002661570E+03 0.  0.
    5000001    2    3    3    0    0 -0.15048134337E+03  0.19598782043E+03 -0.29123612928E+03  0.38944827598E+03  0.76128944589E+02 0.  0.
        -13    1    4    4    0    0 -0.85449776519E+02  0.81617775966E+02 -0.17604646838E+03  0.21202711113E+03  0.10566000000E+00 0. -1.
     200003    1    4    4    0    0 -0.65031566850E+02  0.11437004447E+03 -0.11518966090E+03  0.17742116485E+03  0.30000000000E+02 0. -1.
     200000    1    3    3    0    0  0.37038034117E+03 -0.35557836437E+02 -0.93417014215E+03  0.10106041813E+04  0.10100000000E+03 0. -1.
    -200001    1    1    2    0    0 -0.21989899780E+03 -0.16042998400E+03 -0.17355045907E+03  0.69280741252E+03  0.61300000000E+03 0. -1.
<mgrwt>
<rscale>  0 0.15565932E+04</rscale>
<asrwt>0</asrwt>
<pdfrwt beam="1">  1        2 0.24941547E+00 0.15565932E+04</pdfrwt>
<pdfrwt beam="2">  1       -2 0.49564511E-01 0.15565932E+04</pdfrwt>
<totfact> 0.40300968E+01</totfact>
</mgrwt>
</event>
<event>
 8    1  0.7685004E-052  0.1420283E+04  0.7818608E-02  0.8939266E-01
          2   -1    0    0  501    0  0.00000000000E+00  0.00000000000E+00  0.22373110873E+04  0.22373110873E+04  0.25500000000E-02 0.  1.
         -2   -1    0    0    0  501 -0.00000000000E+00 -0.00000000000E+00 -0.22540480290E+03  0.22540480292E+03  0.25500000000E-02 0. -1.
     200001    2    1    2    0    0 -0.19305786947E+03 -0.30203800773E+03  0.98863739725E+03  0.12171852746E+04  0.61289296811E+03 0.  0.
    5000001    2    3    3    0    0  0.21095688280E+03 -0.80242126515E+02  0.30312534304E+03  0.38498991925E+03  0.73421107736E+02 0.  0.
        -13    1    4    4    0    0  0.11347475474E+03 -0.11257630185E+02  0.15324082633E+03  0.19101313101E+03  0.10566000000E+00 0. -1.
     200003    1    4    4    0    0  0.97482128065E+02 -0.68984496330E+02  0.14988451670E+03  0.19397678823E+03  0.30000000000E+02 0.  1.
     200000    1    3    3    0    0 -0.40401475228E+03 -0.22179588122E+03  0.68551205422E+03  0.83219535534E+03  0.10100000000E+03 0.  1.
    -200001    1    1    2    0    0  0.19305786947E+03  0.30203800773E+03  0.10232688872E+04  0.12455306156E+04  0.61300000000E+03 0. -1.
<mgrwt>
<rscale>  0 0.14202826E+04</rscale>
<asrwt>0</asrwt>
<pdfrwt beam="1">  1        2 0.31961588E+00 0.14202826E+04</pdfrwt>
<pdfrwt beam="2">  1       -2 0.32200685E-01 0.14202826E+04</pdfrwt>
<totfact> 0.52874011E+01</totfact>
</mgrwt>
</event>
<event>
 8    1  0.7685004E-052  0.1255720E+04  0.7818608E-02  0.9065436E-01
          2   -1    0    0  501    0  0.00000000000E+00  0.00000000000E+00  0.18836284968E+04  0.18836284968E+04  0.25500000000E-02 0. -1.
         -2   -1    0    0    0  501 -0.00000000000E+00 -0.00000000000E+00 -0.20928124208E+03  0.20928124210E+03  0.25500000000E-02 0.  1.
     200001    2    1    2    0    0 -0.87013124331E+02  0.10590484350E+03  0.81573302976E+03  0.10290608272E+04  0.61217537562E+03 0.  0.
    5000001    2    3    3    0    0 -0.55161580007E+02  0.12136397772E+02  0.86955963508E+03  0.87771570592E+03  0.10517038277E+03 0.  0.
        -13    1    4    4    0    0  0.88301783740E+01 -0.28751232892E+02  0.11957694421E+03  0.12330150929E+03  0.10566000000E+00 0. -1.
     200003    1    4    4    0    0 -0.63991758381E+02  0.40887630663E+02  0.74998269086E+03  0.75441419663E+03  0.30000000000E+02 0. -1.
     200000    1    3    3    0    0 -0.31851544324E+02  0.93768445730E+02 -0.53826605312E+02  0.15134512126E+03  0.10100000000E+03 0.  1.
    -200001    1    1    2    0    0  0.87013124331E+02 -0.10590484350E+03  0.85861422499E+03  0.10638489118E+04  0.61300000000E+03 0. -1.
<mgrwt>
<rscale>  0 0.12557199E+04</rscale>
<asrwt>0</asrwt>
<pdfrwt beam="1">  1        2 0.26908977E+00 0.12557199E+04</pdfrwt>
<pdfrwt beam="2">  1       -2 0.29897322E-01 0.12557199E+04</pdfrwt>
<totfact> 0.93482206E+01</totfact>
</mgrwt>
</event>
<event>
 8    1  0.7685004E-052  0.1581973E+04  0.7818608E-02  0.8831700E-01
         -2   -1    0    0    0  501 -0.00000000000E+00  0.00000000000E+00  0.13004070326E+04  0.13004070326E+04  0.25500000000E-02 0. -1.
          2   -1    0    0  501    0  0.00000000000E+00 -0.00000000000E+00 -0.48112630312E+03  0.48112630313E+03  0.25500000000E-02 0.  1.
     200001    2    1    2    0    0 -0.45761133158E+03  0.66057265446E+02  0.20021348463E+03  0.79523472642E+03  0.61525696873E+03 0.  0.
    5000001    2    3    3    0    0  0.10984079287E+03  0.15575571361E+02  0.11522012957E+03  0.21044828217E+03  0.13676696607E+03 0.  0.
        -13    1    4    4    0    0  0.52073424139E+02  0.49287498905E+01  0.13234261183E+03  0.14230429420E+03  0.10566000000E+00 0. -1.
     200003    1    4    4    0    0  0.57767368728E+02  0.10646821471E+02 -0.17122482266E+02  0.68143987967E+02  0.30000000000E+02 0. -1.
     200000    1    3    3    0    0 -0.56745212444E+03  0.50481694085E+02  0.84993355064E+02  0.58478644425E+03  0.10100000000E+03 0. -1.
    -200001    1    1    2    0    0  0.45761133158E+03 -0.66057265446E+02  0.61906724487E+03  0.98629860933E+03  0.61300000000E+03 0.  1.
<mgrwt>
<rscale>  0 0.15819735E+04</rscale>
<asrwt>0</asrwt>
<pdfrwt beam="1">  1        2 0.68732330E-01 0.15819735E+04</pdfrwt>
<pdfrwt beam="2">  1       -2 0.18577243E+00 0.15819735E+04</pdfrwt>
<totfact> 0.11167748E+01</totfact>
</mgrwt>
</event>
<event>
 8    1  0.7685004E-052  0.1279389E+04  0.7818608E-02  0.9046071E-01
         -2   -1    0    0    0  501 -0.00000000000E+00  0.00000000000E+00  0.84439541211E+03  0.84439541212E+03  0.25500000000E-02 0. -1.
          2   -1    0    0  501    0  0.00000000000E+00 -0.00000000000E+00 -0.48461789978E+03  0.48461789979E+03  0.25500000000E-02 0.  1.
     200001    2    1    2    0    0 -0.19361091069E+02  0.13536970610E+03  0.52472725794E+02  0.62979586289E+03  0.61252725064E+03 0.  0.
    5000001    2    3    3    0    0  0.19198440267E+03 -0.11747048563E+03  0.92759085034E+02  0.28278135163E+03  0.14388786993E+03 0.  0.
        -13    1    4    4    0    0 -0.69583119187E+01  0.34008602875E+01  0.41920465386E+02  0.42630042665E+02  0.10566000000E+00 0. -1.
     200003    1    4    4    0    0  0.19894271459E+03 -0.12087134592E+03  0.50838619648E+02  0.24015130897E+03  0.30000000000E+02 0. -1.
     200000    1    3    3    0    0 -0.21134549374E+03  0.25284019173E+03 -0.40286359240E+02  0.34701451125E+03  0.10100000000E+03 0. -1.
    -200001    1    1    2    0    0  0.19361091069E+02 -0.13536970610E+03  0.30730478654E+03  0.69921744902E+03  0.61300000000E+03 0. -1.
<mgrwt>
<rscale>  0 0.12793891E+04</rscale>
<asrwt>0</asrwt>
<pdfrwt beam="1">  1        2 0.69231129E-01 0.12793891E+04</pdfrwt>
<pdfrwt beam="2">  1       -2 0.12062792E+00 0.12793891E+04</pdfrwt>
<totfact> 0.35840840E+01</totfact>
</mgrwt>
</event>
<event>
 8    1  0.7685004E-052  0.1626167E+04  0.7818608E-02  0.8804632E-01
         -2   -1    0    0    0  501 -0.00000000000E+00  0.00000000000E+00  0.80738036765E+03  0.80738036765E+03  0.25500000000E-02 0. -1.
          2   -1    0    0  501    0  0.00000000000E+00 -0.00000000000E+00 -0.81882719079E+03  0.81882719080E+03  0.25500000000E-02 0.  1.
     200001    2    1    2    0    0  0.34061375232E+03 -0.27258598425E+03  0.29769176490E+03  0.81278484320E+03  0.61780091240E+03 0.  0.
    5000001    2    3    3    0    0  0.18408131515E+03  0.17089390263E+03  0.18087521718E+03  0.31778593434E+03  0.71981937507E+02 0.  0.
        -13    1    4    4    0    0  0.14230322586E+03  0.14312916253E+03  0.15153124755E+03  0.25238441989E+03  0.10566000000E+00 0. -1.
     200003    1    4    4    0    0  0.41778089294E+02  0.27764740103E+02  0.29343969630E+02  0.65401514445E+02  0.30000000000E+02 0.  1.
     200000    1    3    3    0    0  0.15653243716E+03 -0.44347988688E+03  0.11681654772E+03  0.49499890886E+03  0.10100000000E+03 0. -1.
    -200001    1    1    2    0    0 -0.34061375232E+03  0.27258598425E+03 -0.30913858805E+03  0.81342271525E+03  0.61300000000E+03 0.  1.
<mgrwt>
<rscale>  0 0.16261673E+04</rscale>
<asrwt>0</asrwt>
<pdfrwt beam="1">  1        2 0.11697531E+00 0.16261673E+04</pdfrwt>
<pdfrwt beam="2">  1       -2 0.11534005E+00 0.16261673E+04</pdfrwt>
<totfact> 0.20712290E+01</totfact>
</mgrwt>
</event>
<event>
 8    1  0.7685004E-052  0.1318702E+04  0.7818608E-02  0.9014864E-01
          2   -1    0    0  501    0  0.00000000000E+00  0.00000000000E+00  0.12450962443E+04  0.12450962443E+04  0.25500000000E-02 0.  1.
         -2   -1    0    0    0  501 -0.00000000000E+00 -0.00000000000E+00 -0.34916493842E+03  0.34916493843E+03  0.25500000000E-02 0. -1.
     200001    2    1    2    0    0 -0.15714393395E+03 -0.17406908064E+03  0.37023019089E+03  0.75335398031E+03  0.61276224148E+03 0.  0.
    5000001    2    3    3    0    0 -0.65273177338E+01  0.49634620726E+01  0.14634617741E+03  0.41414450531E+03  0.38733864486E+03 0.  0.
        -13    1    4    4    0    0 -0.16818650665E+03  0.64908793550E+02 -0.84873766202E+01  0.18047686618E+03  0.10566000000E+00 0. -1.
     200003    1    4    4    0    0  0.16165918891E+03 -0.59945331477E+02  0.15483355403E+03  0.23366763914E+03  0.30000000000E+02 0. -1.
     200000    1    3    3    0    0 -0.15061661622E+03 -0.17903254271E+03  0.22388401349E+03  0.33920947499E+03  0.10100000000E+03 0.  1.
    -200001    1    1    2    0    0  0.15714393395E+03  0.17406908064E+03  0.52570111500E+03  0.84090720245E+03  0.61300000000E+03 0.  1.
<mgrwt>
<rscale>  0 0.13187023E+04</rscale>
<asrwt>0</asrwt>
<pdfrwt beam="1">  1        2 0.17787089E+00 0.13187023E+04</pdfrwt>
<pdfrwt beam="2">  1       -2 0.49880706E-01 0.13187023E+04</pdfrwt>
<totfact> 0.75037350E+01</totfact>
</mgrwt>
</event>
<event>
 8    1  0.7685004E-052  0.1452560E+04  0.7818608E-02  0.8916628E-01
         -2   -1    0    0    0  501 -0.00000000000E+00  0.00000000000E+00  0.27070415828E+03  0.27070415829E+03  0.25500000000E-02 0. -1.
          2   -1    0    0  501    0  0.00000000000E+00 -0.00000000000E+00 -0.19485579885E+04  0.19485579885E+04  0.25500000000E-02 0.  1.
     200001    2    1    2    0    0  0.33531349782E+03 -0.25498192131E+02 -0.11365782674E+04  0.13350486350E+04  0.61437724580E+03 0.  0.
    5000001    2    3    3    0    0  0.33965370498E+03  0.23423346215E+03 -0.65629046024E+03  0.77974984391E+03  0.84039852259E+02 0.  0.
        -13    1    4    4    0    0  0.85949259053E+02  0.65178865820E+02 -0.23776045949E+03  0.26108543993E+03  0.10566000000E+00 0. -1.
     200003    1    4    4    0    0  0.25370444593E+03  0.16905459633E+03 -0.41853000075E+03  0.51866440398E+03  0.30000000000E+02 0. -1.
     200000    1    3    3    0    0 -0.43402071666E+01 -0.25973165428E+03 -0.48028780717E+03  0.55529879106E+03  0.10100000000E+03 0. -1.
    -200001    1    1    2    0    0 -0.33531349782E+03  0.25498192131E+02 -0.54127556285E+03  0.88421351186E+03  0.61300000000E+03 0. -1.
<mgrwt>
<rscale>  0 0.14525602E+04</rscale>
<asrwt>0</asrwt>
<pdfrwt beam="1">  1        2 0.27836542E+00 0.14525602E+04</pdfrwt>
<pdfrwt beam="2">  1       -2 0.38672024E-01 0.14525602E+04</pdfrwt>
<totfact> 0.52301024E+01</totfact>
</mgrwt>
</event>
<event>
 8    1  0.7685004E-052  0.1253474E+04  0.7818608E-02  0.9067297E-01
         -2   -1    0    0    0  501 -0.00000000000E+00  0.00000000000E+00  0.12697947111E+04  0.12697947111E+04  0.25500000000E-02 0. -1.
          2   -1    0    0  501    0  0.00000000000E+00 -0.00000000000E+00 -0.30934064067E+03  0.30934064068E+03  0.25500000000E-02 0.  1.
     200001    2    1    2    0    0  0.22049446668E+02 -0.12266204366E+03  0.53154121251E+03  0.82067151298E+03  0.61272629825E+03 0.  0.
    5000001    2    3    3    0    0 -0.11907791313E+03 -0.28764495025E+03  0.19026859201E+03  0.40377309291E+03  0.17294914471E+03 0.  0.
        -13    1    4    4    0    0 -0.38967856533E+02 -0.15381406027E+03  0.36543558287E+01  0.15871554574E+03  0.10566000000E+00 0. -1.
     200003    1    4    4    0    0 -0.80110056594E+02 -0.13383088999E+03  0.18661423618E+03  0.24505754718E+03  0.30000000000E+02 0. -1.
     200000    1    3    3    0    0  0.14112735979E+03  0.16498290659E+03  0.34127262050E+03  0.41689842007E+03  0.10100000000E+03 0.  1.
    -200001    1    1    2    0    0 -0.22049446668E+02  0.12266204366E+03  0.42891285789E+03  0.75846383877E+03  0.61300000000E+03 0.  1.
<mgrwt>
<rscale>  0 0.12534737E+04</rscale>
<asrwt>0</asrwt>
<pdfrwt beam="1">  1        2 0.44191520E-01 0.12534737E+04</pdfrwt>
<pdfrwt beam="2">  1       -2 0.18139924E+00 0.12534737E+04</pdfrwt>
<totfact> 0.20101938E+01</totfact>
</mgrwt>
</event>
<event>
 8    1  0.7685004E-052  0.1734691E+04  0.7818608E-02  0.8741822E-01
          2   -1    0    0  501    0  0.00000000000E+00  0.00000000000E+00  0.11823395772E+04  0.11823395772E+04  0.25500000000E-02 0.  1.
         -2   -1    0    0    0  501 -0.00000000000E+00 -0.00000000000E+00 -0.63627119788E+03  0.63627119788E+03  0.25500000000E-02 0. -1.
     200001    2    1    2    0    0  0.20056728431E+03  0.30127437224E+03 -0.24835515611E+03  0.75190030052E+03  0.61047546671E+03 0.  0.
    5000001    2    3    3    0    0  0.30856590493E+03  0.37224026353E+03 -0.47018772900E+02  0.49221356812E+03  0.79295019779E+02 0.  0.
        -13    1    4    4    0    0  0.14180005483E+02  0.30710843787E+02  0.13234407082E+02  0.36323397094E+02  0.10566000000E+00 0. -1.
     200003    1    4    4    0    0  0.29438589944E+03  0.34152941974E+03 -0.60253179982E+02  0.45589017102E+03  0.30000000000E+02 0. -1.
     200000    1    3    3    0    0 -0.10799862061E+03 -0.70965891285E+02 -0.20133638321E+03  0.25968673240E+03  0.10100000000E+03 0. -1.
    -200001    1    1    2    0    0 -0.20056728431E+03 -0.30127437224E+03  0.79442353546E+03  0.10667104746E+04  0.61300000000E+03 0.  1.
<mgrwt>
<rscale>  0 0.17346915E+04</rscale>
<asrwt>0</asrwt>
<pdfrwt beam="1">  1        2 0.16890565E+00 0.17346915E+04</pdfrwt>
<pdfrwt beam="2">  1       -2 0.90895885E-01 0.17346915E+04</pdfrwt>
<totfact> 0.21505565E+01</totfact>
</mgrwt>
</event>
<event>
 8    1  0.7685004E-052  0.2437642E+04  0.7818608E-02  0.8425544E-01
         -2   -1    0    0    0  501 -0.00000000000E+00  0.00000000000E+00  0.12334857128E+04  0.12334857128E+04  0.25500000000E-02 0.  1.
          2   -1    0    0  501    0  0.00000000000E+00 -0.00000000000E+00 -0.12043303073E+04  0.12043303073E+04  0.25500000000E-02 0. -1.
     200001    2    1    2    0    0  0.33155885992E+03 -0.98643060319E+03  0.17932833868E+03  0.12207303525E+04  0.61241107751E+03 0.  0.
    5000001    2    3    3    0    0  0.17629491128E+03 -0.68161152044E+03  0.31860622185E+03  0.83781927179E+03  0.32366193326E+03 0.  0.
        -13    1    4    4    0    0  0.88185065615E+02 -0.67136305656E+03  0.30696161346E+03  0.74345840692E+03  0.10566000000E+00 0. -1.
     200003    1    4    4    0    0  0.88109845666E+02 -0.10248463877E+02  0.11644608391E+02  0.94360864874E+02  0.30000000000E+02 0.  1.
     200000    1    3    3    0    0  0.15526394864E+03 -0.30481908275E+03 -0.13927788317E+03  0.38291108067E+03  0.10100000000E+03 0.  1.
    -200001    1    1    2    0    0 -0.33155885992E+03  0.98643060319E+03 -0.15017293314E+03  0.12170856676E+04  0.61300000000E+03 0. -1.
<mgrwt>
<rscale>  0 0.24376417E+04</rscale>
<asrwt>0</asrwt>
<pdfrwt beam="1">  1        2 0.17204719E+00 0.24376417E+04</pdfrwt>
<pdfrwt beam="2">  1       -2 0.17621225E+00 0.24376417E+04</pdfrwt>
<totfact> 0.36904820E+00</totfact>
</mgrwt>
</event>
<event>
 8    1  0.7685004E-052  0.1274347E+04  0.7818608E-02  0.9050160E-01
         -2   -1    0    0    0  501 -0.00000000000E+00  0.00000000000E+00  0.51111446387E+03  0.51111446388E+03  0.25500000000E-02 0. -1.
          2   -1    0    0  501    0  0.00000000000E+00 -0.00000000000E+00 -0.79432280569E+03  0.79432280570E+03  0.25500000000E-02 0.  1.
     200001    2    1    2    0    0 -0.17083254026E+03 -0.39849330257E+02 -0.15882330819E+03  0.65581248362E+03  0.61163178834E+03 0.  0.
    5000001    2    3    3    0    0 -0.11369361455E+03 -0.64671294164E+02 -0.37210993394E+03  0.41173632451E+03  0.11812020874E+03 0.  0.
        -13    1    4    4    0    0  0.73005336887E+01  0.19474138789E+02 -0.20014647156E+02  0.28864115065E+02  0.10566000000E+00 0. -1.
     200003    1    4    4    0    0 -0.12099414824E+03 -0.84145432952E+02 -0.35209528678E+03  0.38287220945E+03  0.30000000000E+02 0. -1.
     200000    1    3    3    0    0 -0.57138925712E+02  0.24821963906E+02  0.21328662574E+03  0.24407615911E+03  0.10100000000E+03 0. -1.
    -200001    1    1    2    0    0  0.17083254026E+03  0.39849330257E+02 -0.12438503363E+03  0.64962478595E+03  0.61300000000E+03 0.  1.
<mgrwt>
<rscale>  0 0.12743467E+04</rscale>
<asrwt>0</asrwt>
<pdfrwt beam="1">  1        2 0.11347469E+00 0.12743467E+04</pdfrwt>
<pdfrwt beam="2">  1       -2 0.73016353E-01 0.12743467E+04</pdfrwt>
<totfact> 0.63913094E+01</totfact>
</mgrwt>
</event>
<event>
 8    1  0.7685004E-052  0.1359292E+04  0.7818608E-02  0.8983824E-01
         -2   -1    0    0    0  501 -0.00000000000E+00  0.00000000000E+00  0.36220156599E+03  0.36220156600E+03  0.25500000000E-02 0. -1.
          2   -1    0    0  501    0  0.00000000000E+00 -0.00000000000E+00 -0.12753084725E+04  0.12753084725E+04  0.25500000000E-02 0.  1.
     200001    2    1    2    0    0  0.16970040598E+03  0.15360948487E+03 -0.23504774197E+03  0.69521107733E+03  0.61292487256E+03 0.  0.
    5000001    2    3    3    0    0 -0.18999912427E+03  0.20699732435E+02 -0.21143012305E+03  0.29796109775E+03  0.86890578863E+02 0.  0.
        -13    1    4    4    0    0 -0.74639943823E+02  0.32287490871E+02 -0.45067468512E+02  0.92976831323E+02  0.10566000000E+00 0. -1.
     200003    1    4    4    0    0 -0.11535918044E+03 -0.11587758436E+02 -0.16636265454E+03  0.20498426643E+03  0.30000000000E+02 0. -1.
     200000    1    3    3    0    0  0.35969953024E+03  0.13290975243E+03 -0.23617618912E+02  0.39724997957E+03  0.10100000000E+03 0. -1.
    -200001    1    1    2    0    0 -0.16970040598E+03 -0.15360948487E+03 -0.67805916456E+03  0.94229896120E+03  0.61300000000E+03 0.  1.
<mgrwt>
<rscale>  0 0.13592921E+04</rscale>
<asrwt>0</asrwt>
<pdfrwt beam="1">  1        2 0.18218692E+00 0.13592921E+04</pdfrwt>
<pdfrwt beam="2">  1       -2 0.51743081E-01 0.13592921E+04</pdfrwt>
<totfact> 0.66769247E+01</totfact>
</mgrwt>
</event>
<event>
 8    1  0.7685004E-052  0.1442478E+04  0.7818608E-02  0.8923632E-01
          2   -1    0    0  501    0  0.00000000000E+00  0.00000000000E+00  0.48337857428E+03  0.48337857428E+03  0.25500000000E-02 0.  1.
         -2   -1    0    0    0  501 -0.00000000000E+00 -0.00000000000E+00 -0.10761456227E+04  0.10761456227E+04  0.25500000000E-02 0. -1.
     200001    2    1    2    0    0  0.36261232022E+03  0.96198077611E+02 -0.21609207322E+03  0.74810888914E+03  0.61010602438E+03 0.  0.
    5000001    2    3    3    0    0 -0.79246572691E+02 -0.58378225407E+01 -0.25794047851E+03  0.28162963431E+03  0.80423012932E+02 0.  0.
        -13    1    4    4    0    0  0.56089740970E+01 -0.98921633032E+01 -0.92954157541E+02  0.93647221280E+02  0.10566000000E+00 0. -1.
     200003    1    4    4    0    0 -0.84855546788E+02  0.40543407625E+01 -0.16498632097E+03  0.18798241303E+03  0.30000000000E+02 0. -1.
     200000    1    3    3    0    0  0.44185889291E+03  0.10203590015E+03  0.41848405292E+02  0.46647925483E+03  0.10100000000E+03 0. -1.
    -200001    1    1    2    0    0 -0.36261232022E+03 -0.96198077611E+02 -0.37667497525E+03  0.81141530790E+03  0.61300000000E+03 0. -1.
<mgrwt>
<rscale>  0 0.14424781E+04</rscale>
<asrwt>0</asrwt>
<pdfrwt beam="1">  1        2 0.69054082E-01 0.14424781E+04</pdfrwt>
<pdfrwt beam="2">  1       -2 0.15373509E+00 0.14424781E+04</pdfrwt>
<totfact> 0.19022706E+01</totfact>
</mgrwt>
</event>
<event>
 8    1  0.7685004E-052  0.1367325E+04  0.7818608E-02  0.8977816E-01
         -2   -1    0    0    0  501 -0.00000000000E+00  0.00000000000E+00  0.41269902037E+03  0.41269902038E+03  0.25500000000E-02 0. -1.
          2   -1    0    0  501    0  0.00000000000E+00 -0.00000000000E+00 -0.11325315162E+04  0.11325315162E+04  0.25500000000E-02 0.  1.
     200001    2    1    2    0    0  0.15409377057E+03  0.25800340256E+03 -0.39212706742E+03  0.78795219037E+03  0.61383578541E+03 0.  0.
    5000001    2    3    3    0    0 -0.10292057595E+03  0.18461828979E+03 -0.18027729735E+03  0.43225136921E+03  0.33115673686E+03 0.  0.
        -13    1    4    4    0    0 -0.56466622509E+02 -0.73704876649E+02  0.26742801537E+02  0.96623376558E+02  0.10566000000E+00 0. -1.
     200003    1    4    4    0    0 -0.46453953446E+02  0.25832316644E+03 -0.20702009888E+03  0.33562799265E+03  0.30000000000E+02 0. -1.
     200000    1    3    3    0    0  0.25701434652E+03  0.73385112771E+02 -0.21184977007E+03  0.35570082116E+03  0.10100000000E+03 0.  1.
    -200001    1    1    2    0    0 -0.15409377057E+03 -0.25800340256E+03 -0.32770542843E+03  0.75727834624E+03  0.61300000000E+03 0. -1.
<mgrwt>
<rscale>  0 0.13673253E+04</rscale>
<asrwt>0</asrwt>
<pdfrwt beam="1">  1        2 0.16179022E+00 0.13673253E+04</pdfrwt>
<pdfrwt beam="2">  1       -2 0.58957003E-01 0.13673253E+04</pdfrwt>
<totfact> 0.61365843E+01</totfact>
</mgrwt>
</event>
<event>
 8    1  0.7685004E-052  0.1432393E+04  0.7818608E-02  0.8930699E-01
         -2   -1    0    0    0  501 -0.00000000000E+00  0.00000000000E+00  0.32734864179E+03  0.32734864180E+03  0.25500000000E-02 0. -1.
          2   -1    0    0  501    0  0.00000000000E+00 -0.00000000000E+00 -0.15669450869E+04  0.15669450869E+04  0.25500000000E-02 0.  1.
     200001    2    1    2    0    0  0.25641887384E+03 -0.12263527076E+03 -0.93418046163E+03  0.11527831277E+04  0.61271996543E+03 0.  0.
    5000001    2    3    3    0    0  0.88590772996E+02 -0.80755680070E+02 -0.93752813658E+03  0.95245245483E+03  0.11763021259E+03 0.  0.
        -13    1    4    4    0    0 -0.12596319778E+02 -0.21792639720E+01 -0.35578358221E+03  0.35601318093E+03  0.10566000000E+00 0. -1.
     200003    1    4    4    0    0  0.10118709277E+03 -0.78576416098E+02 -0.58174455437E+03  0.59643927390E+03  0.30000000000E+02 0. -1.
     200000    1    3    3    0    0  0.16782810084E+03 -0.41879590689E+02  0.33476749496E+01  0.20033067283E+03  0.10100000000E+03 0. -1.
    -200001    1    1    2    0    0 -0.25641887384E+03  0.12263527076E+03 -0.30541598347E+03  0.74151060104E+03  0.61300000000E+03 0.  1.
<mgrwt>
<rscale>  0 0.14323929E+04</rscale>
<asrwt>0</asrwt>
<pdfrwt beam="1">  1        2 0.22384929E+00 0.14323929E+04</pdfrwt>
<pdfrwt beam="2">  1       -2 0.46764093E-01 0.14323929E+04</pdfrwt>
<totfact> 0.56747382E+01</totfact>
</mgrwt>
</event>
<event>
 8    1  0.7685004E-052  0.2695773E+04  0.7818608E-02  0.8336378E-01
          2   -1    0    0  501    0  0.00000000000E+00  0.00000000000E+00  0.18449317560E+04  0.18449317560E+04  0.25500000000E-02 0.  1.
         -2   -1    0    0    0  501 -0.00000000000E+00 -0.00000000000E+00 -0.98475066521E+03  0.98475066521E+03  0.25500000000E-02 0. -1.
     200001    2    1    2    0    0  0.26434106317E+03 -0.96072768003E+03 -0.27261885646E+03  0.12012234585E+04  0.61297869734E+03 0.  0.
    5000001    2    3    3    0    0  0.37607739768E+03 -0.53433289476E+03 -0.34598495113E+03  0.74309563219E+03  0.74429031334E+02 0.  0.
        -13    1    4    4    0    0  0.82719769620E+02 -0.15731857250E+03 -0.73602790879E+02  0.19237742988E+03  0.10566000000E+00 0. -1.
     200003    1    4    4    0    0  0.29335762806E+03 -0.37701432226E+03 -0.27238216025E+03  0.55071820230E+03  0.30000000000E+02 0. -1.
     200000    1    3    3    0    0 -0.11173633450E+03 -0.42639478527E+03  0.73366094666E+02  0.45812782627E+03  0.10100000000E+03 0.  1.
    -200001    1    1    2    0    0 -0.26434106317E+03  0.96072768003E+03  0.11327999472E+04  0.16284589627E+04  0.61300000000E+03 0.  1.
<mgrwt>
<rscale>  0 0.26957728E+04</rscale>
<asrwt>0</asrwt>
<pdfrwt beam="1">  1        2 0.26356168E+00 0.26957728E+04</pdfrwt>
<pdfrwt beam="2">  1       -2 0.14067867E+00 0.26957728E+04</pdfrwt>
<totfact> 0.30236594E+00</totfact>
</mgrwt>
</event>
<event>
 8    1  0.7685004E-052  0.1475799E+04  0.7818608E-02  0.8900707E-01
         -2   -1    0    0    0  501 -0.00000000000E+00  0.00000000000E+00  0.70454706492E+03  0.70454706493E+03  0.25500000000E-02 0. -1.
          2   -1    0    0  501    0  0.00000000000E+00 -0.00000000000E+00 -0.77283121563E+03  0.77283121564E+03  0.25500000000E-02 0.  1.
     200001    2    1    2    0    0  0.29745686231E+03  0.17156953377E+03  0.19813405164E+03  0.72593676694E+03  0.60812038062E+03 0.  0.
    5000001    2    3    3    0    0 -0.98851731510E+02  0.17887519587E+03 -0.46253932837E+02  0.24944924225E+03  0.13534215025E+03 0.  0.
        -13    1    4    4    0    0 -0.85729036495E+02  0.27964219003E+02 -0.24960560527E+02  0.93565517092E+02  0.10566000000E+00 0. -1.
     200003    1    4    4    0    0 -0.13122695015E+02  0.15091097687E+03 -0.21293372310E+02  0.15588372515E+03  0.30000000000E+02 0. -1.
     200000    1    3    3    0    0  0.39630859382E+03 -0.73056621041E+01  0.24438798448E+03  0.47648752470E+03  0.10100000000E+03 0. -1.
    -200001    1    1    2    0    0 -0.29745686231E+03 -0.17156953377E+03 -0.26641820235E+03  0.75144151362E+03  0.61300000000E+03 0.  1.
<mgrwt>
<rscale>  0 0.14757994E+04</rscale>
<asrwt>0</asrwt>
<pdfrwt beam="1">  1        2 0.11040446E+00 0.14757994E+04</pdfrwt>
<pdfrwt beam="2">  1       -2 0.10064958E+00 0.14757994E+04</pdfrwt>
<totfact> 0.31352160E+01</totfact>
</mgrwt>
</event>
<event>
 8    1  0.7685004E-052  0.1506340E+04  0.7818608E-02  0.8880248E-01
          2   -1    0    0  501    0  0.00000000000E+00  0.00000000000E+00  0.28465238608E+04  0.28465238608E+04  0.25500000000E-02 0.  1.
         -2   -1    0    0    0  501 -0.00000000000E+00 -0.00000000000E+00 -0.19928334873E+03  0.19928334874E+03  0.25500000000E-02 0. -1.
     200001    2    1    2    0    0 -0.93411921974E+02 -0.14627804468E+02  0.21908007515E+04  0.22757124005E+04  0.60853860787E+03 0.  0.
    5000001    2    3    3    0    0 -0.23516879818E+03  0.21314812494E+03  0.13275477554E+04  0.13661061004E+04  0.55913753624E+02 0.  0.
        -13    1    4    4    0    0 -0.54310855214E+02  0.41261175257E+02  0.21642104109E+03  0.22691459135E+03  0.10566000000E+00 0. -1.
     200003    1    4    4    0    0 -0.18085794296E+03  0.17188694968E+03  0.11111267143E+04  0.11391915090E+04  0.30000000000E+02 0. -1.
     200000    1    3    3    0    0  0.14175687620E+03 -0.22777592940E+03  0.86325299612E+03  0.90960630015E+03  0.10100000000E+03 0.  1.
    -200001    1    1    2    0    0  0.93411921974E+02  0.14627804468E+02  0.45643976054E+03  0.77009480899E+03  0.61300000000E+03 0. -1.
<mgrwt>
<rscale>  0 0.15063397E+04</rscale>
<asrwt>0</asrwt>
<pdfrwt beam="1">  1        2 0.40664626E+00 0.15063397E+04</pdfrwt>
<pdfrwt beam="2">  1       -2 0.28469050E-01 0.15063397E+04</pdfrwt>
<totfact> 0.31488158E+01</totfact>
</mgrwt>
</event>
<event>
 8    1  0.7685004E-052  0.1474701E+04  0.7818608E-02  0.8901453E-01
         -2   -1    0    0    0  501 -0.00000000000E+00  0.00000000000E+00  0.13899720385E+04  0.13899720385E+04  0.25500000000E-02 0. -1.
          2   -1    0    0  501    0  0.00000000000E+00 -0.00000000000E+00 -0.39114851927E+03  0.39114851928E+03  0.25500000000E-02 0.  1.
     200001    2    1    2    0    0 -0.33665129799E+03 -0.19136810666E+03  0.65123687354E+03  0.97704262314E+03  0.61688489468E+03 0.  0.
    5000001    2    3    3    0    0 -0.20207605740E+03 -0.12376208425E+03 -0.49812159317E+02  0.25292121335E+03  0.73048630880E+02 0.  0.
        -13    1    4    4    0    0 -0.48487759213E+02 -0.40991308846E+02 -0.41181649925E+02  0.75678858667E+02  0.10566000000E+00 0. -1.
     200003    1    4    4    0    0 -0.15358829818E+03 -0.82770775407E+02 -0.86305093922E+01  0.17724235468E+03  0.30000000000E+02 0. -1.
     200000    1    3    3    0    0 -0.13457524059E+03 -0.67606022407E+02  0.70104903286E+03  0.72412140979E+03  0.10100000000E+03 0. -1.
    -200001    1    1    2    0    0  0.33665129799E+03  0.19136810666E+03  0.34758664565E+03  0.80407793460E+03  0.61300000000E+03 0.  1.
<mgrwt>
<rscale>  0 0.14747007E+04</rscale>
<asrwt>0</asrwt>
<pdfrwt beam="1">  1        2 0.55878361E-01 0.14747007E+04</pdfrwt>
<pdfrwt beam="2">  1       -2 0.19856743E+00 0.14747007E+04</pdfrwt>
<totfact> 0.11678668E+01</totfact>
</mgrwt>
</event>
<event>
 8    1  0.7685004E-052  0.1352121E+04  0.7818608E-02  0.8989224E-01
         -2   -1    0    0    0  501 -0.00000000000E+00  0.00000000000E+00  0.22242306866E+03  0.22242306867E+03  0.25500000000E-02 0. -1.
          2   -1    0    0  501    0  0.00000000000E+00 -0.00000000000E+00 -0.20549026642E+04  0.20549026642E+04  0.25500000000E-02 0.  1.
     200001    2    1    2    0    0 -0.22692697071E+02  0.52926845453E+02 -0.44646851352E+03  0.76071374263E+03  0.61321697236E+03 0.  0.
    5000001    2    3    3    0    0 -0.25370704100E+03 -0.13477054498E+03 -0.17298647423E+03  0.34407077402E+03  0.77006589436E+02 0.  0.
        -13    1    4    4    0    0 -0.20509369321E+03 -0.91289886036E+02 -0.14364032269E+03  0.26651420178E+03  0.10566000000E+00 0. -1.
     200003    1    4    4    0    0 -0.48613347794E+02 -0.43480658944E+02 -0.29346151539E+02  0.77556572230E+02  0.30000000000E+02 0. -1.
     200000    1    3    3    0    0  0.23101434393E+03  0.18769739043E+03 -0.27348203929E+03  0.41664296861E+03  0.10100000000E+03 0. -1.
    -200001    1    1    2    0    0  0.22692697071E+02 -0.52926845453E+02 -0.13860110820E+04  0.15166119902E+04  0.61300000000E+03 0.  1.
<mgrwt>
<rscale>  0 0.13521209E+04</rscale>
<asrwt>0</asrwt>
<pdfrwt beam="1">  1        2 0.29355751E+00 0.13521209E+04</pdfrwt>
<pdfrwt beam="2">  1       -2 0.31774725E-01 0.13521209E+04</pdfrwt>
<totfact> 0.67648161E+01</totfact>
</mgrwt>
</event>
<event>
 8    1  0.7685004E-052  0.1730775E+04  0.7818608E-02  0.8744004E-01
          2   -1    0    0  501    0  0.00000000000E+00  0.00000000000E+00  0.10907790826E+04  0.10907790826E+04  0.25500000000E-02 0.  1.
         -2   -1    0    0    0  501 -0.00000000000E+00 -0.00000000000E+00 -0.68656947972E+03  0.68656947973E+03  0.25500000000E-02 0. -1.
     200001    2    1    2    0    0  0.30852830206E+03 -0.36445394746E+03  0.59247441693E+03  0.97783056175E+03  0.61409305467E+03 0.  0.
    5000001    2    3    3    0    0  0.68683159397E+02  0.28836446789E+02 -0.90678966940E+02  0.14770853906E+03  0.89700726965E+02 0.  0.
        -13    1    4    4    0    0  0.52299277371E+02  0.53055778982E+02 -0.62210380839E+02  0.97058089539E+02  0.10566000000E+00 0. -1.
     200003    1    4    4    0    0  0.16383882027E+02 -0.24219332193E+02 -0.28468586101E+02  0.50650449522E+02  0.30000000000E+02 0. -1.
     200000    1    3    3    0    0  0.23984514266E+03 -0.39329039425E+03  0.68315338387E+03  0.83012202269E+03  0.10100000000E+03 0.  1.
    -200001    1    1    2    0    0 -0.30852830206E+03  0.36445394746E+03 -0.18826481408E+03  0.79951800055E+03  0.61300000000E+03 0. -1.
<mgrwt>
<rscale>  0 0.17307751E+04</rscale>
<asrwt>0</asrwt>
<pdfrwt beam="1">  1        2 0.15582558E+00 0.17307751E+04</pdfrwt>
<pdfrwt beam="2">  1       -2 0.98081355E-01 0.17307751E+04</pdfrwt>
<totfact> 0.20370040E+01</totfact>
</mgrwt>
</event>
<event>
 8    1  0.7685004E-052  0.1677412E+04  0.7818608E-02  0.8774353E-01
         -2   -1    0    0    0  501 -0.00000000000E+00  0.00000000000E+00  0.31815026263E+03  0.31815026264E+03  0.25500000000E-02 0. -1.
          2   -1    0    0  501    0  0.00000000000E+00 -0.00000000000E+00 -0.22109924939E+04  0.22109924939E+04  0.25500000000E-02 0.  1.
     200001    2    1    2    0    0 -0.49193192882E+03 -0.10948964869E+03 -0.13550033642E+04  0.15704850216E+04  0.61351779139E+03 0.  0.
    5000001    2    3    3    0    0 -0.27600127265E+03  0.14609481965E+03 -0.99687416821E+03  0.10700781974E+04  0.23192421695E+03 0.  0.
        -13    1    4    4    0    0 -0.22919933931E+03  0.59770983783E+02 -0.89355924691E+03  0.92442038410E+03  0.10566000000E+00 0. -1.
     200003    1    4    4    0    0 -0.46801933335E+02  0.86323835865E+02 -0.10331492131E+03  0.14565781327E+03  0.30000000000E+02 0. -1.
     200000    1    3    3    0    0 -0.21593065618E+03 -0.25558446833E+03 -0.35812919600E+03  0.50040682425E+03  0.10100000000E+03 0. -1.
    -200001    1    1    2    0    0  0.49193192882E+03  0.10948964869E+03 -0.53783886701E+03  0.95865773487E+03  0.61300000000E+03 0. -1.
<mgrwt>
<rscale>  0 0.16774121E+04</rscale>
<asrwt>0</asrwt>
<pdfrwt beam="1">  1        2 0.31585606E+00 0.16774121E+04</pdfrwt>
<pdfrwt beam="2">  1       -2 0.45450039E-01 0.16774121E+04</pdfrwt>
<totfact> 0.27380926E+01</totfact>
</mgrwt>
</event>
<event>
 8    1  0.7685004E-052  0.1366434E+04  0.7818608E-02  0.8978480E-01
         -2   -1    0    0    0  501 -0.00000000000E+00  0.00000000000E+00  0.18580161872E+03  0.18580161874E+03  0.25500000000E-02 0. -1.
          2   -1    0    0  501    0  0.00000000000E+00 -0.00000000000E+00 -0.25122789635E+04  0.25122789635E+04  0.25500000000E-02 0.  1.
     200001    2    1    2    0    0 -0.15771666826E+03 -0.15131837285E+03 -0.75232217419E+03  0.99470003213E+03  0.61291737023E+03 0.  0.
    5000001    2    3    3    0    0  0.22323143577E+03 -0.78756357737E+02 -0.31044277885E+03  0.39817249377E+03  0.78305670639E+02 0.  0.
        -13    1    4    4    0    0  0.16248192400E+03 -0.80809107601E+02 -0.23047055202E+03  0.29333798597E+03  0.10566000000E+00 0. -1.
     200003    1    4    4    0    0  0.60749511763E+02  0.20527498636E+01 -0.79972226835E+02  0.10483450780E+03  0.30000000000E+02 0. -1.
     200000    1    3    3    0    0 -0.38094810403E+03 -0.72562015114E+02 -0.44187939534E+03  0.59652753836E+03  0.10100000000E+03 0.  1.
    -200001    1    1    2    0    0  0.15771666826E+03  0.15131837285E+03 -0.15741551706E+04  0.17033805501E+04  0.61300000000E+03 0.  1.
<mgrwt>
<rscale>  0 0.13664340E+04</rscale>
<asrwt>0</asrwt>
<pdfrwt beam="1">  1        2 0.35889697E+00 0.13664340E+04</pdfrwt>
<pdfrwt beam="2">  1       -2 0.26543090E-01 0.13664340E+04</pdfrwt>
<totfact> 0.54681809E+01</totfact>
</mgrwt>
</event>
<event>
 8    1  0.7685004E-052  0.2153996E+04  0.7818608E-02  0.8537824E-01
         -2   -1    0    0    0  501 -0.00000000000E+00  0.00000000000E+00  0.14708469831E+04  0.14708469831E+04  0.25500000000E-02 0. -1.
          2   -1    0    0  501    0  0.00000000000E+00 -0.00000000000E+00 -0.78861032828E+03  0.78861032829E+03  0.25500000000E-02 0.  1.
     200001    2    1    2    0    0 -0.17498114292E+03 -0.18669277217E+02  0.12519078481E+04  0.14043191877E+04  0.61145087977E+03 0.  0.
    5000001    2    3    3    0    0 -0.35446723599E+03 -0.30471128718E+02  0.10674878933E+04  0.11276130962E+04  0.73521298747E+02 0.  0.
        -13    1    4    4    0    0 -0.12787757805E+03 -0.41477982887E+02  0.40127540892E+03  0.42319624644E+03  0.10566000000E+00 0. -1.
     200003    1    4    4    0    0 -0.22658965794E+03  0.11006854169E+02  0.66621248435E+03  0.70441684976E+03  0.30000000000E+02 0. -1.
     200000    1    3    3    0    0  0.17948609307E+03  0.11801851501E+02  0.18441995485E+03  0.27670609146E+03  0.10100000000E+03 0.  1.
    -200001    1    1    2    0    0  0.17498114292E+03  0.18669277217E+02 -0.56967119326E+03  0.85513812377E+03  0.61300000000E+03 0.  1.
<mgrwt>
<rscale>  0 0.21539964E+04</rscale>
<asrwt>0</asrwt>
<pdfrwt beam="1">  1        2 0.11265862E+00 0.21539964E+04</pdfrwt>
<pdfrwt beam="2">  1       -2 0.21012100E+00 0.21539964E+04</pdfrwt>
<totfact> 0.40756779E+00</totfact>
</mgrwt>
</event>
<event>
 8    1  0.7685004E-052  0.1243133E+04  0.7818608E-02  0.9075918E-01
         -2   -1    0    0    0  501 -0.00000000000E+00  0.00000000000E+00  0.71981226030E+03  0.71981226031E+03  0.25500000000E-02 0. -1.
          2   -1    0    0  501    0  0.00000000000E+00 -0.00000000000E+00 -0.53673040176E+03  0.53673040177E+03  0.25500000000E-02 0.  1.
     200001    2    1    2    0    0  0.88295947981E+02  0.54425072499E+02  0.71692895769E+02  0.62492983449E+03  0.61207774325E+03 0.  0.
    5000001    2    3    3    0    0  0.19456606323E+03  0.23964264848E+03 -0.78241558508E+02  0.34514379404E+03  0.13310877190E+03 0.  0.
        -13    1    4    4    0    0  0.63694477792E+02  0.12854458270E+03  0.20384556242E+02  0.14490078516E+03  0.10566000000E+00 0. -1.
     200003    1    4    4    0    0  0.13087158544E+03  0.11109806578E+03 -0.98626114751E+02  0.20024300889E+03  0.30000000000E+02 0. -1.
     200000    1    3    3    0    0 -0.10627011525E+03 -0.18521757598E+03  0.14993445428E+03  0.27978604044E+03  0.10100000000E+03 0. -1.
    -200001    1    1    2    0    0 -0.88295947981E+02 -0.54425072499E+02  0.11138896277E+03  0.63161282759E+03  0.61300000000E+03 0.  1.
<mgrwt>
<rscale>  0 0.12431333E+04</rscale>
<asrwt>0</asrwt>
<pdfrwt beam="1">  1        2 0.76675772E-01 0.12431333E+04</pdfrwt>
<pdfrwt beam="2">  1       -2 0.10283032E+00 0.12431333E+04</pdfrwt>
<totfact> 0.47100813E+01</totfact>
</mgrwt>
</event>
<event>
 8    1  0.7685004E-052  0.1768933E+04  0.7818608E-02  0.8722997E-01
          2   -1    0    0  501    0  0.00000000000E+00  0.00000000000E+00  0.13195971950E+04  0.13195971950E+04  0.25500000000E-02 0.  1.
         -2   -1    0    0    0  501 -0.00000000000E+00 -0.00000000000E+00 -0.59281772586E+03  0.59281772586E+03  0.25500000000E-02 0. -1.
     200001    2    1    2    0    0 -0.32403828423E+03  0.12302753039E+03 -0.21617564057E+03  0.73552498471E+03  0.61166045538E+03 0.  0.
    5000001    2    3    3    0    0  0.79338644919E+02  0.12079187700E+03  0.12010037325E+03  0.20073483654E+03  0.70605076442E+02 0.  0.
        -13    1    4    4    0    0  0.44442219991E+02  0.56498730879E+02  0.22910352039E+02  0.75446092697E+02  0.10566000000E+00 0. -1.
     200003    1    4    4    0    0  0.34896424928E+02  0.64293146119E+02  0.97190021207E+02  0.12528874384E+03  0.30000000000E+02 0. -1.
     200000    1    3    3    0    0 -0.40337692915E+03  0.22356533912E+01 -0.33627601381E+03  0.53479014817E+03  0.10100000000E+03 0.  1.
    -200001    1    1    2    0    0  0.32403828423E+03 -0.12302753039E+03  0.94295510968E+03  0.11768899361E+04  0.61300000000E+03 0.  1.
<mgrwt>
<rscale>  0 0.17689326E+04</rscale>
<asrwt>0</asrwt>
<pdfrwt beam="1">  1        2 0.18851388E+00 0.17689326E+04</pdfrwt>
<pdfrwt beam="2">  1       -2 0.84688247E-01 0.17689326E+04</pdfrwt>
<totfact> 0.21119870E+01</totfact>
</mgrwt>
</event>
<event>
 8    1  0.7685004E-052  0.2451374E+04  0.7818608E-02  0.8420517E-01
         -2   -1    0    0    0  501 -0.00000000000E+00  0.00000000000E+00  0.52935026330E+03  0.52935026330E+03  0.25500000000E-02 0. -1.
          2   -1    0    0  501    0  0.00000000000E+00 -0.00000000000E+00 -0.28380230935E+04  0.28380230935E+04  0.25500000000E-02 0.  1.
     200001    2    1    2    0    0 -0.10157435840E+04  0.30646127405E+03 -0.11770949090E+04  0.16994731401E+04  0.61400569070E+03 0.  0.
    5000001    2    3    3    0    0  0.38148286527E+02  0.25504179896E+02 -0.24798820533E+03  0.26313570401E+03  0.75076586120E+02 0.  0.
        -13    1    4    4    0    0 -0.67341152655E+01 -0.15605193489E+02 -0.26464373208E+02  0.31452258831E+02  0.10566000000E+00 0. -1.
     200003    1    4    4    0    0  0.44882401792E+02  0.41109373385E+02 -0.22152383212E+03  0.23168344518E+03  0.30000000000E+02 0. -1.
     200000    1    3    3    0    0 -0.10538918706E+04  0.28095709416E+03 -0.92910670366E+03  0.14363374361E+04  0.10100000000E+03 0. -1.
    -200001    1    1    2    0    0  0.10157435840E+04 -0.30646127405E+03 -0.11315779212E+04  0.16679002166E+04  0.61300000000E+03 0.  1.
<mgrwt>
<rscale>  0 0.24513737E+04</rscale>
<asrwt>0</asrwt>
<pdfrwt beam="1">  1        2 0.40543186E+00 0.24513737E+04</pdfrwt>
<pdfrwt beam="2">  1       -2 0.75621468E-01 0.24513737E+04</pdfrwt>
<totfact> 0.40927203E+00</totfact>
</mgrwt>
</event>
<event>
 8    1  0.7685004E-052  0.1863665E+04  0.7818608E-02  0.8673157E-01
          2   -1    0    0  501    0  0.00000000000E+00  0.00000000000E+00  0.26163255387E+04  0.26163255387E+04  0.25500000000E-02 0.  1.
         -2   -1    0    0    0  501 -0.00000000000E+00 -0.00000000000E+00 -0.33188213025E+03  0.33188213026E+03  0.25500000000E-02 0. -1.
     200001    2    1    2    0    0  0.60433068145E+02  0.17086937198E+03  0.22149863859E+04  0.23052132864E+04  0.61236844130E+03 0.  0.
    5000001    2    3    3    0    0 -0.40758484215E+02 -0.12162635035E+03  0.15555643016E+04  0.15698005022E+04  0.16744878972E+03 0.  0.
        -13    1    4    4    0    0 -0.38394850983E+02 -0.49097639007E+02  0.15536113707E+03  0.16739724256E+03  0.10566000000E+00 0. -1.
     200003    1    4    4    0    0 -0.23636332320E+01 -0.72528711339E+02  0.14002031645E+04  0.14024032596E+04  0.30000000000E+02 0. -1.
     200000    1    3    3    0    0  0.10119155236E+03  0.29249572233E+03  0.65942208438E+03  0.73541278424E+03  0.10100000000E+03 0. -1.
    -200001    1    1    2    0    0 -0.60433068145E+02 -0.17086937198E+03  0.69457022502E+02  0.64299438254E+03  0.61300000000E+03 0. -1.
<mgrwt>
<rscale>  0 0.18636649E+04</rscale>
<asrwt>0</asrwt>
<pdfrwt beam="1">  1        2 0.37376077E+00 0.18636649E+04</pdfrwt>
<pdfrwt beam="2">  1       -2 0.47411735E-01 0.18636649E+04</pdfrwt>
<totfact> 0.15195279E+01</totfact>
</mgrwt>
</event>
<event>
 8    1  0.7685004E-052  0.1324702E+04  0.7818608E-02  0.9010202E-01
          2   -1    0    0  501    0  0.00000000000E+00  0.00000000000E+00  0.61736570795E+03  0.61736570795E+03  0.25500000000E-02 0.  1.
         -2   -1    0    0    0  501 -0.00000000000E+00 -0.00000000000E+00 -0.71061443798E+03  0.71061443799E+03  0.25500000000E-02 0. -1.
     200001    2    1    2    0    0 -0.97138078292E+02  0.18175585104E+03  0.85280970694E+02  0.65707564477E+03  0.61806517726E+03 0.  0.
    5000001    2    3    3    0    0 -0.18955254947E+03  0.29752970403E+03 -0.92839737122E+01  0.45437500780E+03  0.28621034529E+03 0.  0.
        -13    1    4    4    0    0  0.57464505120E+02  0.10301316714E+03 -0.63427744359E+02  0.13392898070E+03  0.10566000000E+00 0. -1.
     200003    1    4    4    0    0 -0.24701705459E+03  0.19451653689E+03  0.54143770646E+02  0.32044602710E+03  0.30000000000E+02 0. -1.
     200000    1    3    3    0    0  0.92414471180E+02 -0.11577385299E+03  0.94564944407E+02  0.20270063697E+03  0.10100000000E+03 0. -1.
    -200001    1    1    2    0    0  0.97138078292E+02 -0.18175585104E+03 -0.17852970073E+03  0.67090450117E+03  0.61300000000E+03 0. -1.
<mgrwt>
<rscale>  0 0.13247022E+04</rscale>
<asrwt>0</asrwt>
<pdfrwt beam="1">  1        2 0.88195102E-01 0.13247022E+04</pdfrwt>
<pdfrwt beam="2">  1       -2 0.10151635E+00 0.13247022E+04</pdfrwt>
<totfact> 0.40962334E+01</totfact>
</mgrwt>
</event>
<event>
 8    1  0.7685004E-052  0.1400072E+04  0.7818608E-02  0.8953767E-01
          2   -1    0    0  501    0  0.00000000000E+00  0.00000000000E+00  0.26812933011E+03  0.26812933012E+03  0.25500000000E-02 0. -1.
         -2   -1    0    0    0  501 -0.00000000000E+00 -0.00000000000E+00 -0.18276636443E+04  0.18276636443E+04  0.25500000000E-02 0.  1.
     200001    2    1    2    0    0 -0.25436344555E+03 -0.22170222961E+03 -0.82241571236E+03  0.10794438837E+04  0.61235516904E+03 0.  0.
    5000001    2    3    3    0    0 -0.29394568235E+03 -0.32208978319E+03 -0.29330056497E+03  0.53007310399E+03  0.69328071953E+02 0.  0.
        -13    1    4    4    0    0 -0.59264152849E+02 -0.89755774565E+02 -0.96340654202E+02  0.14439484650E+03  0.10566000000E+00 0. -1.
     200003    1    4    4    0    0 -0.23468152950E+03 -0.23233400862E+03 -0.19695991076E+03  0.38567825749E+03  0.30000000000E+02 0. -1.
     200000    1    3    3    0    0  0.39582236795E+02  0.10038755358E+03 -0.52911514740E+03  0.54937077970E+03  0.10100000000E+03 0.  1.
    -200001    1    1    2    0    0  0.25436344555E+03  0.22170222961E+03 -0.73711860180E+03  0.10163490907E+04  0.61300000000E+03 0.  1.
<mgrwt>
<rscale>  0 0.14000718E+04</rscale>
<asrwt>0</asrwt>
<pdfrwt beam="1">  1        2 0.38304191E-01 0.14000718E+04</pdfrwt>
<pdfrwt beam="2">  1       -2 0.26109480E+00 0.14000718E+04</pdfrwt>
<totfact> 0.72560060E+00</totfact>
</mgrwt>
</event>
<event>
 8    1  0.7685004E-052  0.1358070E+04  0.7818608E-02  0.8984742E-01
          2   -1    0    0  501    0  0.00000000000E+00  0.00000000000E+00  0.54514451925E+03  0.54514451925E+03  0.25500000000E-02 0.  1.
         -2   -1    0    0    0  501 -0.00000000000E+00 -0.00000000000E+00 -0.84580913615E+03  0.84580913616E+03  0.25500000000E-02 0. -1.
     200001    2    1    2    0    0 -0.49035646744E+02  0.23595848416E+03  0.18550339109E+02  0.65900550899E+03  0.61307686704E+03 0.  0.
    5000001    2    3    3    0    0 -0.15471264942E+03  0.46264144867E+02 -0.24439561327E+03  0.30334676085E+03  0.78826813593E+02 0.  0.
        -13    1    4    4    0    0 -0.95208134406E+02  0.45853226896E+02 -0.18964363955E+03  0.21709866066E+03  0.10566000000E+00 0. -1.
     200003    1    4    4    0    0 -0.59504515010E+02  0.41091797031E+00 -0.54751973726E+02  0.86248100194E+02  0.30000000000E+02 0. -1.
     200000    1    3    3    0    0  0.10567700267E+03  0.18969433930E+03  0.26294595238E+03  0.35565874814E+03  0.10100000000E+03 0.  1.
    -200001    1    1    2    0    0  0.49035646744E+02 -0.23595848416E+03 -0.31921495602E+03  0.73194814642E+03  0.61300000000E+03 0. -1.
<mgrwt>
<rscale>  0 0.13580695E+04</rscale>
<asrwt>0</asrwt>
<pdfrwt beam="1">  1        2 0.77877789E-01 0.13580695E+04</pdfrwt>
<pdfrwt beam="2">  1       -2 0.12082988E+00 0.13580695E+04</pdfrwt>
<totfact> 0.30995329E+01</totfact>
</mgrwt>
</event>
<event>
 8    1  0.7685004E-052  0.1560890E+04  0.7818608E-02  0.8844942E-01
          2   -1    0    0  501    0  0.00000000000E+00  0.00000000000E+00  0.16608085427E+04  0.16608085427E+04  0.25500000000E-02 0.  1.
         -2   -1    0    0    0  501 -0.00000000000E+00 -0.00000000000E+00 -0.36674571417E+03  0.36674571418E+03  0.25500000000E-02 0. -1.
     200001    2    1    2    0    0 -0.23018831646E+02  0.17381534891E+03  0.12315933161E+04  0.13869193514E+04  0.61317334324E+03 0.  0.
    5000001    2    3    3    0    0  0.25000667570E+03  0.46333214514E+02  0.84025282688E+03  0.88279337432E+03  0.93001204284E+02 0.  0.
        -13    1    4    4    0    0  0.17346655906E+03  0.10036459283E+02  0.45129818888E+03  0.48359222913E+03  0.10566000000E+00 0. -1.
     200003    1    4    4    0    0  0.76540116639E+02  0.36296755230E+02  0.38895463800E+03  0.39920114519E+03  0.30000000000E+02 0. -1.
     200000    1    3    3    0    0 -0.27302550734E+03  0.12748213440E+03  0.39134048919E+03  0.50412597704E+03  0.10100000000E+03 0. -1.
    -200001    1    1    2    0    0  0.23018831646E+02 -0.17381534891E+03  0.62469512413E+02  0.64063490547E+03  0.61300000000E+03 0. -1.
<mgrwt>
<rscale>  0 0.15608900E+04</rscale>
<asrwt>0</asrwt>
<pdfrwt beam="1">  1        2 0.23725836E+00 0.15608900E+04</pdfrwt>
<pdfrwt beam="2">  1       -2 0.52392245E-01 0.15608900E+04</pdfrwt>
<totfact> 0.39823474E+01</totfact>
</mgrwt>
</event>
<event>
 8    1  0.7685004E-052  0.1381838E+04  0.7818608E-02  0.8967071E-01
          2   -1    0    0  501    0  0.00000000000E+00  0.00000000000E+00  0.21523891028E+04  0.21523891028E+04  0.25500000000E-02 0.  1.
         -2   -1    0    0    0  501 -0.00000000000E+00 -0.00000000000E+00 -0.22178556629E+03  0.22178556630E+03  0.25500000000E-02 0. -1.
     200001    2    1    2    0    0 -0.23359379331E+03  0.17526306544E+03  0.74721332870E+03  0.10098196617E+04  0.61329013372E+03 0.  0.
    5000001    2    3    3    0    0  0.44896288927E+02  0.82997000889E+02  0.29692288486E+02  0.22808620599E+03  0.20551765484E+03 0.  0.
        -13    1    4    4    0    0  0.94765514737E+02  0.79407032542E+02  0.83137961430E+02  0.14898963519E+03  0.10566000000E+00 0. -1.
     200003    1    4    4    0    0 -0.49869225810E+02  0.35899683474E+01 -0.53445672944E+02  0.79096570798E+02  0.30000000000E+02 0. -1.
     200000    1    3    3    0    0 -0.27849008224E+03  0.92266064552E+02  0.71752104021E+03  0.78173345567E+03  0.10100000000E+03 0.  1.
    -200001    1    1    2    0    0  0.23359379331E+03 -0.17526306544E+03  0.11833902078E+04  0.13643550075E+04  0.61300000000E+03 0.  1.
<mgrwt>
<rscale>  0 0.13818377E+04</rscale>
<asrwt>0</asrwt>
<pdfrwt beam="1">  1        2 0.30748415E+00 0.13818377E+04</pdfrwt>
<pdfrwt beam="2">  1       -2 0.31683653E-01 0.13818377E+04</pdfrwt>
<totfact> 0.60468206E+01</totfact>
</mgrwt>
</event>
<event>
 8    1  0.7685004E-052  0.1826433E+04  0.7818608E-02  0.8692368E-01
         -2   -1    0    0    0  501 -0.00000000000E+00  0.00000000000E+00  0.25297402591E+03  0.25297402592E+03  0.25500000000E-02 0. -1.
          2   -1    0    0  501    0  0.00000000000E+00 -0.00000000000E+00 -0.32966412876E+04  0.32966412876E+04  0.25500000000E-02 0.  1.
     200001    2    1    2    0    0 -0.14989639111E+03  0.43220556576E+03 -0.54948404546E+03  0.94078617092E+03  0.61145345207E+03 0.  0.
    5000001    2    3    3    0    0 -0.16750380943E+03  0.56125005350E+03 -0.36325985695E+03  0.69210374416E+03  0.63172147958E+02 0.  0.
        -13    1    4    4    0    0 -0.99681358876E+02  0.30580524005E+03 -0.17437635983E+03  0.36586929931E+03  0.10566000000E+00 0. -1.
     200003    1    4    4    0    0 -0.67822450552E+02  0.25544481346E+03 -0.18888349712E+03  0.32623444485E+03  0.30000000000E+02 0. -1.
     200000    1    3    3    0    0  0.17607418316E+02 -0.12904448774E+03 -0.18622418851E+03  0.24868242676E+03  0.10100000000E+03 0.  1.
    -200001    1    1    2    0    0  0.14989639111E+03 -0.43220556576E+03 -0.24941832162E+04  0.26088291426E+04  0.61300000000E+03 0.  1.
<mgrwt>
<rscale>  0 0.18264333E+04</rscale>
<asrwt>0</asrwt>
<pdfrwt beam="1">  1        2 0.47094873E+00 0.18264333E+04</pdfrwt>
<pdfrwt beam="2">  1       -2 0.36139149E-01 0.18264333E+04</pdfrwt>
<totfact> 0.10879338E+01</totfact>
</mgrwt>
</event>
<event>
 8    1  0.7685004E-052  0.1724453E+04  0.7818608E-02  0.8747539E-01
         -2   -1    0    0    0  501 -0.00000000000E+00  0.00000000000E+00  0.89333665154E+03  0.89333665155E+03  0.25500000000E-02 0. -1.
          2   -1    0    0  501    0  0.00000000000E+00 -0.00000000000E+00 -0.83219985313E+03  0.83219985313E+03  0.25500000000E-02 0.  1.
     200001    2    1    2    0    0  0.38243407475E+03  0.44216329404E+03  0.19320843678E+03  0.86822902321E+03  0.61215025652E+03 0.  0.
    5000001    2    3    3    0    0 -0.56154505006E+02  0.14268405401E+03  0.27570776761E+03  0.32136990323E+03  0.61251725577E+02 0.  0.
        -13    1    4    4    0    0 -0.68247697430E+01  0.17201136629E+02  0.78161310516E+02  0.80322214915E+02  0.10566000000E+00 0. -1.
     200003    1    4    4    0    0 -0.49329735263E+02  0.12548291738E+03  0.19754645709E+03  0.24104768832E+03  0.30000000000E+02 0.  1.
     200000    1    3    3    0    0  0.43858857976E+03  0.29947924004E+03 -0.82499330829E+02  0.54685911997E+03  0.10100000000E+03 0.  1.
    -200001    1    1    2    0    0 -0.38243407475E+03 -0.44216329404E+03 -0.13207163837E+03  0.85730748147E+03  0.61300000000E+03 0.  1.
<mgrwt>
<rscale>  0 0.17244531E+04</rscale>
<asrwt>0</asrwt>
<pdfrwt beam="1">  1        2 0.11888569E+00 0.17244531E+04</pdfrwt>
<pdfrwt beam="2">  1       -2 0.12761952E+00 0.17244531E+04</pdfrwt>
<totfact> 0.15646914E+01</totfact>
</mgrwt>
</event>
<event>
 8    1  0.7685004E-052  0.1408100E+04  0.7818608E-02  0.8947976E-01
          2   -1    0    0  501    0  0.00000000000E+00  0.00000000000E+00  0.11103829039E+04  0.11103829039E+04  0.25500000000E-02 0.  1.
         -2   -1    0    0    0  501 -0.00000000000E+00 -0.00000000000E+00 -0.44641025825E+03  0.44641025826E+03  0.25500000000E-02 0. -1.
     200001    2    1    2    0    0 -0.50303384871E+02  0.34058373139E+03  0.28641307059E+03  0.75876563046E+03  0.61250724595E+03 0.  0.
    5000001    2    3    3    0    0 -0.17926140671E+03  0.35897266635E+03 -0.18695444209E+02  0.41197962998E+03  0.91551454162E+02 0.  0.
        -13    1    4    4    0    0 -0.99749612509E+02  0.26665920892E+03  0.25627201499E+01  0.28471687269E+03  0.10566000000E+00 0. -1.
     200003    1    4    4    0    0 -0.79511794199E+02  0.92313457435E+02 -0.21258164359E+02  0.12726275729E+03  0.30000000000E+02 0.  1.
     200000    1    3    3    0    0  0.12895802184E+03 -0.18388934959E+02  0.30510851480E+03  0.34678600048E+03  0.10100000000E+03 0. -1.
    -200001    1    1    2    0    0  0.50303384871E+02 -0.34058373139E+03  0.37755957503E+03  0.79802753168E+03  0.61300000000E+03 0.  1.
<mgrwt>
<rscale>  0 0.14080999E+04</rscale>
<asrwt>0</asrwt>
<pdfrwt beam="1">  1        2 0.15862613E+00 0.14080999E+04</pdfrwt>
<pdfrwt beam="2">  1       -2 0.63772895E-01 0.14080999E+04</pdfrwt>
<totfact> 0.53368312E+01</totfact>
</mgrwt>
</event>
<event>
 8    1  0.7685004E-052  0.1266294E+04  0.7818608E-02  0.9056730E-01
          2   -1    0    0  501    0  0.00000000000E+00  0.00000000000E+00  0.30683612461E+04  0.30683612461E+04  0.25500000000E-02 0.  1.
         -2   -1    0    0    0  501 -0.00000000000E+00 -0.00000000000E+00 -0.13064800652E+03  0.13064800655E+03  0.25500000000E-02 0. -1.
     200001    2    1    2    0    0  0.18716946718E+02 -0.12576192720E+03  0.17071251638E+04  0.18183273926E+04  0.61308384042E+03 0.  0.
    5000001    2    3    3    0    0  0.52660118632E+02 -0.18763930394E+03  0.16791292490E+04  0.16919718627E+04  0.72884518241E+02 0.  0.
        -13    1    4    4    0    0  0.44798869128E+02 -0.11900337259E+03  0.12318740535E+04  0.12384193298E+04  0.10566000000E+00 0. -1.
     200003    1    4    4    0    0  0.78612495037E+01 -0.68635931351E+02  0.44725519546E+03  0.45355253299E+03  0.30000000000E+02 0. -1.
     200000    1    3    3    0    0 -0.33943171914E+02  0.61877376743E+02  0.27995914758E+02  0.12635552982E+03  0.10100000000E+03 0. -1.
    -200001    1    1    2    0    0 -0.18716946718E+02  0.12576192720E+03  0.12305880758E+04  0.13806818601E+04  0.61300000000E+03 0. -1.
<mgrwt>
<rscale>  0 0.12662942E+04</rscale>
<asrwt>0</asrwt>
<pdfrwt beam="1">  1        2 0.43833737E+00 0.12662942E+04</pdfrwt>
<pdfrwt beam="2">  1       -2 0.18663999E-01 0.12662942E+04</pdfrwt>
<totfact> 0.51716010E+01</totfact>
</mgrwt>
</event>
<event>
 8    1  0.7685004E-052  0.1436623E+04  0.7818608E-02  0.8927728E-01
          2   -1    0    0  501    0  0.00000000000E+00  0.00000000000E+00  0.33933612156E+03  0.33933612157E+03  0.25500000000E-02 0.  1.
         -2   -1    0    0    0  501 -0.00000000000E+00 -0.00000000000E+00 -0.15205312090E+04  0.15205312090E+04  0.25500000000E-02 0. -1.
     200001    2    1    2    0    0 -0.22725550244E+03  0.29268066720E+03 -0.64111982301E+03  0.96278465456E+03  0.61531506342E+03 0.  0.
    5000001    2    3    3    0    0  0.47188437382E+02  0.37410989810E+03 -0.49441378763E+03  0.62562911692E+03  0.69150806568E+02 0.  0.
        -13    1    4    4    0    0  0.31634442704E+02  0.29887020096E+03 -0.37681671015E+03  0.48199064224E+03  0.10566000000E+00 0. -1.
     200003    1    4    4    0    0  0.15553994678E+02  0.75239697140E+02 -0.11759707748E+03  0.14363847468E+03  0.30000000000E+02 0.  1.
     200000    1    3    3    0    0 -0.27444393982E+03 -0.81429230903E+02 -0.14670603537E+03  0.33715553765E+03  0.10100000000E+03 0. -1.
    -200001    1    1    2    0    0  0.22725550244E+03 -0.29268066720E+03 -0.54007526446E+03  0.89708267603E+03  0.61300000000E+03 0.  1.
<mgrwt>
<rscale>  0 0.14366227E+04</rscale>
<asrwt>0</asrwt>
<pdfrwt beam="1">  1        2 0.48476590E-01 0.14366227E+04</pdfrwt>
<pdfrwt beam="2">  1       -2 0.21721874E+00 0.14366227E+04</pdfrwt>
<totfact> 0.10401243E+01</totfact>
</mgrwt>
</event>
<event>
 8    1  0.7685004E-052  0.1269376E+04  0.7818608E-02  0.9054209E-01
         -2   -1    0    0    0  501 -0.00000000000E+00  0.00000000000E+00  0.14472728914E+04  0.14472728914E+04  0.25500000000E-02 0.  1.
          2   -1    0    0  501    0  0.00000000000E+00 -0.00000000000E+00 -0.27833629111E+03  0.27833629113E+03  0.25500000000E-02 0. -1.
     200001    2    1    2    0    0 -0.81524292266E+02 -0.14286815287E+03  0.55538126048E+03  0.84284269339E+03  0.61227276763E+03 0.  0.
    5000001    2    3    3    0    0  0.22789211610E+03 -0.14835426997E+03  0.38038960760E+03  0.47325956360E+03  0.73038037807E+02 0.  0.
        -13    1    4    4    0    0  0.56577031784E+02 -0.28463879491E+02  0.48178484434E+02  0.79575941638E+02  0.10566000000E+00 0. -1.
     200003    1    4    4    0    0  0.17131508432E+03 -0.11989039048E+03  0.33221112317E+03  0.39368362196E+03  0.30000000000E+02 0. -1.
     200000    1    3    3    0    0 -0.30941640837E+03  0.54861171019E+01  0.17499165287E+03  0.36958312979E+03  0.10100000000E+03 0.  1.
    -200001    1    1    2    0    0  0.81524292266E+02  0.14286815287E+03  0.61355533980E+03  0.88276648913E+03  0.61300000000E+03 0.  1.
<mgrwt>
<rscale>  0 0.12693755E+04</rscale>
<asrwt>0</asrwt>
<pdfrwt beam="1">  1        2 0.39762327E-01 0.12693755E+04</pdfrwt>
<pdfrwt beam="2">  1       -2 0.20675327E+00 0.12693755E+04</pdfrwt>
<totfact> 0.15319010E+01</totfact>
</mgrwt>
</event>
<event>
 8    1  0.7685004E-052  0.1290501E+04  0.7818608E-02  0.9037132E-01
          2   -1    0    0  501    0  0.00000000000E+00  0.00000000000E+00  0.10606532933E+04  0.10606532933E+04  0.25500000000E-02 0.  1.
         -2   -1    0    0    0  501 -0.00000000000E+00 -0.00000000000E+00 -0.39253911246E+03  0.39253911247E+03  0.25500000000E-02 0. -1.
     200001    2    1    2    0    0  0.17783121836E+02 -0.13458169879E+03  0.16498390013E+03  0.64861950514E+03  0.61242069044E+03 0.  0.
    5000001    2    3    3    0    0  0.16625300493E+02 -0.21604484226E+03  0.35301406873E+03  0.42015959926E+03  0.70451271399E+02 0.  0.
        -13    1    4    4    0    0  0.26009694036E+01  0.89536743716E+00  0.27150181270E+02  0.27289379467E+02  0.10566000000E+00 0. -1.
     200003    1    4    4    0    0  0.14024331089E+02 -0.21694020970E+03  0.32586388746E+03  0.39287021979E+03  0.30000000000E+02 0. -1.
     200000    1    3    3    0    0  0.11578213430E+01  0.81463143475E+02 -0.18803016860E+03  0.22845990589E+03  0.10100000000E+03 0. -1.
    -200001    1    1    2    0    0 -0.17783121836E+02  0.13458169879E+03  0.50313028072E+03  0.80457290064E+03  0.61300000000E+03 0.  1.
<mgrwt>
<rscale>  0 0.12905005E+04</rscale>
<asrwt>0</asrwt>
<pdfrwt beam="1">  1        2 0.15152190E+00 0.12905005E+04</pdfrwt>
<pdfrwt beam="2">  1       -2 0.56077017E-01 0.12905005E+04</pdfrwt>
<totfact> 0.75577595E+01</totfact>
</mgrwt>
</event>
<event>
 8    1  0.7685004E-052  0.1727939E+04  0.7818608E-02  0.8745588E-01
         -2   -1    0    0    0  501 -0.00000000000E+00  0.00000000000E+00  0.39722940858E+03  0.39722940859E+03  0.25500000000E-02 0. -1.
          2   -1    0    0  501    0  0.00000000000E+00 -0.00000000000E+00 -0.18791230356E+04  0.18791230356E+04  0.25500000000E-02 0.  1.
     200001    2    1    2    0    0  0.32334320292E+03  0.67741790052E+02 -0.14145629426E+04  0.15767509876E+04  0.61320109373E+03 0.  0.
    5000001    2    3    3    0    0  0.39219989033E+03  0.23297991021E+03 -0.74511664548E+03  0.87646231536E+03  0.69906954846E+02 0.  0.
        -13    1    4    4    0    0  0.30516036880E+03  0.19056632552E+03 -0.59544641683E+03  0.69569736350E+03  0.10566000000E+00 0. -1.
     200003    1    4    4    0    0  0.87039521526E+02  0.42413584686E+02 -0.14967022865E+03  0.18076495185E+03  0.30000000000E+02 0. -1.
     200000    1    3    3    0    0 -0.68856687410E+02 -0.16523812016E+03 -0.66944629716E+03  0.70028867229E+03  0.10100000000E+03 0.  1.
    -200001    1    1    2    0    0 -0.32334320292E+03 -0.67741790052E+02 -0.67330684422E+02  0.69960145659E+03  0.61300000000E+03 0. -1.
<mgrwt>
<rscale>  0 0.17279386E+04</rscale>
<asrwt>0</asrwt>
<pdfrwt beam="1">  1        2 0.26844614E+00 0.17279386E+04</pdfrwt>
<pdfrwt beam="2">  1       -2 0.56747060E-01 0.17279386E+04</pdfrwt>
<totfact> 0.25674509E+01</totfact>
</mgrwt>
</event>
<event>
 8    1  0.7685004E-052  0.1500572E+04  0.7818608E-02  0.8884073E-01
         -2   -1    0    0    0  501 -0.00000000000E+00  0.00000000000E+00  0.30531449442E+03  0.30531449443E+03  0.25500000000E-02 0. -1.
          2   -1    0    0  501    0  0.00000000000E+00 -0.00000000000E+00 -0.18437678266E+04  0.18437678266E+04  0.25500000000E-02 0.  1.
     200001    2    1    2    0    0  0.30329845868E+03 -0.31130963925E+03 -0.76583069783E+03  0.10712983067E+04  0.61014732452E+03 0.  0.
    5000001    2    3    3    0    0  0.46535832447E+03 -0.27781813353E+03 -0.63101952857E+03  0.83516247201E+03  0.74628571811E+02 0.  0.
        -13    1    4    4    0    0  0.55714545057E+02 -0.38210451786E+02 -0.48322247557E+02  0.83061422632E+02  0.10566000000E+00 0. -1.
     200003    1    4    4    0    0  0.40964377942E+03 -0.23960768174E+03 -0.58269728102E+03  0.75210104937E+03  0.30000000000E+02 0. -1.
     200000    1    3    3    0    0 -0.16205986580E+03 -0.33491505723E+02 -0.13481116925E+03  0.23613583466E+03  0.10100000000E+03 0. -1.
    -200001    1    1    2    0    0 -0.30329845868E+03  0.31130963925E+03 -0.77262263438E+03  0.10777840144E+04  0.61300000000E+03 0. -1.
<mgrwt>
<rscale>  0 0.15005719E+04</rscale>
<asrwt>0</asrwt>
<pdfrwt beam="1">  1        2 0.26339540E+00 0.15005719E+04</pdfrwt>
<pdfrwt beam="2">  1       -2 0.43616357E-01 0.15005719E+04</pdfrwt>
<totfact> 0.46579405E+01</totfact>
</mgrwt>
</event>
<event>
 8    1  0.7685004E-052  0.1375913E+04  0.7818608E-02  0.8971441E-01
         -2   -1    0    0    0  501 -0.00000000000E+00  0.00000000000E+00  0.14109944117E+04  0.14109944117E+04  0.25500000000E-02 0. -1.
          2   -1    0    0  501    0  0.00000000000E+00 -0.00000000000E+00 -0.33542594285E+03  0.33542594286E+03  0.25500000000E-02 0.  1.
     200001    2    1    2    0    0 -0.11875904806E+03 -0.42803479573E+02  0.90069026247E+03  0.10965840395E+04  0.61263182858E+03 0.  0.
    5000001    2    3    3    0    0 -0.34346956466E+03 -0.73041224594E+02  0.39625301344E+03  0.53438560859E+03  0.72423515969E+02 0.  0.
        -13    1    4    4    0    0 -0.23135070287E+03 -0.25402917753E+02  0.26845830283E+03  0.35530033418E+03  0.10566000000E+00 0. -1.
     200003    1    4    4    0    0 -0.11211886180E+03 -0.47638306841E+02  0.12779471061E+03  0.17908527441E+03  0.30000000000E+02 0. -1.
     200000    1    3    3    0    0  0.22471051660E+03  0.30237745021E+02  0.50443724903E+03  0.56219843090E+03  0.10100000000E+03 0. -1.
    -200001    1    1    2    0    0  0.11875904806E+03  0.42803479573E+02  0.17487820642E+03  0.64983631511E+03  0.61300000000E+03 0.  1.
<mgrwt>
<rscale>  0 0.13759130E+04</rscale>
<asrwt>0</asrwt>
<pdfrwt beam="1">  1        2 0.47917991E-01 0.13759130E+04</pdfrwt>
<pdfrwt beam="2">  1       -2 0.20157063E+00 0.13759130E+04</pdfrwt>
<totfact> 0.13345821E+01</totfact>
</mgrwt>
</event>
<event>
 8    1  0.7685004E-052  0.1558912E+04  0.7818608E-02  0.8846196E-01
          2   -1    0    0  501    0  0.00000000000E+00  0.00000000000E+00  0.72608650595E+03  0.72608650595E+03  0.25500000000E-02 0.  1.
         -2   -1    0    0    0  501 -0.00000000000E+00 -0.00000000000E+00 -0.83674786847E+03  0.83674786847E+03  0.25500000000E-02 0. -1.
     200001    2    1    2    0    0  0.31251664529E+03  0.29973887601E+03  0.15469759516E+03  0.76678511477E+03  0.61361064113E+03 0.  0.
    5000001    2    3    3    0    0  0.38458870486E+03  0.37833816872E+02  0.24245920605E+03  0.46397867144E+03  0.84556911934E+02 0.  0.
        -13    1    4    4    0    0  0.16066495205E+03  0.28534225496E+02  0.61559304340E+02  0.17440466724E+03  0.10566000000E+00 0. -1.
     200003    1    4    4    0    0  0.22392375281E+03  0.92995913758E+01  0.18089990171E+03  0.28957400420E+03  0.30000000000E+02 0. -1.
     200000    1    3    3    0    0 -0.72072059564E+02  0.26190505914E+03 -0.87761610890E+02  0.30280644333E+03  0.10100000000E+03 0.  1.
    -200001    1    1    2    0    0 -0.31251664529E+03 -0.29973887601E+03 -0.26535895767E+03  0.79604925965E+03  0.61300000000E+03 0. -1.
<mgrwt>
<rscale>  0 0.15589116E+04</rscale>
<asrwt>0</asrwt>
<pdfrwt beam="1">  1        2 0.10372664E+00 0.15589116E+04</pdfrwt>
<pdfrwt beam="2">  1       -2 0.11953541E+00 0.15589116E+04</pdfrwt>
<totfact> 0.22226078E+01</totfact>
</mgrwt>
</event>
<event>
 8    1  0.7685004E-052  0.2122335E+04  0.7818608E-02  0.8551468E-01
          2   -1    0    0  501    0  0.00000000000E+00  0.00000000000E+00  0.30288288474E+04  0.30288288474E+04  0.25500000000E-02 0.  1.
         -2   -1    0    0    0  501 -0.00000000000E+00 -0.00000000000E+00 -0.37178625055E+03  0.37178625056E+03  0.25500000000E-02 0. -1.
     200001    2    1    2    0    0 -0.84147439839E+03  0.51275189420E+02  0.10006788088E+04  0.14435718418E+04  0.60978133443E+03 0.  0.
    5000001    2    3    3    0    0 -0.84579255746E+03 -0.10132781082E+03  0.81020763996E+03  0.11794003287E+04  0.94426373050E+02 0.  0.
        -13    1    4    4    0    0 -0.16881880468E+03  0.22411824125E+00  0.12232267146E+03  0.20847706387E+03  0.10566000000E+00 0. -1.
     200003    1    4    4    0    0 -0.67697375278E+03 -0.10155192906E+03  0.68788496850E+03  0.97092326480E+03  0.30000000000E+02 0. -1.
     200000    1    3    3    0    0  0.43181590709E+01  0.15260300024E+03  0.19047116885E+03  0.26417151312E+03  0.10100000000E+03 0. -1.
    -200001    1    1    2    0    0  0.84147439839E+03 -0.51275189420E+02  0.16563637880E+04  0.19570432561E+04  0.61300000000E+03 0.  1.
<mgrwt>
<rscale>  0 0.21223354E+04</rscale>
<asrwt>0</asrwt>
<pdfrwt beam="1">  1        2 0.43268984E+00 0.21223354E+04</pdfrwt>
<pdfrwt beam="2">  1       -2 0.53112321E-01 0.21223354E+04</pdfrwt>
<totfact> 0.70193099E+00</totfact>
</mgrwt>
</event>
<event>
 8    1  0.7685004E-052  0.1949785E+04  0.7818608E-02  0.8630465E-01
         -2   -1    0    0    0  501 -0.00000000000E+00  0.00000000000E+00  0.47433229398E+03  0.47433229399E+03  0.25500000000E-02 0. -1.
          2   -1    0    0  501    0  0.00000000000E+00 -0.00000000000E+00 -0.20036906520E+04  0.20036906520E+04  0.25500000000E-02 0.  1.
     200001    2    1    2    0    0 -0.59147170526E+03  0.47449004302E+03 -0.76748511417E+03  0.12406065170E+04  0.61244718182E+03 0.  0.
    5000001    2    3    3    0    0  0.10909727089E+03  0.68935461342E+02 -0.63553364959E+02  0.16311298263E+03  0.76892799146E+02 0.  0.
        -13    1    4    4    0    0  0.80594571373E+02  0.53191267778E+02 -0.68743531994E+02  0.11853472174E+03  0.10566000000E+00 0. -1.
     200003    1    4    4    0    0  0.28502699516E+02  0.15744193564E+02  0.51901670348E+01  0.44578260896E+02  0.30000000000E+02 0.  1.
     200000    1    3    3    0    0 -0.70056897615E+03  0.40555458168E+03 -0.70393174921E+03  0.10774935344E+04  0.10100000000E+03 0.  1.
    -200001    1    1    2    0    0  0.59147170526E+03 -0.47449004302E+03 -0.76187324387E+03  0.12374164290E+04  0.61300000000E+03 0. -1.
<mgrwt>
<rscale>  0 0.19497848E+04</rscale>
<asrwt>0</asrwt>
<pdfrwt beam="1">  1        2 0.28624152E+00 0.19497848E+04</pdfrwt>
<pdfrwt beam="2">  1       -2 0.67761757E-01 0.19497848E+04</pdfrwt>
<totfact> 0.14919382E+01</totfact>
</mgrwt>
</event>
<event>
 8    1  0.7685004E-052  0.2125920E+04  0.7818608E-02  0.8549910E-01
          2   -1    0    0  501    0  0.00000000000E+00  0.00000000000E+00  0.20732999673E+04  0.20732999673E+04  0.25500000000E-02 0.  1.
         -2   -1    0    0    0  501 -0.00000000000E+00 -0.00000000000E+00 -0.54496905203E+03  0.54496905203E+03  0.25500000000E-02 0. -1.
     200001    2    1    2    0    0  0.44001761183E+02 -0.75119835308E+03  0.12982666217E+04  0.16208053860E+04  0.61259999797E+03 0.  0.
    5000001    2    3    3    0    0  0.12144172599E+03 -0.58387539019E+03  0.12413179940E+04  0.14030025663E+04  0.26811802406E+03 0.  0.
        -13    1    4    4    0    0  0.70603124798E+02 -0.19427577330E+03  0.19193670224E+03  0.28207726982E+03  0.10566000000E+00 0. -1.
     200003    1    4    4    0    0  0.50838601191E+02 -0.38959961690E+03  0.10493812917E+04  0.11209252965E+04  0.30000000000E+02 0. -1.
     200000    1    3    3    0    0 -0.77439964807E+02 -0.16732296289E+03  0.56948627755E+02  0.21780281969E+03  0.10100000000E+03 0. -1.
    -200001    1    1    2    0    0 -0.44001761183E+02  0.75119835308E+03  0.23006429354E+03  0.99746363333E+03  0.61300000000E+03 0. -1.
<mgrwt>
<rscale>  0 0.21259203E+04</rscale>
<asrwt>0</asrwt>
<pdfrwt beam="1">  1        2 0.29618571E+00 0.21259203E+04</pdfrwt>
<pdfrwt beam="2">  1       -2 0.77852722E-01 0.21259203E+04</pdfrwt>
<totfact> 0.99788471E+00</totfact>
</mgrwt>
</event>
<event>
 8    1  0.7685004E-052  0.1606963E+04  0.7818608E-02  0.8816281E-01
          2   -1    0    0  501    0  0.00000000000E+00  0.00000000000E+00  0.23280189591E+04  0.23280189591E+04  0.25500000000E-02 0.  1.
         -2   -1    0    0    0  501 -0.00000000000E+00 -0.00000000000E+00 -0.27730996973E+03  0.27730996974E+03  0.25500000000E-02 0. -1.
     200001    2    1    2    0    0  0.25317971581E+03 -0.21935277967E+03  0.16692963149E+04  0.18094267748E+04  0.61258424419E+03 0.  0.
    5000001    2    3    3    0    0 -0.40364757042E+02  0.58200824461E+02  0.14353523685E+02  0.10289784078E+03  0.73248156393E+02 0.  0.
        -13    1    4    4    0    0  0.12262258008E+02 -0.33618224314E+01 -0.61564915608E+01  0.14127221025E+02  0.10566000000E+00 0. -1.
     200003    1    4    4    0    0 -0.52627015050E+02  0.61562646892E+02  0.20510015246E+02  0.88770619750E+02  0.30000000000E+02 0. -1.
     200000    1    3    3    0    0  0.29354447285E+03 -0.27755360413E+03  0.16549427912E+04  0.17065289341E+04  0.10100000000E+03 0. -1.
    -200001    1    1    2    0    0 -0.25317971581E+03  0.21935277967E+03  0.38141267448E+03  0.79590215397E+03  0.61300000000E+03 0. -1.
<mgrwt>
<rscale>  0 0.16069634E+04</rscale>
<asrwt>0</asrwt>
<pdfrwt beam="1">  1        2 0.33257415E+00 0.16069634E+04</pdfrwt>
<pdfrwt beam="2">  1       -2 0.39615709E-01 0.16069634E+04</pdfrwt>
<totfact> 0.31421727E+01</totfact>
</mgrwt>
</event>
<event>
 8    1  0.7685004E-052  0.1575526E+04  0.7818608E-02  0.8835726E-01
          2   -1    0    0  501    0  0.00000000000E+00  0.00000000000E+00  0.17844420662E+04  0.17844420662E+04  0.25500000000E-02 0.  1.
         -2   -1    0    0    0  501 -0.00000000000E+00 -0.00000000000E+00 -0.34776726174E+03  0.34776726175E+03  0.25500000000E-02 0. -1.
     200001    2    1    2    0    0 -0.13861000806E+03 -0.32595709544E+03  0.11859806072E+04  0.13811585021E+04  0.61285238438E+03 0.  0.
    5000001    2    3    3    0    0 -0.11019461379E+03  0.94678270588E+02  0.72394918097E+02  0.18616242152E+03  0.91151495811E+02 0.  0.
        -13    1    4    4    0    0 -0.82953025960E+02  0.10030079668E+03  0.60667417909E+02  0.14360362492E+03  0.10566000000E+00 0. -1.
     200003    1    4    4    0    0 -0.27241587834E+02 -0.56225260894E+01  0.11727500188E+02  0.42558796599E+02  0.30000000000E+02 0. -1.
     200000    1    3    3    0    0 -0.28415394265E+02 -0.42063536603E+03  0.11135856891E+04  0.11949960806E+04  0.10100000000E+03 0.  1.
    -200001    1    1    2    0    0  0.13861000806E+03  0.32595709544E+03  0.25069419728E+03  0.75105082581E+03  0.61300000000E+03 0. -1.
<mgrwt>
<rscale>  0 0.15755260E+04</rscale>
<asrwt>0</asrwt>
<pdfrwt beam="1">  1        2 0.25492030E+00 0.15755260E+04</pdfrwt>
<pdfrwt beam="2">  1       -2 0.49681037E-01 0.15755260E+04</pdfrwt>
<totfact> 0.38252412E+01</totfact>
</mgrwt>
</event>
<event>
 8    1  0.7685004E-052  0.1237657E+04  0.7818608E-02  0.9080519E-01
         -2   -1    0    0    0  501 -0.00000000000E+00  0.00000000000E+00  0.13612183820E+03  0.13612183822E+03  0.25500000000E-02 0. -1.
          2   -1    0    0  501    0  0.00000000000E+00 -0.00000000000E+00 -0.28132796356E+04  0.28132796356E+04  0.25500000000E-02 0.  1.
     200001    2    1    2    0    0 -0.31517620700E+02 -0.77905524562E+02 -0.13887048522E+04  0.15200860351E+04  0.61245224842E+03 0.  0.
    5000001    2    3    3    0    0 -0.21186255568E+03  0.83073312471E+02 -0.11156620517E+04  0.11416790420E+04  0.83320487794E+02 0.  0.
        -13    1    4    4    0    0 -0.52773052990E+01  0.14464598121E+02 -0.17573936860E+03  0.17641261687E+03  0.10566000000E+00 0. -1.
     200003    1    4    4    0    0 -0.20658525038E+03  0.68608714350E+02 -0.93992268305E+03  0.96526642513E+03  0.30000000000E+02 0. -1.
     200000    1    3    3    0    0  0.18034493498E+03 -0.16097883703E+03 -0.27304280053E+03  0.37840699315E+03  0.10100000000E+03 0.  1.
    -200001    1    1    2    0    0  0.31517620700E+02  0.77905524562E+02 -0.12884529452E+04  0.14293154386E+04  0.61300000000E+03 0.  1.
<mgrwt>
<rscale>  0 0.12376571E+04</rscale>
<asrwt>0</asrwt>
<pdfrwt beam="1">  1        2 0.40189706E+00 0.12376571E+04</pdfrwt>
<pdfrwt beam="2">  1       -2 0.19445979E-01 0.12376571E+04</pdfrwt>
<totfact> 0.66675560E+01</totfact>
</mgrwt>
</event>
<event>
 8    1  0.7685004E-052  0.1796223E+04  0.7818608E-02  0.8708311E-01
         -2   -1    0    0    0  501 -0.00000000000E+00  0.00000000000E+00  0.22760237984E+03  0.22760237985E+03  0.25500000000E-02 0. -1.
          2   -1    0    0  501    0  0.00000000000E+00 -0.00000000000E+00 -0.35439169998E+04  0.35439169998E+04  0.25500000000E-02 0.  1.
     200001    2    1    2    0    0 -0.40201077504E+03 -0.25971393554E+03 -0.71553288292E+03  0.10569478416E+04  0.61325968540E+03 0.  0.
    5000001    2    3    3    0    0 -0.41235780721E+03 -0.11826635721E+03 -0.14307366916E+03  0.45859591344E+03  0.76251194115E+02 0.  0.
        -13    1    4    4    0    0 -0.92151020861E+02 -0.16001439048E+01 -0.45812612837E+02  0.10292316438E+03  0.10566000000E+00 0. -1.
     200003    1    4    4    0    0 -0.32020678635E+03 -0.11666621330E+03 -0.97261056322E+02  0.35567274907E+03  0.30000000000E+02 0. -1.
     200000    1    3    3    0    0  0.10347032177E+02 -0.14144757833E+03 -0.57245921376E+03  0.59835192814E+03  0.10100000000E+03 0.  1.
    -200001    1    1    2    0    0  0.40201077504E+03  0.25971393554E+03 -0.26007817371E+04  0.27145715381E+04  0.61300000000E+03 0.  1.
<mgrwt>
<rscale>  0 0.17962226E+04</rscale>
<asrwt>0</asrwt>
<pdfrwt beam="1">  1        2 0.50627383E+00 0.17962226E+04</pdfrwt>
<pdfrwt beam="2">  1       -2 0.32514628E-01 0.17962226E+04</pdfrwt>
<totfact> 0.94816550E+00</totfact>
</mgrwt>
</event>
<event>
 8    1  0.7685004E-052  0.1291155E+04  0.7818608E-02  0.9036609E-01
         -2   -1    0    0    0  501 -0.00000000000E+00  0.00000000000E+00  0.36156943246E+03  0.36156943247E+03  0.25500000000E-02 0. -1.
          2   -1    0    0  501    0  0.00000000000E+00 -0.00000000000E+00 -0.11526708398E+04  0.11526708398E+04  0.25500000000E-02 0.  1.
     200001    2    1    2    0    0 -0.13426135582E+03 -0.10188441102E+03 -0.26428767847E+03  0.68858401826E+03  0.61310148290E+03 0.  0.
    5000001    2    3    3    0    0 -0.13368667386E+03 -0.19343448919E+03 -0.41177052034E+03  0.48775091411E+03  0.11426707495E+03 0.  0.
        -13    1    4    4    0    0 -0.57577515050E+02 -0.21627353916E+02 -0.16528827130E+03  0.17636081331E+03  0.10566000000E+00 0. -1.
     200003    1    4    4    0    0 -0.76109158811E+02 -0.17180713528E+03 -0.24648224904E+03  0.31139010081E+03  0.30000000000E+02 0. -1.
     200000    1    3    3    0    0 -0.57468196289E+00  0.91550078174E+02  0.14748284187E+03  0.20083310414E+03  0.10100000000E+03 0. -1.
    -200001    1    1    2    0    0  0.13426135582E+03  0.10188441102E+03 -0.52681372888E+03  0.82565625402E+03  0.61300000000E+03 0.  1.
<mgrwt>
<rscale>  0 0.12911554E+04</rscale>
<asrwt>0</asrwt>
<pdfrwt beam="1">  1        2 0.16466726E+00 0.12911554E+04</pdfrwt>
<pdfrwt beam="2">  1       -2 0.51652777E-01 0.12911554E+04</pdfrwt>
<totfact> 0.79044338E+01</totfact>
</mgrwt>
</event>
<event>
 8    1  0.7685004E-052  0.1520378E+04  0.7818608E-02  0.8871014E-01
          2   -1    0    0  501    0  0.00000000000E+00  0.00000000000E+00  0.11712131349E+04  0.11712131349E+04  0.25500000000E-02 0.  1.
         -2   -1    0    0    0  501 -0.00000000000E+00 -0.00000000000E+00 -0.49340931802E+03  0.49340931802E+03  0.25500000000E-02 0. -1.
     200001    2    1    2    0    0  0.17075691215E+03  0.24234988668E+03 -0.31613089053E+02  0.68129507253E+03  0.61259464399E+03 0.  0.
    5000001    2    3    3    0    0  0.91716454395E+02  0.28958761031E+03 -0.25368354546E+03  0.42053640229E+03  0.14220630212E+03 0.  0.
        -13    1    4    4    0    0  0.46059081808E+02  0.77289066569E+02 -0.65838939428E+01  0.90213068076E+02  0.10566000000E+00 0. -1.
     200003    1    4    4    0    0  0.45657372587E+02  0.21229854374E+03 -0.24709965152E+03  0.33032333422E+03  0.30000000000E+02 0. -1.
     200000    1    3    3    0    0  0.79040457752E+02 -0.47237723637E+02  0.22207045641E+03  0.26075867024E+03  0.10100000000E+03 0.  1.
    -200001    1    1    2    0    0 -0.17075691215E+03 -0.24234988668E+03  0.70941690596E+03  0.98332738042E+03  0.61300000000E+03 0.  1.
<mgrwt>
<rscale>  0 0.15203782E+04</rscale>
<asrwt>0</asrwt>
<pdfrwt beam="1">  1        2 0.16731616E+00 0.15203782E+04</pdfrwt>
<pdfrwt beam="2">  1       -2 0.70487046E-01 0.15203782E+04</pdfrwt>
<totfact> 0.39288191E+01</totfact>
</mgrwt>
</event>
<event>
 8    1  0.7685004E-052  0.1294068E+04  0.7818608E-02  0.9034282E-01
          2   -1    0    0  501    0  0.00000000000E+00  0.00000000000E+00  0.10183621546E+04  0.10183621546E+04  0.25500000000E-02 0.  1.
         -2   -1    0    0    0  501 -0.00000000000E+00 -0.00000000000E+00 -0.41110432511E+03  0.41110432512E+03  0.25500000000E-02 0. -1.
     200001    2    1    2    0    0  0.89600982875E+02 -0.17477405062E+03  0.23226876903E+03  0.68451003780E+03  0.61321358911E+03 0.  0.
    5000001    2    3    3    0    0  0.19805993732E+03 -0.34586148442E+03  0.14247061975E+03  0.44099625498E+03  0.12382210721E+03 0.  0.
        -13    1    4    4    0    0  0.20026597259E+03 -0.32087244433E+03  0.12873006143E+03  0.39954602386E+03  0.10566000000E+00 0. -1.
     200003    1    4    4    0    0 -0.22060352657E+01 -0.24989040094E+02  0.13740558322E+02  0.41450231114E+02  0.30000000000E+02 0.  1.
     200000    1    3    3    0    0 -0.10845895445E+03  0.17108743381E+03  0.89798149286E+02  0.24351378282E+03  0.10100000000E+03 0. -1.
    -200001    1    1    2    0    0 -0.89600982875E+02  0.17477405062E+03  0.37498906046E+03  0.74495644192E+03  0.61300000000E+03 0.  1.
<mgrwt>
<rscale>  0 0.12940681E+04</rscale>
<asrwt>0</asrwt>
<pdfrwt beam="1">  1        2 0.14548031E+00 0.12940681E+04</pdfrwt>
<pdfrwt beam="2">  1       -2 0.58729190E-01 0.12940681E+04</pdfrwt>
<totfact> 0.72768190E+01</totfact>
</mgrwt>
</event>
<event>
 8    1  0.7685004E-052  0.1497594E+04  0.7818608E-02  0.8886054E-01
          2   -1    0    0  501    0  0.00000000000E+00  0.00000000000E+00  0.15375890493E+04  0.15375890493E+04  0.25500000000E-02 0.  1.
         -2   -1    0    0    0  501 -0.00000000000E+00 -0.00000000000E+00 -0.36466001029E+03  0.36466001030E+03  0.25500000000E-02 0. -1.
     200001    2    1    2    0    0 -0.21942970574E+03  0.21418231424E+03  0.20520204521E+03  0.71637891746E+03  0.61405815240E+03 0.  0.
    5000001    2    3    3    0    0  0.11733376834E+02  0.19248716701E+02  0.35462719011E+03  0.36429320045E+03  0.80255259661E+02 0.  0.
        -13    1    4    4    0    0  0.38370142709E+02  0.14676942734E+02  0.21745330399E+03  0.22129986687E+03  0.10566000000E+00 0. -1.
     200003    1    4    4    0    0 -0.26636765875E+02  0.45717739666E+01  0.13717388612E+03  0.14299333358E+03  0.30000000000E+02 0. -1.
     200000    1    3    3    0    0 -0.23116308257E+03  0.19493359754E+03 -0.14942514489E+03  0.35208571701E+03  0.10100000000E+03 0. -1.
    -200001    1    1    2    0    0  0.21942970574E+03 -0.21418231424E+03  0.96772699381E+03  0.11858701421E+04  0.61300000000E+03 0.  1.
<mgrwt>
<rscale>  0 0.14975944E+04</rscale>
<asrwt>0</asrwt>
<pdfrwt beam="1">  1        2 0.21965557E+00 0.14975944E+04</pdfrwt>
<pdfrwt beam="2">  1       -2 0.52094288E-01 0.14975944E+04</pdfrwt>
<totfact> 0.46994111E+01</totfact>
</mgrwt>
</event>
<event>
 8    1  0.7685004E-052  0.1488846E+04  0.7818608E-02  0.8891904E-01
          2   -1    0    0  501    0  0.00000000000E+00  0.00000000000E+00  0.16775023260E+04  0.16775023260E+04  0.25500000000E-02 0.  1.
         -2   -1    0    0    0  501 -0.00000000000E+00 -0.00000000000E+00 -0.33035170618E+03  0.33035170619E+03  0.25500000000E-02 0. -1.
     200001    2    1    2    0    0  0.13353209888E+01 -0.96838191222E+02  0.11858478519E+03  0.63143751514E+03  0.61259412818E+03 0.  0.
    5000001    2    3    3    0    0 -0.50041802901E+02  0.13168162699E+03  0.27692021637E+03  0.33121755421E+03  0.11478688539E+03 0.  0.
        -13    1    4    4    0    0 -0.28351799513E+02 -0.58932479640E+01  0.99763175688E+02  0.10388097658E+03  0.10566000000E+00 0. -1.
     200003    1    4    4    0    0 -0.21690003388E+02  0.13757487495E+03  0.17715704068E+03  0.22733657763E+03  0.30000000000E+02 0. -1.
     200000    1    3    3    0    0  0.51377123890E+02 -0.22851981821E+03 -0.15833543118E+03  0.30021996093E+03  0.10100000000E+03 0. -1.
    -200001    1    1    2    0    0 -0.13353209888E+01  0.96838191222E+02  0.12285658346E+04  0.13764165170E+04  0.61300000000E+03 0.  1.
<mgrwt>
<rscale>  0 0.14888462E+04</rscale>
<asrwt>0</asrwt>
<pdfrwt beam="1">  1        2 0.23964319E+00 0.14888462E+04</pdfrwt>
<pdfrwt beam="2">  1       -2 0.47193101E-01 0.14888462E+04</pdfrwt>
<totfact> 0.48552854E+01</totfact>
</mgrwt>
</event>
<event>
 8    1  0.7685004E-052  0.1500413E+04  0.7818608E-02  0.8884178E-01
         -2   -1    0    0    0  501 -0.00000000000E+00  0.00000000000E+00  0.44115580063E+03  0.44115580064E+03  0.25500000000E-02 0. -1.
          2   -1    0    0  501    0  0.00000000000E+00 -0.00000000000E+00 -0.12757620437E+04  0.12757620437E+04  0.25500000000E-02 0.  1.
     200001    2    1    2    0    0  0.35243967772E+03 -0.87094153897E+02 -0.14791052113E+03  0.72741335593E+03  0.61274264585E+03 0.  0.
    5000001    2    3    3    0    0  0.35426403264E+03 -0.11379449275E+03 -0.33965464841E+03  0.50904887458E+03  0.72892284351E+02 0.  0.
        -13    1    4    4    0    0  0.66986205395E+02 -0.22084924985E+01 -0.39464072398E+02  0.77778231701E+02  0.10566000000E+00 0. -1.
     200003    1    4    4    0    0  0.28727782725E+03 -0.11158600026E+03 -0.30019057601E+03  0.43127064288E+03  0.30000000000E+02 0. -1.
     200000    1    3    3    0    0 -0.18243549177E+01  0.26700338857E+02  0.19174412729E+03  0.21836448135E+03  0.10100000000E+03 0. -1.
    -200001    1    1    2    0    0 -0.35243967772E+03  0.87094153897E+02 -0.68669572198E+03  0.98950448845E+03  0.61300000000E+03 0.  1.
<mgrwt>
<rscale>  0 0.15004130E+04</rscale>
<asrwt>0</asrwt>
<pdfrwt beam="1">  1        2 0.18225172E+00 0.15004130E+04</pdfrwt>
<pdfrwt beam="2">  1       -2 0.63022258E-01 0.15004130E+04</pdfrwt>
<totfact> 0.43720178E+01</totfact>
</mgrwt>
</event>
<event>
 8    1  0.7685004E-052  0.1286609E+04  0.7818608E-02  0.9040252E-01
          2   -1    0    0  501    0  0.00000000000E+00  0.00000000000E+00  0.19635056310E+04  0.19635056310E+04  0.25500000000E-02 0.  1.
         -2   -1    0    0    0  501 -0.00000000000E+00 -0.00000000000E+00 -0.21076638717E+03  0.21076638718E+03  0.25500000000E-02 0. -1.
     200001    2    1    2    0    0  0.44685431077E+02  0.23227330624E+02  0.11946810060E+04  0.13437695839E+04  0.61312126997E+03 0.  0.
    5000001    2    3    3    0    0 -0.93457498406E+02  0.32712784942E+01  0.11612114405E+04  0.11682619635E+04  0.87629907419E+02 0.  0.
        -13    1    4    4    0    0 -0.46827875712E+02  0.25667892481E+02  0.28150004491E+03  0.28652046541E+03  0.10566000000E+00 0. -1.
     200003    1    4    4    0    0 -0.46629622694E+02 -0.22396613987E+02  0.87971139554E+03  0.88174149810E+03  0.30000000000E+02 0. -1.
     200000    1    3    3    0    0  0.13814292948E+03  0.19956052130E+02  0.33469565589E+02  0.17550762036E+03  0.10100000000E+03 0. -1.
    -200001    1    1    2    0    0 -0.44685431077E+02 -0.23227330624E+02  0.55805823778E+03  0.83050243431E+03  0.61300000000E+03 0. -1.
<mgrwt>
<rscale>  0 0.12866095E+04</rscale>
<asrwt>0</asrwt>
<pdfrwt beam="1">  1        2 0.28050081E+00 0.12866095E+04</pdfrwt>
<pdfrwt beam="2">  1       -2 0.30109484E-01 0.12866095E+04</pdfrwt>
<totfact> 0.83758953E+01</totfact>
</mgrwt>
</event>
<event>
 8    1  0.7685004E-052  0.1763780E+04  0.7818608E-02  0.8725802E-01
         -2   -1    0    0    0  501 -0.00000000000E+00  0.00000000000E+00  0.67016734133E+03  0.67016734134E+03  0.25500000000E-02 0. -1.
          2   -1    0    0  501    0  0.00000000000E+00 -0.00000000000E+00 -0.11605006798E+04  0.11605006798E+04  0.25500000000E-02 0.  1.
     200001    2    1    2    0    0 -0.46686518775E+03 -0.36125136735E+03  0.30320012141E+00  0.84834482231E+03  0.60928088075E+03 0.  0.
    5000001    2    3    3    0    0 -0.38175342208E+03  0.53493117975E+02 -0.83939591968E+02  0.40499975491E+03  0.91551938460E+02 0.  0.
        -13    1    4    4    0    0 -0.21095899360E+03 -0.22106275711E+01 -0.19790537774E+02  0.21189681546E+03  0.10566000000E+00 0. -1.
     200003    1    4    4    0    0 -0.17079442848E+03  0.55703745546E+02 -0.64149054194E+02  0.19310293945E+03  0.30000000000E+02 0.  1.
     200000    1    3    3    0    0 -0.85111765671E+02 -0.41474448533E+03  0.84242792089E+02  0.44334506740E+03  0.10100000000E+03 0. -1.
    -200001    1    1    2    0    0  0.46686518775E+03  0.36125136735E+03 -0.49063653857E+03  0.98232319882E+03  0.61300000000E+03 0.  1.
<mgrwt>
<rscale>  0 0.17637796E+04</rscale>
<asrwt>0</asrwt>
<pdfrwt beam="1">  1        2 0.16578581E+00 0.17637796E+04</pdfrwt>
<pdfrwt beam="2">  1       -2 0.95738192E-01 0.17637796E+04</pdfrwt>
<totfact> 0.19575398E+01</totfact>
</mgrwt>
</event>
<event>
 8    1  0.7685004E-052  0.1377534E+04  0.7818608E-02  0.8970243E-01
         -2   -1    0    0    0  501 -0.00000000000E+00  0.00000000000E+00  0.34539152972E+03  0.34539152973E+03  0.25500000000E-02 0. -1.
          2   -1    0    0  501    0  0.00000000000E+00 -0.00000000000E+00 -0.13735145400E+04  0.13735145400E+04  0.25500000000E-02 0.  1.
     200001    2    1    2    0    0  0.31301496268E+01 -0.28325971827E+03 -0.34146021647E+03  0.75582733035E+03  0.61191013069E+03 0.  0.
    5000001    2    3    3    0    0  0.21547798399E+03 -0.33762904444E+03 -0.15401377128E+03  0.45023806974E+03  0.13627158346E+03 0.  0.
        -13    1    4    4    0    0  0.20883752175E+02 -0.68383696659E+02  0.19688894993E+02  0.74162826428E+02  0.10566000000E+00 0. -1.
     200003    1    4    4    0    0  0.19459423182E+03 -0.26924534778E+03 -0.17370266627E+03  0.37607524331E+03  0.30000000000E+02 0. -1.
     200000    1    3    3    0    0 -0.21234783437E+03  0.54369326175E+02 -0.18744644519E+03  0.30558926061E+03  0.10100000000E+03 0.  1.
    -200001    1    1    2    0    0 -0.31301496268E+01  0.28325971827E+03 -0.68666279378E+03  0.96307873935E+03  0.61300000000E+03 0.  1.
<mgrwt>
<rscale>  0 0.13775344E+04</rscale>
<asrwt>0</asrwt>
<pdfrwt beam="1">  1        2 0.19621636E+00 0.13775344E+04</pdfrwt>
<pdfrwt beam="2">  1       -2 0.49341648E-01 0.13775344E+04</pdfrwt>
<totfact> 0.64871223E+01</totfact>
</mgrwt>
</event>
<event>
 8    1  0.7685004E-052  0.1434983E+04  0.7818608E-02  0.8928879E-01
         -2   -1    0    0    0  501 -0.00000000000E+00  0.00000000000E+00  0.63583766022E+03  0.63583766023E+03  0.25500000000E-02 0. -1.
          2   -1    0    0  501    0  0.00000000000E+00 -0.00000000000E+00 -0.80963072269E+03  0.80963072269E+03  0.25500000000E-02 0.  1.
     200001    2    1    2    0    0 -0.12972006742E+02  0.33563241221E+03 -0.24984938264E+03  0.74235320535E+03  0.61306294816E+03 0.  0.
    5000001    2    3    3    0    0 -0.11400710381E+03  0.33422037985E+03 -0.39807957110E+03  0.53648122220E+03  0.68145981693E+02 0.  0.
        -13    1    4    4    0    0 -0.13527833838E+02  0.54984320951E+01 -0.16218750191E+02  0.21824162427E+02  0.10566000000E+00 0. -1.
     200003    1    4    4    0    0 -0.10047926997E+03  0.32872194776E+03 -0.38186082091E+03  0.51465705978E+03  0.30000000000E+02 0. -1.
     200000    1    3    3    0    0  0.10103509706E+03  0.14120323577E+01  0.14823018846E+03  0.20587198315E+03  0.10100000000E+03 0. -1.
    -200001    1    1    2    0    0  0.12972006742E+02 -0.33563241221E+03  0.76056320170E+02  0.70311517757E+03  0.61300000000E+03 0. -1.
<mgrwt>
<rscale>  0 0.14349825E+04</rscale>
<asrwt>0</asrwt>
<pdfrwt beam="1">  1        2 0.11566153E+00 0.14349825E+04</pdfrwt>
<pdfrwt beam="2">  1       -2 0.90833952E-01 0.14349825E+04</pdfrwt>
<totfact> 0.37662921E+01</totfact>
</mgrwt>
</event>
<event>
 8    1  0.7685004E-052  0.1306901E+04  0.7818608E-02  0.9024111E-01
         -2   -1    0    0    0  501 -0.00000000000E+00  0.00000000000E+00  0.52523945339E+03  0.52523945340E+03  0.25500000000E-02 0. -1.
          2   -1    0    0  501    0  0.00000000000E+00 -0.00000000000E+00 -0.81295764655E+03  0.81295764655E+03  0.25500000000E-02 0.  1.
     200001    2    1    2    0    0 -0.72655903252E+02 -0.39154213606E+01  0.77032275389E+02  0.62118516483E+03  0.61208073549E+03 0.  0.
    5000001    2    3    3    0    0 -0.23798586067E+03  0.21626620341E+02  0.13575074165E+03  0.41713799138E+03  0.31380066828E+03 0.  0.
        -13    1    4    4    0    0 -0.16376393853E+03  0.90094581060E+02  0.21531562411E+03  0.28512539391E+03  0.10566000000E+00 0. -1.
     200003    1    4    4    0    0 -0.74221922139E+02 -0.68467960720E+02 -0.79564882463E+02  0.13201259748E+03  0.30000000000E+02 0. -1.
     200000    1    3    3    0    0  0.16532995741E+03 -0.25542041701E+02 -0.58718466261E+02  0.20404717345E+03  0.10100000000E+03 0. -1.
    -200001    1    1    2    0    0  0.72655903252E+02  0.39154213606E+01 -0.36475046855E+03  0.71701193512E+03  0.61300000000E+03 0.  1.
<mgrwt>
<rscale>  0 0.13069008E+04</rscale>
<asrwt>0</asrwt>
<pdfrwt beam="1">  1        2 0.11613681E+00 0.13069008E+04</pdfrwt>
<pdfrwt beam="2">  1       -2 0.75034208E-01 0.13069008E+04</pdfrwt>
<totfact> 0.58265399E+01</totfact>
</mgrwt>
</event>
<event>
 8    1  0.7685004E-052  0.1425976E+04  0.7818608E-02  0.8935227E-01
          2   -1    0    0  501    0  0.00000000000E+00  0.00000000000E+00  0.51307145347E+03  0.51307145348E+03  0.25500000000E-02 0.  1.
         -2   -1    0    0    0  501 -0.00000000000E+00 -0.00000000000E+00 -0.99080172231E+03  0.99080172231E+03  0.25500000000E-02 0. -1.
     200001    2    1    2    0    0 -0.13041107465E+03  0.85108158923E+02  0.11199546863E+03  0.63912125036E+03  0.60965772410E+03 0.  0.
    5000001    2    3    3    0    0  0.47093882663E+02  0.22042169868E+03  0.71484642315E+01  0.37264112306E+03  0.29665931137E+03 0.  0.
        -13    1    4    4    0    0 -0.13888498298E+02 -0.38610061125E+02  0.84465295677E+02  0.93904337189E+02  0.10566000000E+00 0. -1.
     200003    1    4    4    0    0  0.60982380960E+02  0.25903175980E+03 -0.77316831446E+02  0.27873678587E+03  0.30000000000E+02 0. -1.
     200000    1    3    3    0    0 -0.17750495731E+03 -0.13531353975E+03  0.10484700440E+03  0.26648012730E+03  0.10100000000E+03 0.  1.
    -200001    1    1    2    0    0  0.13041107465E+03 -0.85108158923E+02 -0.58972573747E+03  0.86475192543E+03  0.61300000000E+03 0. -1.
<mgrwt>
<rscale>  0 0.14259763E+04</rscale>
<asrwt>0</asrwt>
<pdfrwt beam="1">  1        2 0.73295922E-01 0.14259763E+04</pdfrwt>
<pdfrwt beam="2">  1       -2 0.14154310E+00 0.14259763E+04</pdfrwt>
<totfact> 0.22125420E+01</totfact>
</mgrwt>
</event>
<event>
 8    1  0.7685004E-052  0.1249510E+04  0.7818608E-02  0.9070591E-01
          2   -1    0    0  501    0  0.00000000000E+00  0.00000000000E+00  0.28221081223E+04  0.28221081223E+04  0.25500000000E-02 0.  1.
         -2   -1    0    0    0  501 -0.00000000000E+00 -0.00000000000E+00 -0.13830752838E+03  0.13830752840E+03  0.25500000000E-02 0. -1.
     200001    2    1    2    0    0  0.14149954260E+02 -0.11274420395E+03  0.14475712570E+04  0.15758783813E+04  0.61238766480E+03 0.  0.
    5000001    2    3    3    0    0  0.27037410954E+03  0.57107755490E+02  0.74320557727E+03  0.80074451120E+03  0.11168611057E+03 0.  0.
        -13    1    4    4    0    0  0.15594516768E+03 -0.19132203376E+02  0.40685912566E+03  0.43614137138E+03  0.10566000000E+00 0. -1.
     200003    1    4    4    0    0  0.11442894185E+03  0.76239958865E+02  0.33634645161E+03  0.36460313983E+03  0.30000000000E+02 0. -1.
     200000    1    3    3    0    0 -0.25622415528E+03 -0.16985195944E+03  0.70436567971E+03  0.77513387014E+03  0.10100000000E+03 0. -1.
    -200001    1    1    2    0    0 -0.14149954260E+02  0.11274420395E+03  0.12362293369E+04  0.13845372694E+04  0.61300000000E+03 0. -1.
<mgrwt>
<rscale>  0 0.12495100E+04</rscale>
<asrwt>0</asrwt>
<pdfrwt beam="1">  1        2 0.40315823E+00 0.12495100E+04</pdfrwt>
<pdfrwt beam="2">  1       -2 0.19758222E-01 0.12495100E+04</pdfrwt>
<totfact> 0.64062352E+01</totfact>
</mgrwt>
</event>
<event>
 8    1  0.7685004E-052  0.1690218E+04  0.7818608E-02  0.8766963E-01
          2   -1    0    0  501    0  0.00000000000E+00  0.00000000000E+00  0.24424621312E+04  0.24424621312E+04  0.25500000000E-02 0.  1.
         -2   -1    0    0    0  501 -0.00000000000E+00 -0.00000000000E+00 -0.29241370204E+03  0.29241370205E+03  0.25500000000E-02 0. -1.
     200001    2    1    2    0    0  0.33054122502E+02  0.56781518066E+03  0.12731076882E+04  0.15231412429E+04  0.61290244374E+03 0.  0.
    5000001    2    3    3    0    0 -0.27399723233E+03  0.20239248443E+03  0.56267479224E+03  0.66132329162E+03  0.68617586131E+02 0.  0.
        -13    1    4    4    0    0 -0.18776357913E+03  0.13281691411E+03  0.33504436716E+03  0.40638680276E+03  0.10566000000E+00 0. -1.
     200003    1    4    4    0    0 -0.86233653204E+02  0.69575570316E+02  0.22763042508E+03  0.25493648886E+03  0.30000000000E+02 0. -1.
     200000    1    3    3    0    0  0.30705135484E+03  0.36542269624E+03  0.71043289596E+03  0.86181795125E+03  0.10100000000E+03 0. -1.
    -200001    1    1    2    0    0 -0.33054122502E+02 -0.56781518066E+03  0.87694074096E+03  0.12117345904E+04  0.61300000000E+03 0.  1.
<mgrwt>
<rscale>  0 0.16902182E+04</rscale>
<asrwt>0</asrwt>
<pdfrwt beam="1">  1        2 0.34892315E+00 0.16902182E+04</pdfrwt>
<pdfrwt beam="2">  1       -2 0.41773388E-01 0.16902182E+04</pdfrwt>
<totfact> 0.24514641E+01</totfact>
</mgrwt>
</event>
<event>
 8    1  0.7685004E-052  0.1385746E+04  0.7818608E-02  0.8964202E-01
         -2   -1    0    0    0  501 -0.00000000000E+00  0.00000000000E+00  0.13639577216E+04  0.13639577216E+04  0.25500000000E-02 0. -1.
          2   -1    0    0  501    0  0.00000000000E+00 -0.00000000000E+00 -0.35197046779E+03  0.35197046779E+03  0.25500000000E-02 0.  1.
     200001    2    1    2    0    0  0.13768754328E+02  0.27784116728E+03  0.30343847021E+03  0.73858706596E+03  0.61322969266E+03 0.  0.
    5000001    2    3    3    0    0 -0.49908115370E+01  0.22431734066E+03  0.44099977297E+03  0.55875149287E+03  0.25957514038E+03 0.  0.
        -13    1    4    4    0    0 -0.32247219386E+02  0.16826458053E+03  0.76298387546E+02  0.18754814669E+03  0.10566000000E+00 0. -1.
     200003    1    4    4    0    0  0.27256407849E+02  0.56052760126E+02  0.36470138543E+03  0.37120334618E+03  0.30000000000E+02 0. -1.
     200000    1    3    3    0    0  0.18759565865E+02  0.53523826625E+02 -0.13756130277E+03  0.17983557308E+03  0.10100000000E+03 0.  1.
    -200001    1    1    2    0    0 -0.13768754328E+02 -0.27784116728E+03  0.70854878363E+03  0.97734112347E+03  0.61300000000E+03 0.  1.
<mgrwt>
<rscale>  0 0.13857458E+04</rscale>
<asrwt>0</asrwt>
<pdfrwt beam="1">  1        2 0.50281494E-01 0.13857458E+04</pdfrwt>
<pdfrwt beam="2">  1       -2 0.19485111E+00 0.13857458E+04</pdfrwt>
<totfact> 0.13995976E+01</totfact>
</mgrwt>
</event>
<event>
 8    1  0.7685004E-052  0.1513262E+04  0.7818608E-02  0.8875681E-01
         -2   -1    0    0    0  501 -0.00000000000E+00  0.00000000000E+00  0.24953072825E+03  0.24953072826E+03  0.25500000000E-02 0. -1.
          2   -1    0    0  501    0  0.00000000000E+00 -0.00000000000E+00 -0.22942689537E+04  0.22942689537E+04  0.25500000000E-02 0.  1.
     200001    2    1    2    0    0 -0.21371115890E+03 -0.22975122130E+02 -0.16746501454E+04  0.17961804589E+04  0.61287096179E+03 0.  0.
    5000001    2    3    3    0    0 -0.34130919260E+03 -0.46948109461E+02 -0.56366811753E+03  0.67308739573E+03  0.12895272633E+03 0.  0.
        -13    1    4    4    0    0 -0.25060375023E+03 -0.92163366949E+01 -0.30555441811E+03  0.39528558547E+03  0.10566000000E+00 0. -1.
     200003    1    4    4    0    0 -0.90705442371E+02 -0.37731772766E+02 -0.25811369942E+03  0.27780181025E+03  0.30000000000E+02 0. -1.
     200000    1    3    3    0    0  0.12759803370E+03  0.23972987332E+02 -0.11109820278E+04  0.11230930632E+04  0.10100000000E+03 0.  1.
    -200001    1    1    2    0    0  0.21371115890E+03  0.22975122130E+02 -0.37008808005E+03  0.74761922305E+03  0.61300000000E+03 0. -1.
<mgrwt>
<rscale>  0 0.15132622E+04</rscale>
<asrwt>0</asrwt>
<pdfrwt beam="1">  1        2 0.32775270E+00 0.15132622E+04</pdfrwt>
<pdfrwt beam="2">  1       -2 0.35647248E-01 0.15132622E+04</pdfrwt>
<totfact> 0.40425401E+01</totfact>
</mgrwt>
</event>
<event>
 8    1  0.7685004E-052  0.1935489E+04  0.7818608E-02  0.8637390E-01
          2   -1    0    0  501    0  0.00000000000E+00  0.00000000000E+00  0.34603491389E+04  0.34603491389E+04  0.25500000000E-02 0.  1.
         -2   -1    0    0    0  501 -0.00000000000E+00 -0.00000000000E+00 -0.27064579294E+03  0.27064579295E+03  0.25500000000E-02 0. -1.
     200001    2    1    2    0    0  0.18022155184E+03  0.67348278643E+03  0.10690243078E+04  0.14160203198E+04  0.61338544499E+03 0.  0.
    5000001    2    3    3    0    0  0.15773785002E+03 -0.48617489762E+02  0.96131211930E+02  0.20002019577E+03  0.59346264988E+02 0.  0.
        -13    1    4    4    0    0  0.77489105420E+02 -0.30074274827E+02  0.69668332669E+02  0.10845603352E+03  0.10566000000E+00 0. -1.
     200003    1    4    4    0    0  0.80248744600E+02 -0.18543214935E+02  0.26462879261E+02  0.91564162252E+02  0.30000000000E+02 0. -1.
     200000    1    3    3    0    0  0.22483701818E+02  0.72210027619E+03  0.97289309584E+03  0.12160001240E+04  0.10100000000E+03 0. -1.
    -200001    1    1    2    0    0 -0.18022155184E+03 -0.67348278643E+03  0.21206790382E+04  0.23149746120E+04  0.61300000000E+03 0. -1.
<mgrwt>
<rscale>  0 0.19354885E+04</rscale>
<asrwt>0</asrwt>
<pdfrwt beam="1">  1        2 0.49433559E+00 0.19354885E+04</pdfrwt>
<pdfrwt beam="2">  1       -2 0.38663685E-01 0.19354885E+04</pdfrwt>
<totfact> 0.75544124E+00</totfact>
</mgrwt>
</event>
<event>
 8    1  0.7685004E-052  0.1533614E+04  0.7818608E-02  0.8862403E-01
         -2   -1    0    0    0  501 -0.00000000000E+00  0.00000000000E+00  0.59571959748E+03  0.59571959749E+03  0.25500000000E-02 0. -1.
          2   -1    0    0  501    0  0.00000000000E+00 -0.00000000000E+00 -0.98702920627E+03  0.98702920627E+03  0.25500000000E-02 0.  1.
     200001    2    1    2    0    0 -0.98855666540E+02  0.22212149886E+03  0.20524906617E+03  0.69350100043E+03  0.61620293359E+03 0.  0.
    5000001    2    3    3    0    0 -0.94695575801E+02 -0.16862681493E+03 -0.57222453711E+02  0.21205126282E+03  0.65491022770E+02 0.  0.
        -13    1    4    4    0    0 -0.64158257761E+02 -0.80850418567E+02 -0.48389292899E+02  0.11399389042E+03  0.10566000000E+00 0. -1.
     200003    1    4    4    0    0 -0.30537318040E+02 -0.87776396367E+02 -0.88331608115E+01  0.98057372401E+02  0.30000000000E+02 0.  1.
     200000    1    3    3    0    0 -0.41600907390E+01  0.39074831380E+03  0.26247151989E+03  0.48144973761E+03  0.10100000000E+03 0.  1.
    -200001    1    1    2    0    0  0.98855666540E+02 -0.22212149886E+03 -0.59655867496E+03  0.88924780333E+03  0.61300000000E+03 0.  1.
<mgrwt>
<rscale>  0 0.15336136E+04</rscale>
<asrwt>0</asrwt>
<pdfrwt beam="1">  1        2 0.14100417E+00 0.15336136E+04</pdfrwt>
<pdfrwt beam="2">  1       -2 0.85102799E-01 0.15336136E+04</pdfrwt>
<totfact> 0.33207884E+01</totfact>
</mgrwt>
</event>
<event>
 8    1  0.7685004E-052  0.1507332E+04  0.7818608E-02  0.8879592E-01
          2   -1    0    0  501    0  0.00000000000E+00  0.00000000000E+00  0.24533345361E+04  0.24533345361E+04  0.25500000000E-02 0.  1.
         -2   -1    0    0    0  501 -0.00000000000E+00 -0.00000000000E+00 -0.23152679037E+03  0.23152679039E+03  0.25500000000E-02 0. -1.
     200001    2    1    2    0    0 -0.28469728001E+03 -0.27576848661E+03  0.77958200338E+03  0.10684192795E+04  0.61373516873E+03 0.  0.
    5000001    2    3    3    0    0 -0.24524716946E+03 -0.38079250656E+03  0.79463761945E+03  0.91671553014E+03  0.61394704773E+02 0.  0.
        -13    1    4    4    0    0 -0.32242833961E+02 -0.31630268259E+02  0.56844582375E+02  0.72604351946E+02  0.10566000000E+00 0. -1.
     200003    1    4    4    0    0 -0.21300433550E+03 -0.34916223830E+03  0.73779303708E+03  0.84411117820E+03  0.30000000000E+02 0. -1.
     200000    1    3    3    0    0 -0.39450110545E+02  0.10502401995E+03 -0.15055616071E+02  0.15170374934E+03  0.10100000000E+03 0. -1.
    -200001    1    1    2    0    0  0.28469728001E+03  0.27576848661E+03  0.14422257424E+04  0.16164420470E+04  0.61300000000E+03 0. -1.
<mgrwt>
<rscale>  0 0.15073323E+04</rscale>
<asrwt>0</asrwt>
<pdfrwt beam="1">  1        2 0.35047635E+00 0.15073323E+04</pdfrwt>
<pdfrwt beam="2">  1       -2 0.33075257E-01 0.15073323E+04</pdfrwt>
<totfact> 0.38547907E+01</totfact>
</mgrwt>
</event>
<event>
 8    1  0.7685004E-052  0.1627829E+04  0.7818608E-02  0.8803632E-01
          2   -1    0    0  501    0  0.00000000000E+00  0.00000000000E+00  0.60115423577E+03  0.60115423578E+03  0.25500000000E-02 0.  1.
         -2   -1    0    0    0  501 -0.00000000000E+00 -0.00000000000E+00 -0.11019746520E+04  0.11019746520E+04  0.25500000000E-02 0. -1.
     200001    2    1    2    0    0 -0.11675213699E+02 -0.18852090886E+02  0.31843664422E+03  0.67968233664E+03  0.60006205546E+03 0.  0.
    5000001    2    3    3    0    0  0.16046386764E+03  0.21486519267E+03  0.20606561355E+03  0.35244560201E+03  0.99192547349E+02 0.  0.
        -13    1    4    4    0    0  0.41953293596E+02  0.66248738689E+02  0.11589606823E+03  0.13993171198E+03  0.10566000000E+00 0. -1.
     200003    1    4    4    0    0  0.11851057405E+03  0.14861645398E+03  0.90169545317E+02  0.21251389003E+03  0.30000000000E+02 0. -1.
     200000    1    3    3    0    0 -0.17213908134E+03 -0.23371728355E+03  0.11237103068E+03  0.32723673463E+03  0.10100000000E+03 0.  1.
    -200001    1    1    2    0    0  0.11675213699E+02  0.18852090886E+02 -0.81925706046E+03  0.10234465511E+04  0.61300000000E+03 0. -1.
<mgrwt>
<rscale>  0 0.16278289E+04</rscale>
<asrwt>0</asrwt>
<pdfrwt beam="1">  1        2 0.85879177E-01 0.16278289E+04</pdfrwt>
<pdfrwt beam="2">  1       -2 0.15742495E+00 0.16278289E+04</pdfrwt>
<totfact> 0.13660661E+01</totfact>
</mgrwt>
</event>
<event>
 8    1  0.7685004E-052  0.1319615E+04  0.7818608E-02  0.9014153E-01
         -2   -1    0    0    0  501 -0.00000000000E+00  0.00000000000E+00  0.26983340884E+03  0.26983340885E+03  0.25500000000E-02 0. -1.
          2   -1    0    0  501    0  0.00000000000E+00 -0.00000000000E+00 -0.16133874895E+04  0.16133874895E+04  0.25500000000E-02 0.  1.
     200001    2    1    2    0    0 -0.14290503256E+03 -0.19799989663E+03 -0.67935406462E+03  0.94697495381E+03  0.61287340506E+03 0.  0.
    5000001    2    3    3    0    0  0.11584893274E+03 -0.17479562139E+03 -0.60833547364E+03  0.65933508658E+03  0.14379229270E+03 0.  0.
        -13    1    4    4    0    0  0.12471158064E+03 -0.14420554805E+03 -0.36191710406E+03  0.40906261111E+03  0.10566000000E+00 0. -1.
     200003    1    4    4    0    0 -0.88626478932E+01 -0.30590073343E+02 -0.24641836957E+03  0.25027247547E+03  0.30000000000E+02 0. -1.
     200000    1    3    3    0    0 -0.25875396531E+03 -0.23204275231E+02 -0.71018590982E+02  0.28763986722E+03  0.10100000000E+03 0. -1.
    -200001    1    1    2    0    0  0.14290503256E+03  0.19799989663E+03 -0.66420001607E+03  0.93624594458E+03  0.61300000000E+03 0.  1.
<mgrwt>
<rscale>  0 0.13196149E+04</rscale>
<asrwt>0</asrwt>
<pdfrwt beam="1">  1        2 0.23048392E+00 0.13196149E+04</pdfrwt>
<pdfrwt beam="2">  1       -2 0.38547631E-01 0.13196149E+04</pdfrwt>
<totfact> 0.79236623E+01</totfact>
</mgrwt>
</event>
<event>
 8    1  0.7685004E-052  0.1299957E+04  0.7818608E-02  0.9029599E-01
         -2   -1    0    0    0  501 -0.00000000000E+00  0.00000000000E+00  0.27897563917E+03  0.27897563918E+03  0.25500000000E-02 0. -1.
          2   -1    0    0  501    0  0.00000000000E+00 -0.00000000000E+00 -0.15143683055E+04  0.15143683055E+04  0.25500000000E-02 0.  1.
     200001    2    1    2    0    0 -0.52287640422E+02  0.12179374237E+03 -0.38203298880E+03  0.73430690461E+03  0.61293532497E+03 0.  0.
    5000001    2    3    3    0    0 -0.26231661332E+02 -0.29434001143E+02  0.14721055234E+03  0.17408510006E+03  0.84144012645E+02 0.  0.
        -13    1    4    4    0    0  0.98150791829E+01 -0.91502602176E+00 -0.58619119969E+01  0.11469360413E+02  0.10566000000E+00 0. -1.
     200003    1    4    4    0    0 -0.36046740515E+02 -0.28518975121E+02  0.15307246433E+03  0.16261573965E+03  0.30000000000E+02 0. -1.
     200000    1    3    3    0    0 -0.26055979091E+02  0.15122774352E+03 -0.52924354114E+03  0.56022180455E+03  0.10100000000E+03 0.  1.
    -200001    1    1    2    0    0  0.52287640422E+02 -0.12179374237E+03 -0.85335967756E+03  0.10590370401E+04  0.61300000000E+03 0.  1.
<mgrwt>
<rscale>  0 0.12999567E+04</rscale>
<asrwt>0</asrwt>
<pdfrwt beam="1">  1        2 0.21633832E+00 0.12999567E+04</pdfrwt>
<pdfrwt beam="2">  1       -2 0.39853664E-01 0.12999567E+04</pdfrwt>
<totfact> 0.83855589E+01</totfact>
</mgrwt>
</event>
<event>
 8    1  0.7685004E-052  0.1361684E+04  0.7818608E-02  0.8982030E-01
          2   -1    0    0  501    0  0.00000000000E+00  0.00000000000E+00  0.13785883092E+04  0.13785883092E+04  0.25500000000E-02 0.  1.
         -2   -1    0    0    0  501 -0.00000000000E+00 -0.00000000000E+00 -0.33624698743E+03  0.33624698744E+03  0.25500000000E-02 0. -1.
     200001    2    1    2    0    0  0.21124050805E+03  0.21070355119E+03  0.52043731672E+03  0.85624847564E+03  0.61097292303E+03 0.  0.
    5000001    2    3    3    0    0  0.20305184856E+03  0.35107475595E+03  0.53074341409E+03  0.68281738006E+03  0.14165968179E+03 0.  0.
        -13    1    4    4    0    0  0.23894377558E+01  0.79775957680E+02  0.17077112060E+03  0.18850119265E+03  0.10566000000E+00 0. -1.
     200003    1    4    4    0    0  0.20066241080E+03  0.27129879827E+03  0.35997229348E+03  0.49431618740E+03  0.30000000000E+02 0. -1.
     200000    1    3    3    0    0  0.81886594968E+01 -0.14037120476E+03 -0.10306097370E+02  0.17343109558E+03  0.10100000000E+03 0.  1.
    -200001    1    1    2    0    0 -0.21124050805E+03 -0.21070355119E+03  0.52190400505E+03  0.85858682101E+03  0.61300000000E+03 0.  1.
<mgrwt>
<rscale>  0 0.13616845E+04</rscale>
<asrwt>0</asrwt>
<pdfrwt beam="1">  1        2 0.19694119E+00 0.13616845E+04</pdfrwt>
<pdfrwt beam="2">  1       -2 0.48035284E-01 0.13616845E+04</pdfrwt>
<totfact> 0.68140695E+01</totfact>
</mgrwt>
</event>
<event>
 8    1  0.7685004E-052  0.1383407E+04  0.7818608E-02  0.8965918E-01
          2   -1    0    0  501    0  0.00000000000E+00  0.00000000000E+00  0.16061946461E+04  0.16061946461E+04  0.25500000000E-02 0.  1.
         -2   -1    0    0    0  501 -0.00000000000E+00 -0.00000000000E+00 -0.29788021402E+03  0.29788021403E+03  0.25500000000E-02 0. -1.
     200001    2    1    2    0    0 -0.25339372209E+03  0.73713475816E+02  0.40420207417E+03  0.78031767521E+03  0.61308588516E+03 0.  0.
    5000001    2    3    3    0    0  0.59764471893E+02 -0.20909766449E+03  0.16431884800E+03  0.28454034845E+03  0.81663337510E+02 0.  0.
        -13    1    4    4    0    0  0.40103711438E+02 -0.58590023074E+02  0.22036320368E+02  0.74341839191E+02  0.10566000000E+00 0. -1.
     200003    1    4    4    0    0  0.19660760455E+02 -0.15050764141E+03  0.14228252763E+03  0.21019850926E+03  0.30000000000E+02 0. -1.
     200000    1    3    3    0    0 -0.31315819398E+03  0.28281114030E+03  0.23988322617E+03  0.49577732676E+03  0.10100000000E+03 0. -1.
    -200001    1    1    2    0    0  0.25339372209E+03 -0.73713475816E+02  0.90411235789E+03  0.11237571849E+04  0.61300000000E+03 0.  1.
<mgrwt>
<rscale>  0 0.13834068E+04</rscale>
<asrwt>0</asrwt>
<pdfrwt beam="1">  1        2 0.22945638E+00 0.13834068E+04</pdfrwt>
<pdfrwt beam="2">  1       -2 0.42554315E-01 0.13834068E+04</pdfrwt>
<totfact> 0.65549249E+01</totfact>
</mgrwt>
</event>
<event>
 8    1  0.7685004E-052  0.1950265E+04  0.7818608E-02  0.8630233E-01
          2   -1    0    0  501    0  0.00000000000E+00  0.00000000000E+00  0.53555886296E+03  0.53555886297E+03  0.25500000000E-02 0.  1.
         -2   -1    0    0    0  501 -0.00000000000E+00 -0.00000000000E+00 -0.17754978003E+04  0.17754978003E+04  0.25500000000E-02 0. -1.
     200001    2    1    2    0    0 -0.26978025181E+03 -0.18056258870E+03 -0.14322062589E+04  0.15912511647E+04  0.61276526374E+03 0.  0.
    5000001    2    3    3    0    0 -0.23047379775E+03 -0.37931962464E+03 -0.87238998142E+03  0.98739305124E+03  0.12992000952E+03 0.  0.
        -13    1    4    4    0    0 -0.16440972748E+03 -0.15353628375E+03 -0.44427302558E+03  0.49797839445E+03  0.10566000000E+00 0. -1.
     200003    1    4    4    0    0 -0.66064070267E+02 -0.22578334089E+03 -0.42811695583E+03  0.48941465679E+03  0.30000000000E+02 0. -1.
     200000    1    3    3    0    0 -0.39306454062E+02  0.19875703594E+03 -0.55981627752E+03  0.60385811350E+03  0.10100000000E+03 0.  1.
    -200001    1    1    2    0    0  0.26978025181E+03  0.18056258870E+03  0.19226732163E+03  0.71980549850E+03  0.61300000000E+03 0.  1.
<mgrwt>
<rscale>  0 0.19502652E+04</rscale>
<asrwt>0</asrwt>
<pdfrwt beam="1">  1        2 0.76508410E-01 0.19502652E+04</pdfrwt>
<pdfrwt beam="2">  1       -2 0.25364254E+00 0.19502652E+04</pdfrwt>
<totfact> 0.35417497E+00</totfact>
</mgrwt>
</event>
<event>
 8    1  0.7685004E-052  0.1620448E+04  0.7818608E-02  0.8808084E-01
          2   -1    0    0  501    0  0.00000000000E+00  0.00000000000E+00  0.20260638871E+04  0.20260638871E+04  0.25500000000E-02 0.  1.
         -2   -1    0    0    0  501 -0.00000000000E+00 -0.00000000000E+00 -0.32400888009E+03  0.32400888010E+03  0.25500000000E-02 0. -1.
     200001    2    1    2    0    0  0.19511516310E+03  0.47197344376E+03  0.64718192290E+03  0.10274408902E+04  0.61315698077E+03 0.  0.
    5000001    2    3    3    0    0  0.10682010071E+03 -0.75833130953E+02  0.36279639254E+03  0.39580476774E+03  0.88763697862E+02 0.  0.
        -13    1    4    4    0    0  0.18662602425E+02  0.19035090640E+01  0.14748890363E+03  0.14867718028E+03  0.10566000000E+00 0. -1.
     200003    1    4    4    0    0  0.88157498286E+02 -0.77736640017E+02  0.21530748891E+03  0.24712758746E+03  0.30000000000E+02 0. -1.
     200000    1    3    3    0    0  0.88295062385E+02  0.54780657471E+03  0.28438553036E+03  0.63163612248E+03  0.10100000000E+03 0. -1.
    -200001    1    1    2    0    0 -0.19511516310E+03 -0.47197344376E+03  0.10548730841E+04  0.13226318770E+04  0.61300000000E+03 0.  1.
<mgrwt>
<rscale>  0 0.16204477E+04</rscale>
<asrwt>0</asrwt>
<pdfrwt beam="1">  1        2 0.28943769E+00 0.16204477E+04</pdfrwt>
<pdfrwt beam="2">  1       -2 0.46286984E-01 0.16204477E+04</pdfrwt>
<totfact> 0.33022060E+01</totfact>
</mgrwt>
</event>
<event>
 8    1  0.7685004E-052  0.1921788E+04  0.7818608E-02  0.8644086E-01
          2   -1    0    0  501    0  0.00000000000E+00  0.00000000000E+00  0.42858410713E+04  0.42858410713E+04  0.25500000000E-02 0.  1.
         -2   -1    0    0    0  501 -0.00000000000E+00 -0.00000000000E+00 -0.21543433358E+03  0.21543433360E+03  0.25500000000E-02 0. -1.
     200001    2    1    2    0    0  0.40011492953E+03  0.23438571734E+03  0.68411006388E+03  0.10288406993E+04  0.61276258349E+03 0.  0.
    5000001    2    3    3    0    0 -0.10859227929E+03  0.17951346986E+03  0.27376345325E+03  0.36522987307E+03  0.12012103422E+03 0.  0.
        -13    1    4    4    0    0 -0.11486098385E+03  0.17700400840E+03  0.23920985024E+03  0.31897465137E+03  0.10566000000E+00 0. -1.
     200003    1    4    4    0    0  0.62687045569E+01  0.25094614662E+01  0.34553603014E+02  0.46255221705E+02  0.30000000000E+02 0.  1.
     200000    1    3    3    0    0  0.50870720882E+03  0.54872247480E+02  0.41034661063E+03  0.66361082624E+03  0.10100000000E+03 0. -1.
    -200001    1    1    2    0    0 -0.40011492953E+03 -0.23438571734E+03  0.33862966738E+04  0.34724347055E+04  0.61300000000E+03 0. -1.
<mgrwt>
<rscale>  0 0.19217880E+04</rscale>
<asrwt>0</asrwt>
<pdfrwt beam="1">  1        2 0.61226302E+00 0.19217880E+04</pdfrwt>
<pdfrwt beam="2">  1       -2 0.30776333E-01 0.19217880E+04</pdfrwt>
<totfact> 0.32928758E+00</totfact>
</mgrwt>
</event>
<event>
 8    1  0.7685004E-052  0.1285014E+04  0.7818608E-02  0.9041534E-01
          2   -1    0    0  501    0  0.00000000000E+00  0.00000000000E+00  0.98688641312E+03  0.98688641312E+03  0.25500000000E-02 0.  1.
         -2   -1    0    0    0  501 -0.00000000000E+00 -0.00000000000E+00 -0.41830072753E+03  0.41830072753E+03  0.25500000000E-02 0. -1.
     200001    2    1    2    0    0 -0.16452230086E+03 -0.29806950736E+02  0.39001721260E+03  0.74517824576E+03  0.61255297733E+03 0.  0.
    5000001    2    3    3    0    0  0.15004591788E+03  0.89040408814E+02  0.10833734642E+03  0.29504225951E+03  0.21182771866E+03 0.  0.
        -13    1    4    4    0    0  0.10833297808E+03  0.10609118379E+03  0.15984203016E+03  0.22031990193E+03  0.10566000000E+00 0. -1.
     200003    1    4    4    0    0  0.41712939800E+02 -0.17050774978E+02 -0.51504683740E+02  0.74722357573E+02  0.30000000000E+02 0. -1.
     200000    1    3    3    0    0 -0.31456821874E+03 -0.11884735955E+03  0.28167986617E+03  0.45013598625E+03  0.10100000000E+03 0. -1.
    -200001    1    1    2    0    0  0.16452230086E+03  0.29806950736E+02  0.17856847300E+03  0.66000889490E+03  0.61300000000E+03 0.  1.
<mgrwt>
<rscale>  0 0.12850141E+04</rscale>
<asrwt>0</asrwt>
<pdfrwt beam="1">  1        2 0.14098377E+00 0.12850141E+04</pdfrwt>
<pdfrwt beam="2">  1       -2 0.59757248E-01 0.12850141E+04</pdfrwt>
<totfact> 0.73414500E+01</totfact>
</mgrwt>
</event>
<event>
 8    1  0.7685004E-052  0.1640593E+04  0.7818608E-02  0.8795991E-01
          2   -1    0    0  501    0  0.00000000000E+00  0.00000000000E+00  0.15490582966E+04  0.15490582966E+04  0.25500000000E-02 0. -1.
         -2   -1    0    0    0  501 -0.00000000000E+00 -0.00000000000E+00 -0.43438418098E+03  0.43438418099E+03  0.25500000000E-02 0.  1.
     200001    2    1    2    0    0  0.11437934767E+03 -0.18165935063E+03 -0.50036098104E+02  0.64987521764E+03  0.61135213465E+03 0.  0.
    5000001    2    3    3    0    0 -0.68573542067E+01 -0.48074314018E+02  0.25699908698E+03  0.27971997349E+03  0.99179483176E+02 0.  0.
        -13    1    4    4    0    0  0.34242330150E+02 -0.30795445992E+02  0.18016888899E+03  0.18596165301E+03  0.10566000000E+00 0. -1.
     200003    1    4    4    0    0 -0.41099684357E+02 -0.17278868026E+02  0.76830197998E+02  0.93758320478E+02  0.30000000000E+02 0. -1.
     200000    1    3    3    0    0  0.12123670187E+03 -0.13358503661E+03 -0.30703518509E+03  0.37015524415E+03  0.10100000000E+03 0.  1.
    -200001    1    1    2    0    0 -0.11437934767E+03  0.18165935063E+03  0.11647102137E+04  0.13335672599E+04  0.61300000000E+03 0. -1.
<mgrwt>
<rscale>  0 0.16405931E+04</rscale>
<asrwt>0</asrwt>
<pdfrwt beam="1">  1        2 0.22129404E+00 0.16405931E+04</pdfrwt>
<pdfrwt beam="2">  1       -2 0.62054883E-01 0.16405931E+04</pdfrwt>
<totfact> 0.31799693E+01</totfact>
</mgrwt>
</event>
<event>
 8    1  0.7685004E-052  0.1951818E+04  0.7818608E-02  0.8629484E-01
          2   -1    0    0  501    0  0.00000000000E+00  0.00000000000E+00  0.17672691735E+04  0.17672691735E+04  0.25500000000E-02 0.  1.
         -2   -1    0    0    0  501 -0.00000000000E+00 -0.00000000000E+00 -0.53890982346E+03  0.53890982346E+03  0.25500000000E-02 0. -1.
     200001    2    1    2    0    0  0.45436928162E+03  0.46137855857E+03  0.14531929865E+03  0.90330110800E+03  0.61279162427E+03 0.  0.
    5000001    2    3    3    0    0 -0.11198136291E+03  0.15454477416E+02  0.73435395115E+02  0.17188492395E+03  0.10664428402E+03 0.  0.
        -13    1    4    4    0    0  0.86431518006E+01  0.26761120309E+02  0.22806751943E+01  0.28214788261E+02  0.10566000000E+00 0. -1.
     200003    1    4    4    0    0 -0.12062451471E+03 -0.11306642893E+02  0.71154719921E+02  0.14367013569E+03  0.30000000000E+02 0. -1.
     200000    1    3    3    0    0  0.56635064453E+03  0.44592408115E+03  0.71883903534E+02  0.73141618406E+03  0.10100000000E+03 0.  1.
    -200001    1    1    2    0    0 -0.45436928162E+03 -0.46137855857E+03  0.10830400514E+04  0.14028778889E+04  0.61300000000E+03 0.  1.
<mgrwt>
<rscale>  0 0.19518184E+04</rscale>
<asrwt>0</asrwt>
<pdfrwt beam="1">  1        2 0.25246702E+00 0.19518184E+04</pdfrwt>
<pdfrwt beam="2">  1       -2 0.76987118E-01 0.19518184E+04</pdfrwt>
<totfact> 0.14923985E+01</totfact>
</mgrwt>
</event>
<event>
 8    1  0.7685004E-052  0.1936992E+04  0.7818608E-02  0.8636659E-01
          2   -1    0    0  501    0  0.00000000000E+00  0.00000000000E+00  0.44216838858E+03  0.44216838859E+03  0.25500000000E-02 0.  1.
         -2   -1    0    0    0  501 -0.00000000000E+00 -0.00000000000E+00 -0.21213282069E+04  0.21213282069E+04  0.25500000000E-02 0. -1.
     200001    2    1    2    0    0  0.22039714059E+03  0.58826770144E+03 -0.29843686514E+03  0.92740409762E+03  0.61349817414E+03 0.  0.
    5000001    2    3    3    0    0  0.30783507554E+03  0.65053410963E+03 -0.23494037472E+03  0.76691951159E+03  0.12252141058E+03 0.  0.
        -13    1    4    4    0    0  0.26651776296E+03  0.54750502840E+03 -0.23280028713E+03  0.65191215585E+03  0.10566000000E+00 0. -1.
     200003    1    4    4    0    0  0.41317312583E+02  0.10302908123E+03 -0.21400875927E+01  0.11500735574E+03  0.30000000000E+02 0.  1.
     200000    1    3    3    0    0 -0.87437934950E+02 -0.62266408198E+02 -0.63496490425E+02  0.16048458603E+03  0.10100000000E+03 0. -1.
    -200001    1    1    2    0    0 -0.22039714059E+03 -0.58826770144E+03 -0.13807229531E+04  0.16360924978E+04  0.61300000000E+03 0. -1.
<mgrwt>
<rscale>  0 0.19369918E+04</rscale>
<asrwt>0</asrwt>
<pdfrwt beam="1">  1        2 0.63166914E-01 0.19369918E+04</pdfrwt>
<pdfrwt beam="2">  1       -2 0.30304688E+00 0.19369918E+04</pdfrwt>
<totfact> 0.22058297E+00</totfact>
</mgrwt>
</event>
<event>
 8    1  0.7685004E-052  0.1293774E+04  0.7818608E-02  0.9034517E-01
         -2   -1    0    0    0  501 -0.00000000000E+00  0.00000000000E+00  0.37416653337E+03  0.37416653337E+03  0.25500000000E-02 0. -1.
          2   -1    0    0  501    0  0.00000000000E+00 -0.00000000000E+00 -0.11183865524E+04  0.11183865524E+04  0.25500000000E-02 0.  1.
     200001    2    1    2    0    0  0.79982837463E+02  0.18921856163E+03 -0.40407063426E+03  0.76202483695E+03  0.61254212615E+03 0.  0.
    5000001    2    3    3    0    0  0.53073101584E+02  0.30097841620E+03  0.16944848888E+02  0.31406341448E+03  0.70313151516E+02 0.  0.
        -13    1    4    4    0    0  0.11074403805E+02  0.45428785107E+02  0.25407961312E+02  0.53216469237E+02  0.10566000000E+00 0. -1.
     200003    1    4    4    0    0  0.41998697779E+02  0.25554963110E+03 -0.84631124237E+01  0.26084694524E+03  0.30000000000E+02 0. -1.
     200000    1    3    3    0    0  0.26909735879E+02 -0.11175985457E+03 -0.42101548314E+03  0.44796142248E+03  0.10100000000E+03 0.  1.
    -200001    1    1    2    0    0 -0.79982837463E+02 -0.18921856163E+03 -0.34014938476E+03  0.73052824881E+03  0.61300000000E+03 0. -1.
<mgrwt>
<rscale>  0 0.12937740E+04</rscale>
<asrwt>0</asrwt>
<pdfrwt beam="1">  1        2 0.15976951E+00 0.12937740E+04</pdfrwt>
<pdfrwt beam="2">  1       -2 0.53452362E-01 0.12937740E+04</pdfrwt>
<totfact> 0.77123865E+01</totfact>
</mgrwt>
</event>
<event>
 8    1  0.7685004E-052  0.1521003E+04  0.7818608E-02  0.8870605E-01
         -2   -1    0    0    0  501 -0.00000000000E+00  0.00000000000E+00  0.34685549689E+03  0.34685549690E+03  0.25500000000E-02 0. -1.
          2   -1    0    0  501    0  0.00000000000E+00 -0.00000000000E+00 -0.16674459969E+04  0.16674459969E+04  0.25500000000E-02 0.  1.
     200001    2    1    2    0    0 -0.42388447941E+03  0.61709706062E+02 -0.47924327116E+03  0.88863711257E+03  0.61360872319E+03 0.  0.
    5000001    2    3    3    0    0 -0.84267941557E+02  0.17183160568E+03 -0.21747618466E+03  0.43455646650E+03  0.32390777237E+03 0.  0.
        -13    1    4    4    0    0 -0.15987769436E+03  0.15597602084E+03 -0.25887678290E+03  0.34191606590E+03  0.10566000000E+00 0. -1.
     200003    1    4    4    0    0  0.75609752803E+02  0.15855584831E+02  0.41400598241E+02  0.92640400604E+02  0.30000000000E+02 0. -1.
     200000    1    3    3    0    0 -0.33961653785E+03 -0.11012189961E+03 -0.26176708650E+03  0.45408064607E+03  0.10100000000E+03 0. -1.
    -200001    1    1    2    0    0  0.42388447941E+03 -0.61709706062E+02 -0.84134722889E+03  0.11256643813E+04  0.61300000000E+03 0.  1.
<mgrwt>
<rscale>  0 0.15210034E+04</rscale>
<asrwt>0</asrwt>
<pdfrwt beam="1">  1        2 0.23820657E+00 0.15210034E+04</pdfrwt>
<pdfrwt beam="2">  1       -2 0.49550786E-01 0.15210034E+04</pdfrwt>
<totfact> 0.44414566E+01</totfact>
</mgrwt>
</event>
<event>
 8    1  0.7685004E-052  0.1443814E+04  0.7818608E-02  0.8922700E-01
          2   -1    0    0  501    0  0.00000000000E+00  0.00000000000E+00  0.12444826756E+04  0.12444826756E+04  0.25500000000E-02 0.  1.
         -2   -1    0    0    0  501 -0.00000000000E+00 -0.00000000000E+00 -0.41876840360E+03  0.41876840361E+03  0.25500000000E-02 0. -1.
     200001    2    1    2    0    0  0.48996213144E+02 -0.26660353952E+03  0.72406074177E+03  0.98532739885E+03  0.61084208186E+03 0.  0.
    5000001    2    3    3    0    0  0.10491988045E+03  0.15540503485E+03  0.99203060198E+02  0.22252544839E+03  0.67211768752E+02 0.  0.
        -13    1    4    4    0    0  0.74042754054E+02  0.62885725232E+02  0.48368727980E+02  0.10851953223E+03  0.10566000000E+00 0. -1.
     200003    1    4    4    0    0  0.30877126393E+02  0.92519309618E+02  0.50834332218E+02  0.11400591616E+03  0.30000000000E+02 0. -1.
     200000    1    3    3    0    0 -0.55923667303E+02 -0.42200857437E+03  0.62485768157E+03  0.76280195046E+03  0.10100000000E+03 0.  1.
    -200001    1    1    2    0    0 -0.48996213144E+02  0.26660353952E+03  0.10165353022E+03  0.67792368036E+03  0.61300000000E+03 0. -1.
<mgrwt>
<rscale>  0 0.14438144E+04</rscale>
<asrwt>0</asrwt>
<pdfrwt beam="1">  1        2 0.17778324E+00 0.14438144E+04</pdfrwt>
<pdfrwt beam="2">  1       -2 0.59824058E-01 0.14438144E+04</pdfrwt>
<totfact> 0.51054357E+01</totfact>
</mgrwt>
</event>
<event>
 8    1  0.7685004E-052  0.1302241E+04  0.7818608E-02  0.9027790E-01
          2   -1    0    0  501    0  0.00000000000E+00  0.00000000000E+00  0.17165169137E+04  0.17165169137E+04  0.25500000000E-02 0.  1.
         -2   -1    0    0    0  501 -0.00000000000E+00 -0.00000000000E+00 -0.24698718358E+03  0.24698718359E+03  0.25500000000E-02 0. -1.
     200001    2    1    2    0    0 -0.18647603137E+03 -0.54490104869E+02  0.88803560751E+03  0.10965283788E+04  0.61320858075E+03 0.  0.
    5000001    2    3    3    0    0 -0.32671453830E+03  0.83323600587E+02  0.28024173698E+03  0.44978743739E+03  0.10043951284E+03 0.  0.
        -13    1    4    4    0    0 -0.10872445731E+03  0.76204554961E+00  0.13565478897E+03  0.17384999645E+03  0.10566000000E+00 0. -1.
     200003    1    4    4    0    0 -0.21799008099E+03  0.82561555038E+02  0.14458694801E+03  0.27593744094E+03  0.30000000000E+02 0. -1.
     200000    1    3    3    0    0  0.14023850693E+03 -0.13781370546E+03  0.60779387053E+03  0.64674094140E+03  0.10100000000E+03 0.  1.
    -200001    1    1    2    0    0  0.18647603137E+03  0.54490104869E+02  0.58149412256E+03  0.86697571845E+03  0.61300000000E+03 0. -1.
<mgrwt>
<rscale>  0 0.13022407E+04</rscale>
<asrwt>0</asrwt>
<pdfrwt beam="1">  1        2 0.24521669E+00 0.13022407E+04</pdfrwt>
<pdfrwt beam="2">  1       -2 0.35283885E-01 0.13022407E+04</pdfrwt>
<totfact> 0.83130350E+01</totfact>
</mgrwt>
</event>
<event>
 8    1  0.7685004E-052  0.1728375E+04  0.7818608E-02  0.8745344E-01
         -2   -1    0    0    0  501 -0.00000000000E+00  0.00000000000E+00  0.43233514643E+03  0.43233514644E+03  0.25500000000E-02 0. -1.
          2   -1    0    0  501    0  0.00000000000E+00 -0.00000000000E+00 -0.17274107628E+04  0.17274107628E+04  0.25500000000E-02 0.  1.
     200001    2    1    2    0    0 -0.53824105769E+03  0.20204262778E+03 -0.39479158702E+03  0.92815953666E+03  0.61245005403E+03 0.  0.
    5000001    2    3    3    0    0 -0.43464782154E+03  0.18674421489E+02  0.33175146386E+02  0.44060237841E+03  0.61338427833E+02 0.  0.
        -13    1    4    4    0    0 -0.82452350181E+02 -0.31861024595E+01 -0.12741594020E+02  0.83491919857E+02  0.10566000000E+00 0. -1.
     200003    1    4    4    0    0 -0.35219547136E+03  0.21860523949E+02  0.45916740406E+02  0.35711045855E+03  0.30000000000E+02 0. -1.
     200000    1    3    3    0    0 -0.10359323614E+03  0.18336820630E+03 -0.42796673341E+03  0.48755715825E+03  0.10100000000E+03 0.  1.
    -200001    1    1    2    0    0  0.53824105769E+03 -0.20204262778E+03 -0.90028402930E+03  0.12315863725E+04  0.61300000000E+03 0.  1.
<mgrwt>
<rscale>  0 0.17283754E+04</rscale>
<asrwt>0</asrwt>
<pdfrwt beam="1">  1        2 0.24677296E+00 0.17283754E+04</pdfrwt>
<pdfrwt beam="2">  1       -2 0.61762165E-01 0.17283754E+04</pdfrwt>
<totfact> 0.25730807E+01</totfact>
</mgrwt>
</event>
<event>
 8    1  0.7685004E-052  0.1331524E+04  0.7818608E-02  0.9004934E-01
          2   -1    0    0  501    0  0.00000000000E+00  0.00000000000E+00  0.19339338326E+03  0.19339338327E+03  0.25500000000E-02 0.  1.
         -2   -1    0    0    0  501 -0.00000000000E+00 -0.00000000000E+00 -0.22919026031E+04  0.22919026031E+04  0.25500000000E-02 0. -1.
     200001    2    1    2    0    0 -0.23630523513E+03 -0.97963077208E+02 -0.11353969745E+04  0.13153425148E+04  0.61283171652E+03 0.  0.
    5000001    2    3    3    0    0 -0.22547040688E+03 -0.40212406479E+02 -0.78750773149E+02  0.25225515790E+03  0.70548128245E+02 0.  0.
        -13    1    4    4    0    0 -0.70507254219E+02 -0.37094196562E+02 -0.42413332524E+02  0.90256048307E+02  0.10566000000E+00 0. -1.
     200003    1    4    4    0    0 -0.15496315266E+03 -0.31182099167E+01 -0.36337440625E+02  0.16199910959E+03  0.30000000000E+02 0. -1.
     200000    1    3    3    0    0 -0.10834828247E+02 -0.57750670729E+02 -0.10566462014E+04  0.10630873569E+04  0.10100000000E+03 0. -1.
    -200001    1    1    2    0    0  0.23630523513E+03  0.97963077208E+02 -0.96311224535E+03  0.11699534716E+04  0.61300000000E+03 0. -1.
<mgrwt>
<rscale>  0 0.13315236E+04</rscale>
<asrwt>0</asrwt>
<pdfrwt beam="1">  1        2 0.27627628E-01 0.13315236E+04</pdfrwt>
<pdfrwt beam="2">  1       -2 0.32741464E+00 0.13315236E+04</pdfrwt>
<totfact> 0.41626143E+00</totfact>
</mgrwt>
</event>
<event>
 8    1  0.7685004E-052  0.1440785E+04  0.7818608E-02  0.8924814E-01
         -2   -1    0    0    0  501 -0.00000000000E+00  0.00000000000E+00  0.46982067535E+03  0.46982067535E+03  0.25500000000E-02 0. -1.
          2   -1    0    0  501    0  0.00000000000E+00 -0.00000000000E+00 -0.11046030874E+04  0.11046030874E+04  0.25500000000E-02 0.  1.
     200001    2    1    2    0    0 -0.24182777850E+03  0.28820299115E+03 -0.36363470250E+03  0.80576797572E+03  0.61277254775E+03 0.  0.
    5000001    2    3    3    0    0 -0.43064446792E+03  0.16672287040E+03 -0.28356119036E+03  0.54688203696E+03  0.73633147424E+02 0.  0.
        -13    1    4    4    0    0 -0.32047404749E+03  0.13940701178E+03 -0.19869727411E+03  0.40201809406E+03  0.10566000000E+00 0. -1.
     200003    1    4    4    0    0 -0.11017042044E+03  0.27315858623E+02 -0.84863916246E+02  0.14486394290E+03  0.30000000000E+02 0. -1.
     200000    1    3    3    0    0  0.18881668943E+03  0.12148012074E+03 -0.80073512145E+02  0.25888593876E+03  0.10100000000E+03 0. -1.
    -200001    1    1    2    0    0  0.24182777850E+03 -0.28820299115E+03 -0.27114770955E+03  0.76865578704E+03  0.61300000000E+03 0. -1.
<mgrwt>
<rscale>  0 0.14407850E+04</rscale>
<asrwt>0</asrwt>
<pdfrwt beam="1">  1        2 0.15780044E+00 0.14407850E+04</pdfrwt>
<pdfrwt beam="2">  1       -2 0.67117240E-01 0.14407850E+04</pdfrwt>
<totfact> 0.48073837E+01</totfact>
</mgrwt>
</event>
<event>
 8    1  0.7685004E-052  0.1406708E+04  0.7818608E-02  0.8948977E-01
         -2   -1    0    0    0  501 -0.00000000000E+00  0.00000000000E+00  0.17087363116E+03  0.17087363118E+03  0.25500000000E-02 0. -1.
          2   -1    0    0  501    0  0.00000000000E+00 -0.00000000000E+00 -0.28951613226E+04  0.28951613226E+04  0.25500000000E-02 0.  1.
     200001    2    1    2    0    0  0.14081201669E+03  0.22128973688E+03 -0.18507449818E+04  0.19671068227E+04  0.61274390454E+03 0.  0.
    5000001    2    3    3    0    0 -0.18748330019E+03  0.18766230060E+03 -0.93633087211E+03  0.98973136589E+03  0.18023747571E+03 0.  0.
        -13    1    4    4    0    0 -0.21490282583E+01  0.11660851557E+03 -0.27795482627E+03  0.30143168519E+03  0.10566000000E+00 0. -1.
     200003    1    4    4    0    0 -0.18533427193E+03  0.71053785025E+02 -0.65837604584E+03  0.68829968070E+03  0.30000000000E+02 0. -1.
     200000    1    3    3    0    0  0.32829531689E+03  0.33627436280E+02 -0.91441410969E+03  0.97737545680E+03  0.10100000000E+03 0. -1.
    -200001    1    1    2    0    0 -0.14081201669E+03 -0.22128973688E+03 -0.87354270961E+03  0.10989281310E+04  0.61300000000E+03 0. -1.
<mgrwt>
<rscale>  0 0.14067078E+04</rscale>
<asrwt>0</asrwt>
<pdfrwt beam="1">  1        2 0.41359445E+00 0.14067078E+04</pdfrwt>
<pdfrwt beam="2">  1       -2 0.24410520E-01 0.14067078E+04</pdfrwt>
<totfact> 0.39570920E+01</totfact>
</mgrwt>
</event>
<event>
 8    1  0.7685004E-052  0.1658654E+04  0.7818608E-02  0.8785303E-01
         -2   -1    0    0    0  501 -0.00000000000E+00  0.00000000000E+00  0.35542235156E+03  0.35542235157E+03  0.25500000000E-02 0. -1.
          2   -1    0    0  501    0  0.00000000000E+00 -0.00000000000E+00 -0.19351149567E+04  0.19351149567E+04  0.25500000000E-02 0.  1.
     200001    2    1    2    0    0 -0.50720339326E+03 -0.22977066446E+03 -0.84393221844E+03  0.11827637813E+04  0.61372529093E+03 0.  0.
    5000001    2    3    3    0    0 -0.50165714412E+02 -0.26888226895E+03 -0.99349979839E+02  0.30241335819E+03  0.82274827608E+02 0.  0.
        -13    1    4    4    0    0 -0.48671125032E+02 -0.92006668441E+02 -0.18881245616E+02  0.10578571761E+03  0.10566000000E+00 0. -1.
     200003    1    4    4    0    0 -0.14945893795E+01 -0.17687560051E+03 -0.80468734223E+02  0.19662764058E+03  0.30000000000E+02 0. -1.
     200000    1    3    3    0    0 -0.45703767885E+03  0.39111604488E+02 -0.74458223860E+03  0.88035042315E+03  0.10100000000E+03 0.  1.
    -200001    1    1    2    0    0  0.50720339326E+03  0.22977066446E+03 -0.73576038673E+03  0.11077735270E+04  0.61300000000E+03 0.  1.
<mgrwt>
<rscale>  0 0.16586538E+04</rscale>
<asrwt>0</asrwt>
<pdfrwt beam="1">  1        2 0.27644499E+00 0.16586538E+04</pdfrwt>
<pdfrwt beam="2">  1       -2 0.50774623E-01 0.16586538E+04</pdfrwt>
<totfact> 0.30399110E+01</totfact>
</mgrwt>
</event>
<event>
 8    1  0.7685004E-052  0.1698421E+04  0.7818608E-02  0.8762265E-01
         -2   -1    0    0    0  501 -0.00000000000E+00  0.00000000000E+00  0.80173280112E+03  0.80173280113E+03  0.25500000000E-02 0. -1.
          2   -1    0    0  501    0  0.00000000000E+00 -0.00000000000E+00 -0.89950003223E+03  0.89950003224E+03  0.25500000000E-02 0.  1.
     200001    2    1    2    0    0 -0.40716595865E+03 -0.35813440794E+03  0.17830052162E+03  0.83750441764E+03  0.61284435343E+03 0.  0.
    5000001    2    3    3    0    0 -0.22751466934E+02 -0.28166855322E+03 -0.13462049129E+03  0.32589705970E+03  0.90727138853E+02 0.  0.
        -13    1    4    4    0    0 -0.12308403650E+02 -0.53442842572E+01  0.54393097376E+01  0.14479483039E+02  0.10566000000E+00 0. -1.
     200003    1    4    4    0    0 -0.10443063284E+02 -0.27632426897E+03 -0.14005980103E+03  0.31141757666E+03  0.30000000000E+02 0. -1.
     200000    1    3    3    0    0 -0.38441449172E+03 -0.76465854713E+02  0.31292101291E+03  0.51160735794E+03  0.10100000000E+03 0. -1.
    -200001    1    1    2    0    0  0.40716595865E+03  0.35813440794E+03 -0.27606775273E+03  0.86372841572E+03  0.61300000000E+03 0. -1.
<mgrwt>
<rscale>  0 0.16984212E+04</rscale>
<asrwt>0</asrwt>
<pdfrwt beam="1">  1        2 0.12850000E+00 0.16984212E+04</pdfrwt>
<pdfrwt beam="2">  1       -2 0.11453326E+00 0.16984212E+04</pdfrwt>
<totfact> 0.18495200E+01</totfact>
</mgrwt>
</event>
<event>
 8    1  0.7685004E-052  0.1245603E+04  0.7818608E-02  0.9073850E-01
         -2   -1    0    0    0  501 -0.00000000000E+00  0.00000000000E+00  0.54647916802E+03  0.54647916802E+03  0.25500000000E-02 0. -1.
          2   -1    0    0  501    0  0.00000000000E+00 -0.00000000000E+00 -0.70978365552E+03  0.70978365552E+03  0.25500000000E-02 0.  1.
     200001    2    1    2    0    0  0.70704326275E+01  0.10898206219E+03 -0.91918856823E+02  0.62953162984E+03  0.61313450061E+03 0.  0.
    5000001    2    3    3    0    0  0.24432326949E+03  0.21313846739E+03 -0.11404898001E+03  0.35055455606E+03  0.68988844272E+02 0.  0.
        -13    1    4    4    0    0  0.12631536517E+03  0.10896035297E+03 -0.86661683561E+02  0.18798454341E+03  0.10566000000E+00 0. -1.
     200003    1    4    4    0    0  0.11800790432E+03  0.10417811442E+03 -0.27387296444E+02  0.16257001265E+03  0.30000000000E+02 0. -1.
     200000    1    3    3    0    0 -0.23725283687E+03 -0.10415640520E+03  0.22130123183E+02  0.27897707379E+03  0.10100000000E+03 0.  1.
    -200001    1    1    2    0    0 -0.70704326275E+01 -0.10898206219E+03 -0.71385630681E+02  0.62673119371E+03  0.61300000000E+03 0.  1.
<mgrwt>
<rscale>  0 0.12456034E+04</rscale>
<asrwt>0</asrwt>
<pdfrwt beam="1">  1        2 0.10139767E+00 0.12456034E+04</pdfrwt>
<pdfrwt beam="2">  1       -2 0.78068452E-01 0.12456034E+04</pdfrwt>
<totfact> 0.63646201E+01</totfact>
</mgrwt>
</event>
<event>
 8    1  0.7685004E-052  0.1543150E+04  0.7818608E-02  0.8856255E-01
         -2   -1    0    0    0  501 -0.00000000000E+00  0.00000000000E+00  0.36712222094E+03  0.36712222094E+03  0.25500000000E-02 0. -1.
          2   -1    0    0  501    0  0.00000000000E+00 -0.00000000000E+00 -0.16216069892E+04  0.16216069892E+04  0.25500000000E-02 0.  1.
     200001    2    1    2    0    0  0.39848023420E+03  0.24347610925E+03 -0.57146024668E+03  0.95899205441E+03  0.61239842755E+03 0.  0.
    5000001    2    3    3    0    0  0.13290617932E+03 -0.16678105315E+03 -0.38692312162E+02  0.22900356822E+03  0.73929473462E+02 0.  0.
        -13    1    4    4    0    0  0.80859868763E+02 -0.61695128813E+02  0.69748651045E+00  0.10171088903E+03  0.10566000000E+00 0. -1.
     200003    1    4    4    0    0  0.52046310554E+02 -0.10508592434E+03 -0.39389798673E+02  0.12729267919E+03  0.30000000000E+02 0. -1.
     200000    1    3    3    0    0  0.26557405488E+03  0.41025716240E+03 -0.53276793451E+03  0.72998848619E+03  0.10100000000E+03 0.  1.
    -200001    1    1    2    0    0 -0.39848023420E+03 -0.24347610925E+03 -0.68302452160E+03  0.10297371557E+04  0.61300000000E+03 0. -1.
<mgrwt>
<rscale>  0 0.15431500E+04</rscale>
<asrwt>0</asrwt>
<pdfrwt beam="1">  1        2 0.23165814E+00 0.15431500E+04</pdfrwt>
<pdfrwt beam="2">  1       -2 0.52446032E-01 0.15431500E+04</pdfrwt>
<totfact> 0.41716263E+01</totfact>
</mgrwt>
</event>
<event>
 8    1  0.7685004E-052  0.2133933E+04  0.7818608E-02  0.8546441E-01
          2   -1    0    0  501    0  0.00000000000E+00  0.00000000000E+00  0.13590427955E+04  0.13590427955E+04  0.25500000000E-02 0.  1.
         -2   -1    0    0    0  501 -0.00000000000E+00 -0.00000000000E+00 -0.83766162704E+03  0.83766162705E+03  0.25500000000E-02 0. -1.
     200001    2    1    2    0    0 -0.42846746613E+03 -0.68338416307E+03  0.60529601066E+03  0.11801371672E+04  0.61297813089E+03 0.  0.
    5000001    2    3    3    0    0 -0.55403373734E+03 -0.60308205643E+03  0.46702866758E+03  0.95312576887E+03  0.14025550275E+03 0.  0.
        -13    1    4    4    0    0 -0.48392374054E+03 -0.56947641673E+03  0.42650056590E+03  0.86045820337E+03  0.10566000000E+00 0. -1.
     200003    1    4    4    0    0 -0.70109996798E+02 -0.33605639701E+02  0.40528101685E+02  0.92667565506E+02  0.30000000000E+02 0.  1.
     200000    1    3    3    0    0  0.12556627120E+03 -0.80302106641E+02  0.13826734308E+03  0.22701139830E+03  0.10100000000E+03 0.  1.
    -200001    1    1    2    0    0  0.42846746613E+03  0.68338416307E+03 -0.83914842254E+02  0.10165672553E+04  0.61300000000E+03 0. -1.
<mgrwt>
<rscale>  0 0.21339335E+04</rscale>
<asrwt>0</asrwt>
<pdfrwt beam="1">  1        2 0.19414897E+00 0.21339335E+04</pdfrwt>
<pdfrwt beam="2">  1       -2 0.11966595E+00 0.21339335E+04</pdfrwt>
<totfact> 0.85996009E+00</totfact>
</mgrwt>
</event>
<event>
 8    1  0.7685004E-052  0.1591882E+04  0.7818608E-02  0.8825551E-01
         -2   -1    0    0    0  501 -0.00000000000E+00  0.00000000000E+00  0.27236098975E+03  0.27236098976E+03  0.25500000000E-02 0. -1.
          2   -1    0    0  501    0  0.00000000000E+00 -0.00000000000E+00 -0.23260386963E+04  0.23260386963E+04  0.25500000000E-02 0.  1.
     200001    2    1    2    0    0  0.13278118769E+03  0.22126657072E+03 -0.31621724066E+03  0.73798908362E+03  0.61485348266E+03 0.  0.
    5000001    2    3    3    0    0 -0.50105511389E+02  0.30738559815E+03  0.30340816067E+02  0.32426511977E+03  0.85034314033E+02 0.  0.
        -13    1    4    4    0    0 -0.64580799919E+02  0.18450389778E+03  0.15687840707E+02  0.19610835659E+03  0.10566000000E+00 0. -1.
     200003    1    4    4    0    0  0.14475288530E+02  0.12288170037E+03  0.14652975360E+02  0.12815676319E+03  0.30000000000E+02 0. -1.
     200000    1    3    3    0    0  0.18288669908E+03 -0.86119027426E+02 -0.34655805672E+03  0.41372396385E+03  0.10100000000E+03 0.  1.
    -200001    1    1    2    0    0 -0.13278118769E+03 -0.22126657072E+03 -0.17374604659E+04  0.18604106024E+04  0.61300000000E+03 0.  1.
<mgrwt>
<rscale>  0 0.15918822E+04</rscale>
<asrwt>0</asrwt>
<pdfrwt beam="1">  1        2 0.33229123E+00 0.15918822E+04</pdfrwt>
<pdfrwt beam="2">  1       -2 0.38908714E-01 0.15918822E+04</pdfrwt>
<totfact> 0.32660783E+01</totfact>
</mgrwt>
</event>
<event>
 8    1  0.7685004E-052  0.1671915E+04  0.7818608E-02  0.8777546E-01
         -2   -1    0    0    0  501 -0.00000000000E+00  0.00000000000E+00  0.34721460884E+03  0.34721460885E+03  0.25500000000E-02 0. -1.
          2   -1    0    0  501    0  0.00000000000E+00 -0.00000000000E+00 -0.20126596279E+04  0.20126596279E+04  0.25500000000E-02 0.  1.
     200001    2    1    2    0    0 -0.49724475425E+03 -0.14892121200E+03 -0.50699782663E+03  0.95019385785E+03  0.61350770026E+03 0.  0.
    5000001    2    3    3    0    0 -0.50587551842E+03 -0.35749569545E+02 -0.13494680896E+03  0.54831667450E+03  0.15891023387E+03 0.  0.
        -13    1    4    4    0    0 -0.15806684085E+03 -0.82432224449E+02 -0.61105769553E+02  0.18845191440E+03  0.10566000000E+00 0. -1.
     200003    1    4    4    0    0 -0.34780867758E+03  0.46682654904E+02 -0.73841039404E+02  0.35986476011E+03  0.30000000000E+02 0. -1.
     200000    1    3    3    0    0  0.86307641686E+01 -0.11317164246E+03 -0.37205101767E+03  0.40187718335E+03  0.10100000000E+03 0.  1.
    -200001    1    1    2    0    0  0.49724475425E+03  0.14892121200E+03 -0.11584471925E+04  0.14096803789E+04  0.61300000000E+03 0.  1.
<mgrwt>
<rscale>  0 0.16719149E+04</rscale>
<asrwt>0</asrwt>
<pdfrwt beam="1">  1        2 0.28752280E+00 0.16719149E+04</pdfrwt>
<pdfrwt beam="2">  1       -2 0.49602088E-01 0.16719149E+04</pdfrwt>
<totfact> 0.29053861E+01</totfact>
</mgrwt>
</event>
<event>
 8    1  0.7685004E-052  0.1587025E+04  0.7818608E-02  0.8828559E-01
         -2   -1    0    0    0  501 -0.00000000000E+00  0.00000000000E+00  0.50397371733E+03  0.50397371734E+03  0.25500000000E-02 0. -1.
          2   -1    0    0  501    0  0.00000000000E+00 -0.00000000000E+00 -0.12493947554E+04  0.12493947554E+04  0.25500000000E-02 0.  1.
     200001    2    1    2    0    0  0.75349035324E+02  0.24681311171E+03  0.10570291255E+03  0.67319479756E+03  0.61271848389E+03 0.  0.
    5000001    2    3    3    0    0 -0.13516988483E+03  0.32644373370E+03  0.17268779517E+03  0.41756376228E+03  0.14036385551E+03 0.  0.
        -13    1    4    4    0    0 -0.28441366562E+02  0.34148327198E+02  0.79971558203E+02  0.91490332100E+02  0.10566000000E+00 0. -1.
     200003    1    4    4    0    0 -0.10672851826E+03  0.29229540650E+03  0.92716236962E+02  0.32607343018E+03  0.30000000000E+02 0. -1.
     200000    1    3    3    0    0  0.21051892015E+03 -0.79630621990E+02 -0.66984882617E+02  0.25563103528E+03  0.10100000000E+03 0.  1.
    -200001    1    1    2    0    0 -0.75349035324E+02 -0.24681311171E+03 -0.85112395060E+03  0.10801736752E+04  0.61300000000E+03 0.  1.
<mgrwt>
<rscale>  0 0.15870250E+04</rscale>
<asrwt>0</asrwt>
<pdfrwt beam="1">  1        2 0.17848496E+00 0.15870250E+04</pdfrwt>
<pdfrwt beam="2">  1       -2 0.71996246E-01 0.15870250E+04</pdfrwt>
<totfact> 0.33687447E+01</totfact>
</mgrwt>
</event>
<event>
 8    1  0.7685004E-052  0.1436687E+04  0.7818608E-02  0.8927682E-01
         -2   -1    0    0    0  501 -0.00000000000E+00  0.00000000000E+00  0.23617408841E+03  0.23617408842E+03  0.25500000000E-02 0. -1.
          2   -1    0    0  501    0  0.00000000000E+00 -0.00000000000E+00 -0.21849040059E+04  0.21849040059E+04  0.25500000000E-02 0.  1.
     200001    2    1    2    0    0 -0.33634512057E+02  0.37175932874E+03 -0.10194745356E+04  0.12469312365E+04  0.61332935764E+03 0.  0.
    5000001    2    3    3    0    0  0.63676103296E+02  0.44833853989E+03 -0.96945818424E+03  0.10794905997E+04  0.14278897529E+03 0.  0.
        -13    1    4    4    0    0 -0.39433238835E+02  0.18406530183E+03 -0.34663641438E+03  0.39445130321E+03  0.10566000000E+00 0. -1.
     200003    1    4    4    0    0  0.10310934213E+03  0.26427323806E+03 -0.62282176986E+03  0.68503929653E+03  0.30000000000E+02 0. -1.
     200000    1    3    3    0    0 -0.97310615353E+02 -0.76579211153E+02 -0.50016351381E+02  0.16744063678E+03  0.10100000000E+03 0. -1.
    -200001    1    1    2    0    0  0.33634512057E+02 -0.37175932874E+03 -0.92925538183E+03  0.11741468578E+04  0.61300000000E+03 0. -1.
<mgrwt>
<rscale>  0 0.14366875E+04</rscale>
<asrwt>0</asrwt>
<pdfrwt beam="1">  1        2 0.31212913E+00 0.14366875E+04</pdfrwt>
<pdfrwt beam="2">  1       -2 0.33739157E-01 0.14366875E+04</pdfrwt>
<totfact> 0.51447786E+01</totfact>
</mgrwt>
</event>
<event>
 8    1  0.7685004E-052  0.1363298E+04  0.7818608E-02  0.8980822E-01
         -2   -1    0    0    0  501 -0.00000000000E+00  0.00000000000E+00  0.11657488572E+04  0.11657488572E+04  0.25500000000E-02 0. -1.
          2   -1    0    0  501    0  0.00000000000E+00 -0.00000000000E+00 -0.39858103073E+03  0.39858103074E+03  0.25500000000E-02 0.  1.
     200001    2    1    2    0    0  0.18259192891E+03  0.23305972753E+03  0.34364753578E+03  0.76258486258E+03  0.61301337235E+03 0.  0.
    5000001    2    3    3    0    0  0.16092494070E+03  0.14696406026E+03 -0.13407737637E+03  0.26629461081E+03  0.73761814943E+02 0.  0.
        -13    1    4    4    0    0  0.12341999862E+03  0.79040349763E+02 -0.78622139874E+02  0.16631694139E+03  0.10566000000E+00 0. -1.
     200003    1    4    4    0    0  0.37504942084E+02  0.67923710496E+02 -0.55455236500E+02  0.99977669425E+02  0.30000000000E+02 0. -1.
     200000    1    3    3    0    0  0.21666988204E+02  0.86095667275E+02  0.47772491216E+03  0.49629025176E+03  0.10100000000E+03 0. -1.
    -200001    1    1    2    0    0 -0.18259192891E+03 -0.23305972753E+03  0.42352029071E+03  0.80174502540E+03  0.61300000000E+03 0.  1.
<mgrwt>
<rscale>  0 0.13632980E+04</rscale>
<asrwt>0</asrwt>
<pdfrwt beam="1">  1        2 0.56940146E-01 0.13632980E+04</pdfrwt>
<pdfrwt beam="2">  1       -2 0.16653555E+00 0.13632980E+04</pdfrwt>
<totfact> 0.19130275E+01</totfact>
</mgrwt>
</event>
<event>
 8    1  0.7685004E-052  0.1397011E+04  0.7818608E-02  0.8955985E-01
         -2   -1    0    0    0  501 -0.00000000000E+00  0.00000000000E+00  0.27377124252E+03  0.27377124253E+03  0.25500000000E-02 0. -1.
          2   -1    0    0  501    0  0.00000000000E+00 -0.00000000000E+00 -0.17821823379E+04  0.17821823379E+04  0.25500000000E-02 0.  1.
     200001    2    1    2    0    0  0.45850635819E+02 -0.29108636862E+02 -0.12406398906E+04  0.13848202020E+04  0.61285402850E+03 0.  0.
    5000001    2    3    3    0    0  0.56705606063E+02 -0.44117909766E+02  0.27559857327E+02  0.11247012862E+03  0.82024803418E+02 0.  0.
        -13    1    4    4    0    0  0.28294399815E+02 -0.53864830347E+02 -0.17724397794E+01  0.60869908132E+02  0.10566000000E+00 0. -1.
     200003    1    4    4    0    0  0.28411206249E+02  0.97469205807E+01  0.29332297106E+02  0.51600220492E+02  0.30000000000E+02 0. -1.
     200000    1    3    3    0    0 -0.10854970245E+02  0.15009272904E+02 -0.12681997479E+04  0.12723500734E+04  0.10100000000E+03 0.  1.
    -200001    1    1    2    0    0 -0.45850635819E+02  0.29108636862E+02 -0.26777120484E+03  0.67113337846E+03  0.61300000000E+03 0. -1.
<mgrwt>
<rscale>  0 0.13970115E+04</rscale>
<asrwt>0</asrwt>
<pdfrwt beam="1">  1        2 0.25459747E+00 0.13970115E+04</pdfrwt>
<pdfrwt beam="2">  1       -2 0.39110179E-01 0.13970115E+04</pdfrwt>
<totfact> 0.62589560E+01</totfact>
</mgrwt>
</event>
<event>
 8    1  0.7685004E-052  0.1419984E+04  0.7818608E-02  0.8939479E-01
         -2   -1    0    0    0  501 -0.00000000000E+00  0.00000000000E+00  0.14092673617E+03  0.14092673619E+03  0.25500000000E-02 0. -1.
          2   -1    0    0  501    0  0.00000000000E+00 -0.00000000000E+00 -0.35769563018E+04  0.35769563018E+04  0.25500000000E-02 0.  1.
     200001    2    1    2    0    0 -0.74975401500E+02 -0.33086959824E+03 -0.14135678879E+04  0.15775054452E+04  0.61257918187E+03 0.  0.
    5000001    2    3    3    0    0  0.26116815242E+02  0.71603515845E+02 -0.91597058135E+03  0.92175524632E+03  0.69436854091E+02 0.  0.
        -13    1    4    4    0    0  0.15806050653E+02  0.27140413899E+02 -0.61947857520E+03  0.62027425354E+03  0.10566000000E+00 0. -1.
     200003    1    4    4    0    0  0.10310764589E+02  0.44463101946E+02 -0.29649200615E+03  0.30148099279E+03  0.30000000000E+02 0. -1.
     200000    1    3    3    0    0 -0.10109221674E+03 -0.40247311408E+03 -0.49759730660E+03  0.65575019892E+03  0.10100000000E+03 0. -1.
    -200001    1    1    2    0    0  0.74975401500E+02  0.33086959824E+03 -0.20224616777E+04  0.21403775928E+04  0.61300000000E+03 0. -1.
<mgrwt>
<rscale>  0 0.14199842E+04</rscale>
<asrwt>0</asrwt>
<pdfrwt beam="1">  1        2 0.51099370E+00 0.14199842E+04</pdfrwt>
<pdfrwt beam="2">  1       -2 0.20132393E-01 0.14199842E+04</pdfrwt>
<totfact> 0.22456434E+01</totfact>
</mgrwt>
</event>
<event>
 8    1  0.7685004E-052  0.1521839E+04  0.7818608E-02  0.8870059E-01
         -2   -1    0    0    0  501 -0.00000000000E+00  0.00000000000E+00  0.31601350047E+03  0.31601350048E+03  0.25500000000E-02 0. -1.
          2   -1    0    0  501    0  0.00000000000E+00 -0.00000000000E+00 -0.18321946339E+04  0.18321946339E+04  0.25500000000E-02 0.  1.
     200001    2    1    2    0    0  0.31962339924E+02 -0.19286423563E+03 -0.13295360100E+04  0.14782651468E+04  0.61594126152E+03 0.  0.
    5000001    2    3    3    0    0 -0.56906662677E+02 -0.38689291884E+03 -0.77115092456E+03  0.87201459362E+03  0.11318658986E+03 0.  0.
        -13    1    4    4    0    0 -0.81859173127E+02 -0.31235744704E+03 -0.61818166431E+03  0.69743578930E+03  0.10566000000E+00 0. -1.
     200003    1    4    4    0    0  0.24952510449E+02 -0.74535471799E+02 -0.15296926026E+03  0.17457880432E+03  0.30000000000E+02 0. -1.
     200000    1    3    3    0    0  0.88869002601E+02  0.19402868321E+03 -0.55838508545E+03  0.60625055314E+03  0.10100000000E+03 0. -1.
    -200001    1    1    2    0    0 -0.31962339924E+02  0.19286423563E+03 -0.18664512340E+03  0.66994298761E+03  0.61300000000E+03 0. -1.
<mgrwt>
<rscale>  0 0.15218387E+04</rscale>
<asrwt>0</asrwt>
<pdfrwt beam="1">  1        2 0.26174208E+00 0.15218387E+04</pdfrwt>
<pdfrwt beam="2">  1       -2 0.45144787E-01 0.15218387E+04</pdfrwt>
<totfact> 0.44019994E+01</totfact>
</mgrwt>
</event>
<event>
 8    1  0.7685004E-052  0.1953663E+04  0.7818608E-02  0.8628596E-01
          2   -1    0    0  501    0  0.00000000000E+00  0.00000000000E+00  0.11525639228E+04  0.11525639228E+04  0.25500000000E-02 0. -1.
         -2   -1    0    0    0  501 -0.00000000000E+00 -0.00000000000E+00 -0.82789325303E+03  0.82789325303E+03  0.25500000000E-02 0.  1.
     200001    2    1    2    0    0  0.41633304255E+03 -0.35376109833E+03 -0.37300909015E+03  0.90295721555E+03  0.61458590512E+03 0.  0.
    5000001    2    3    3    0    0  0.95673981242E+02 -0.74192636745E+02  0.49897165443E+02  0.29465510366E+03  0.26395803636E+03 0.  0.
        -13    1    4    4    0    0  0.59141669058E+02 -0.67510906141E+02 -0.10174554319E+03  0.13567470726E+03  0.10566000000E+00 0. -1.
     200003    1    4    4    0    0  0.36532312184E+02 -0.66817306041E+01  0.15164270864E+03  0.15898039640E+03  0.30000000000E+02 0. -1.
     200000    1    3    3    0    0  0.32065906131E+03 -0.27956846158E+03 -0.42290625559E+03  0.60830211189E+03  0.10100000000E+03 0.  1.
    -200001    1    1    2    0    0 -0.41633304255E+03  0.35376109833E+03  0.69767975991E+03  0.10774999603E+04  0.61300000000E+03 0. -1.
<mgrwt>
<rscale>  0 0.19536631E+04</rscale>
<asrwt>0</asrwt>
<pdfrwt beam="1">  1        2 0.16465199E+00 0.19536631E+04</pdfrwt>
<pdfrwt beam="2">  1       -2 0.11827047E+00 0.19536631E+04</pdfrwt>
<totfact> 0.11728822E+01</totfact>
</mgrwt>
</event>
<event>
 8    1  0.7685004E-052  0.1456212E+04  0.7818608E-02  0.8914105E-01
         -2   -1    0    0    0  501 -0.00000000000E+00  0.00000000000E+00  0.16808099376E+03  0.16808099378E+03  0.25500000000E-02 0. -1.
          2   -1    0    0  501    0  0.00000000000E+00 -0.00000000000E+00 -0.31540643173E+04  0.31540643173E+04  0.25500000000E-02 0.  1.
     200001    2    1    2    0    0 -0.23921581109E+03  0.77374693523E+02 -0.80437690655E+03  0.10421482483E+04  0.61305767776E+03 0.  0.
    5000001    2    3    3    0    0 -0.25754649363E+03  0.30573536274E+03 -0.52741593608E+03  0.66879454429E+03  0.96510436886E+02 0.  0.
        -13    1    4    4    0    0 -0.19687491126E+03  0.26560352961E+03 -0.45013931409E+03  0.55850727737E+03  0.10566000000E+00 0. -1.
     200003    1    4    4    0    0 -0.60671582369E+02  0.40131833127E+02 -0.77276621997E+02  0.11028726692E+03  0.30000000000E+02 0.  1.
     200000    1    3    3    0    0  0.18330682540E+02 -0.22836066921E+03 -0.27696097047E+03  0.37335370405E+03  0.10100000000E+03 0. -1.
    -200001    1    1    2    0    0  0.23921581109E+03 -0.77374693523E+02 -0.21816064170E+04  0.22799970627E+04  0.61300000000E+03 0.  1.
<mgrwt>
<rscale>  0 0.14562119E+04</rscale>
<asrwt>0</asrwt>
<pdfrwt beam="1">  1        2 0.45058058E+00 0.14562119E+04</pdfrwt>
<pdfrwt beam="2">  1       -2 0.24011573E-01 0.14562119E+04</pdfrwt>
<totfact> 0.29091958E+01</totfact>
</mgrwt>
</event>
<event>
 8    1  0.7685004E-052  0.1530000E+04  0.7818608E-02  0.8864745E-01
          2   -1    0    0  501    0  0.00000000000E+00  0.00000000000E+00  0.53408996344E+03  0.53408996345E+03  0.25500000000E-02 0.  1.
         -2   -1    0    0    0  501 -0.00000000000E+00 -0.00000000000E+00 -0.10957424009E+04  0.10957424009E+04  0.25500000000E-02 0. -1.
     200001    2    1    2    0    0 -0.45404825133E+03  0.39771641735E+02 -0.32728126048E+03  0.83080767974E+03  0.61268815822E+03 0.  0.
    5000001    2    3    3    0    0 -0.42231987719E+02 -0.13205020897E+03 -0.32058283031E+03  0.37324757186E+03  0.13160395258E+03 0.  0.
        -13    1    4    4    0    0  0.32069124140E+02 -0.85838298466E+02 -0.20971066342E+03  0.22885632113E+03  0.10566000000E+00 0. -1.
     200003    1    4    4    0    0 -0.74301111859E+02 -0.46211910507E+02 -0.11087216689E+03  0.14439125073E+03  0.30000000000E+02 0. -1.
     200000    1    3    3    0    0 -0.41181626361E+03  0.17182185071E+03 -0.66984301738E+01  0.45756010788E+03  0.10100000000E+03 0.  1.
    -200001    1    1    2    0    0  0.45404825133E+03 -0.39771641735E+02 -0.23437117698E+03  0.79902468461E+03  0.61300000000E+03 0. -1.
<mgrwt>
<rscale>  0 0.15300000E+04</rscale>
<asrwt>0</asrwt>
<pdfrwt beam="1">  1        2 0.76298567E-01 0.15300000E+04</pdfrwt>
<pdfrwt beam="2">  1       -2 0.15653463E+00 0.15300000E+04</pdfrwt>
<totfact> 0.16053508E+01</totfact>
</mgrwt>
</event>
<event>
 8    1  0.7685004E-052  0.1495857E+04  0.7818608E-02  0.8887212E-01
         -2   -1    0    0    0  501 -0.00000000000E+00  0.00000000000E+00  0.68061435783E+03  0.68061435783E+03  0.25500000000E-02 0. -1.
          2   -1    0    0  501    0  0.00000000000E+00 -0.00000000000E+00 -0.82190049986E+03  0.82190049986E+03  0.25500000000E-02 0.  1.
     200001    2    1    2    0    0  0.27371016431E+03 -0.31393029458E+03  0.32798218750E+02  0.74123708410E+03  0.61228033431E+03 0.  0.
    5000001    2    3    3    0    0  0.15901952958E+02 -0.35472820030E+02  0.17142727523E+03  0.32479662704E+03  0.27311965359E+03 0.  0.
        -13    1    4    4    0    0  0.12651634581E+03 -0.60812473716E+02  0.34702792884E+02  0.14459888559E+03  0.10566000000E+00 0. -1.
     200003    1    4    4    0    0 -0.11061439285E+03  0.25339653686E+02  0.13672448234E+03  0.18019774146E+03  0.30000000000E+02 0. -1.
     200000    1    3    3    0    0  0.25780821135E+03 -0.27845747455E+03 -0.13862905647E+03  0.41644045705E+03  0.10100000000E+03 0.  1.
    -200001    1    1    2    0    0 -0.27371016431E+03  0.31393029458E+03 -0.17408436078E+03  0.76127777359E+03  0.61300000000E+03 0.  1.
<mgrwt>
<rscale>  0 0.14958573E+04</rscale>
<asrwt>0</asrwt>
<pdfrwt beam="1">  1        2 0.11741436E+00 0.14958573E+04</pdfrwt>
<pdfrwt beam="2">  1       -2 0.97230623E-01 0.14958573E+04</pdfrwt>
<totfact> 0.31373791E+01</totfact>
</mgrwt>
</event>
<event>
 8    1  0.7685004E-052  0.1531529E+04  0.7818608E-02  0.8863753E-01
          2   -1    0    0  501    0  0.00000000000E+00  0.00000000000E+00  0.13438809702E+04  0.13438809702E+04  0.25500000000E-02 0.  1.
         -2   -1    0    0    0  501 -0.00000000000E+00 -0.00000000000E+00 -0.43634441835E+03  0.43634441836E+03  0.25500000000E-02 0. -1.
     200001    2    1    2    0    0  0.14976964857E+03 -0.19186238183E+03  0.28928117950E+01  0.66067573910E+03  0.61420024640E+03 0.  0.
    5000001    2    3    3    0    0 -0.21420441030E+03 -0.22066090527E+02 -0.75178029369E+02  0.23924489980E+03  0.72221494297E+02 0.  0.
        -13    1    4    4    0    0 -0.18668808081E+01 -0.12302145573E+02 -0.35092869108E+01  0.12928816199E+02  0.10566000000E+00 0. -1.
     200003    1    4    4    0    0 -0.21233752949E+03 -0.97639449533E+01 -0.71668742458E+02  0.22631608360E+03  0.30000000000E+02 0. -1.
     200000    1    3    3    0    0  0.36397405887E+03 -0.16979629131E+03  0.78070841164E+02  0.42143083930E+03  0.10100000000E+03 0.  1.
    -200001    1    1    2    0    0 -0.14976964857E+03  0.19186238183E+03  0.90464374004E+03  0.11195496495E+04  0.61300000000E+03 0.  1.
<mgrwt>
<rscale>  0 0.15315286E+04</rscale>
<asrwt>0</asrwt>
<pdfrwt beam="1">  1        2 0.19198300E+00 0.15315286E+04</pdfrwt>
<pdfrwt beam="2">  1       -2 0.62334917E-01 0.15315286E+04</pdfrwt>
<totfact> 0.40940545E+01</totfact>
</mgrwt>
</event>
<event>
 8    1  0.7685004E-052  0.2614543E+04  0.7818608E-02  0.8363278E-01
         -2   -1    0    0    0  501 -0.00000000000E+00  0.00000000000E+00  0.81838245900E+03  0.81838245901E+03  0.25500000000E-02 0. -1.
          2   -1    0    0  501    0  0.00000000000E+00 -0.00000000000E+00 -0.20882153973E+04  0.20882153973E+04  0.25500000000E-02 0.  1.
     200001    2    1    2    0    0 -0.25361305676E+03 -0.42584958747E+03 -0.17943133716E+04  0.19597524736E+04  0.61270043948E+03 0.  0.
    5000001    2    3    3    0    0  0.59607286535E+02 -0.26757341048E+03 -0.13679966483E+04  0.13984100823E+04  0.94801740664E+02 0.  0.
        -13    1    4    4    0    0  0.56398913190E+02 -0.78573686236E+02 -0.38574951134E+03  0.39769002783E+03  0.10566000000E+00 0. -1.
     200003    1    4    4    0    0  0.32083733456E+01 -0.18899972425E+03 -0.98224713695E+03  0.10007200545E+04  0.30000000000E+02 0. -1.
     200000    1    3    3    0    0 -0.31322034329E+03 -0.15827617698E+03 -0.42631672334E+03  0.56134239128E+03  0.10100000000E+03 0. -1.
    -200001    1    1    2    0    0  0.25361305676E+03  0.42584958747E+03  0.52448043336E+03  0.94684538267E+03  0.61300000000E+03 0. -1.
<mgrwt>
<rscale>  0 0.26145431E+04</rscale>
<asrwt>0</asrwt>
<pdfrwt beam="1">  1        2 0.29831648E+00 0.26145431E+04</pdfrwt>
<pdfrwt beam="2">  1       -2 0.11691178E+00 0.26145431E+04</pdfrwt>
<totfact> 0.36383337E+00</totfact>
</mgrwt>
</event>
<event>
 8    1  0.7685004E-052  0.1310060E+04  0.7818608E-02  0.9021626E-01
         -2   -1    0    0    0  501 -0.00000000000E+00  0.00000000000E+00  0.12434367488E+03  0.12434367491E+03  0.25500000000E-02 0. -1.
          2   -1    0    0  501    0  0.00000000000E+00 -0.00000000000E+00 -0.34506309102E+04  0.34506309102E+04  0.25500000000E-02 0.  1.
     200001    2    1    2    0    0 -0.21996732524E+03 -0.69438199823E+02 -0.16780142885E+04  0.18013399004E+04  0.61309558506E+03 0.  0.
    5000001    2    3    3    0    0 -0.54550394434E+02  0.10600106752E+03 -0.14402142003E+04  0.14479398728E+04  0.90005336971E+02 0.  0.
        -13    1    4    4    0    0 -0.38089933536E+02  0.97596154290E+02 -0.12576670160E+04  0.12620230531E+04  0.10566000000E+00 0. -1.
     200003    1    4    4    0    0 -0.16460460898E+02  0.84049132340E+01 -0.18254718429E+03  0.18591681966E+03  0.30000000000E+02 0.  1.
     200000    1    3    3    0    0 -0.16541693080E+03 -0.17543926735E+03 -0.23780008824E+03  0.35340002757E+03  0.10100000000E+03 0. -1.
    -200001    1    1    2    0    0  0.21996732524E+03  0.69438199823E+02 -0.16482729468E+04  0.17736346848E+04  0.61300000000E+03 0. -1.
<mgrwt>
<rscale>  0 0.13100597E+04</rscale>
<asrwt>0</asrwt>
<pdfrwt beam="1">  1        2 0.49294721E+00 0.13100597E+04</pdfrwt>
<pdfrwt beam="2">  1       -2 0.17763384E-01 0.13100597E+04</pdfrwt>
<totfact> 0.33712158E+01</totfact>
</mgrwt>
</event>
<event>
 8    1  0.7685004E-052  0.1311763E+04  0.7818608E-02  0.9020289E-01
          2   -1    0    0  501    0  0.00000000000E+00  0.00000000000E+00  0.11132790748E+04  0.11132790748E+04  0.25500000000E-02 0.  1.
         -2   -1    0    0    0  501 -0.00000000000E+00 -0.00000000000E+00 -0.38640829946E+03  0.38640829947E+03  0.25500000000E-02 0. -1.
     200001    2    1    2    0    0 -0.11472021093E+03 -0.20061911837E+03  0.32596990662E+03  0.73163837583E+03  0.61288626638E+03 0.  0.
    5000001    2    3    3    0    0 -0.33658595429E+03 -0.29375344915E+02  0.10405903515E+03  0.36016257191E+03  0.68817002943E+02 0.  0.
        -13    1    4    4    0    0 -0.23195742665E+03 -0.37769275193E+02  0.81055181104E+02  0.24859750496E+03  0.10566000000E+00 0. -1.
     200003    1    4    4    0    0 -0.10462852764E+03  0.83939302780E+01  0.23003854050E+02  0.11156506695E+03  0.30000000000E+02 0. -1.
     200000    1    3    3    0    0  0.22186574336E+03 -0.17124377345E+03  0.22191087147E+03  0.37147580392E+03  0.10100000000E+03 0.  1.
    -200001    1    1    2    0    0  0.11472021093E+03  0.20061911837E+03  0.40090086868E+03  0.76804899841E+03  0.61300000000E+03 0. -1.
<mgrwt>
<rscale>  0 0.13117626E+04</rscale>
<asrwt>0</asrwt>
<pdfrwt beam="1">  1        2 0.15903987E+00 0.13117626E+04</pdfrwt>
<pdfrwt beam="2">  1       -2 0.55201185E-01 0.13117626E+04</pdfrwt>
<totfact> 0.72559139E+01</totfact>
</mgrwt>
</event>
<event>
 8    1  0.7685004E-052  0.1440566E+04  0.7818608E-02  0.8924967E-01
         -2   -1    0    0    0  501 -0.00000000000E+00  0.00000000000E+00  0.23249576245E+03  0.23249576246E+03  0.25500000000E-02 0. -1.
          2   -1    0    0  501    0  0.00000000000E+00 -0.00000000000E+00 -0.22314714195E+04  0.22314714195E+04  0.25500000000E-02 0.  1.
     200001    2    1    2    0    0  0.28230960743E+03 -0.21741612969E+03 -0.12129539841E+04  0.14053985454E+04  0.61393746916E+03 0.  0.
    5000001    2    3    3    0    0  0.43625196617E+02 -0.12568734562E+03 -0.28893456428E+02  0.18983910591E+03  0.13230112502E+03 0.  0.
        -13    1    4    4    0    0  0.53442497635E+01  0.24146722764E+02  0.11408037611E+02  0.27235633129E+02  0.10566000000E+00 0. -1.
     200003    1    4    4    0    0  0.38280946853E+02 -0.14983406838E+03 -0.40301494039E+02  0.16260347278E+03  0.30000000000E+02 0. -1.
     200000    1    3    3    0    0  0.23868441081E+03 -0.91728784072E+02 -0.11840605277E+04  0.12155594395E+04  0.10100000000E+03 0.  1.
    -200001    1    1    2    0    0 -0.28230960743E+03  0.21741612969E+03 -0.78602167289E+03  0.10585686365E+04  0.61300000000E+03 0. -1.
<mgrwt>
<rscale>  0 0.14405661E+04</rscale>
<asrwt>0</asrwt>
<pdfrwt beam="1">  1        2 0.31878162E+00 0.14405661E+04</pdfrwt>
<pdfrwt beam="2">  1       -2 0.33213682E-01 0.14405661E+04</pdfrwt>
<totfact> 0.50135928E+01</totfact>
</mgrwt>
</event>
<event>
 8    1  0.7685004E-052  0.1781674E+04  0.7818608E-02  0.8716106E-01
         -2   -1    0    0    0  501 -0.00000000000E+00  0.00000000000E+00  0.63855104734E+03  0.63855104734E+03  0.25500000000E-02 0. -1.
          2   -1    0    0  501    0  0.00000000000E+00 -0.00000000000E+00 -0.12427988702E+04  0.12427988702E+04  0.25500000000E-02 0.  1.
     200001    2    1    2    0    0 -0.12646005576E+03 -0.38638255933E+03 -0.83215469809E+03  0.11112887695E+04  0.61416419617E+03 0.  0.
    5000001    2    3    3    0    0  0.50436332165E+02 -0.25079164806E+03 -0.26177047927E+02  0.26898348055E+03  0.78908812110E+02 0.  0.
        -13    1    4    4    0    0  0.56751913026E+02 -0.15970019143E+03 -0.32855594493E+02  0.17263960156E+03  0.10566000000E+00 0. -1.
     200003    1    4    4    0    0 -0.63155808612E+01 -0.91091456635E+02  0.66785465657E+01  0.96343878985E+02  0.30000000000E+02 0.  1.
     200000    1    3    3    0    0 -0.17689638792E+03 -0.13559091127E+03 -0.80597765016E+03  0.84230528898E+03  0.10100000000E+03 0.  1.
    -200001    1    1    2    0    0  0.12646005576E+03  0.38638255933E+03  0.22790687525E+03  0.77006114799E+03  0.61300000000E+03 0. -1.
<mgrwt>
<rscale>  0 0.17816740E+04</rscale>
<asrwt>0</asrwt>
<pdfrwt beam="1">  1        2 0.17754269E+00 0.17816740E+04</pdfrwt>
<pdfrwt beam="2">  1       -2 0.91221579E-01 0.17816740E+04</pdfrwt>
<totfact> 0.19634341E+01</totfact>
</mgrwt>
</event>
<event>
 8    1  0.7685004E-052  0.1384349E+04  0.7818608E-02  0.8965226E-01
         -2   -1    0    0    0  501 -0.00000000000E+00  0.00000000000E+00  0.29235370411E+03  0.29235370412E+03  0.25500000000E-02 0. -1.
          2   -1    0    0  501    0  0.00000000000E+00 -0.00000000000E+00 -0.16387876241E+04  0.16387876241E+04  0.25500000000E-02 0.  1.
     200001    2    1    2    0    0 -0.31081083972E+03 -0.80655478559E+02 -0.70010751222E+03  0.98424349335E+03  0.61276099845E+03 0.  0.
    5000001    2    3    3    0    0 -0.17994465754E+03  0.12804421594E+03 -0.21457288901E+03  0.43050493550E+03  0.30086138632E+03 0.  0.
        -13    1    4    4    0    0  0.28798357555E+02  0.97883981305E+02  0.29815740051E+02  0.10629961765E+03  0.10566000000E+00 0. -1.
     200003    1    4    4    0    0 -0.20874301509E+03  0.30160234632E+02 -0.24438862906E+03  0.32420531784E+03  0.30000000000E+02 0. -1.
     200000    1    3    3    0    0 -0.13086618218E+03 -0.20869969450E+03 -0.48553462321E+03  0.55373855785E+03  0.10100000000E+03 0.  1.
    -200001    1    1    2    0    0  0.31081083972E+03  0.80655478559E+02 -0.64632640779E+03  0.94689783489E+03  0.61300000000E+03 0.  1.
<mgrwt>
<rscale>  0 0.13843491E+04</rscale>
<asrwt>0</asrwt>
<pdfrwt beam="1">  1        2 0.23411251E+00 0.13843491E+04</pdfrwt>
<pdfrwt beam="2">  1       -2 0.41764816E-01 0.13843491E+04</pdfrwt>
<totfact> 0.65392154E+01</totfact>
</mgrwt>
</event>
<event>
 8    1  0.7685004E-052  0.2455497E+04  0.7818608E-02  0.8419014E-01
         -2   -1    0    0    0  501 -0.00000000000E+00  0.00000000000E+00  0.69590524944E+03  0.69590524944E+03  0.25500000000E-02 0. -1.
          2   -1    0    0  501    0  0.00000000000E+00 -0.00000000000E+00 -0.21660508558E+04  0.21660508558E+04  0.25500000000E-02 0.  1.
     200001    2    1    2    0    0 -0.68750072111E+03  0.56556053971E+03 -0.14150674547E+04  0.17796813857E+04  0.61019174683E+03 0.  0.
    5000001    2    3    3    0    0  0.57005550514E+01  0.21933793969E+03 -0.22274536450E+03  0.35411796564E+03  0.16626006156E+03 0.  0.
        -13    1    4    4    0    0 -0.38397669710E+01  0.22307489025E+03 -0.23121357570E+03  0.32130496297E+03  0.10566000000E+00 0. -1.
     200003    1    4    4    0    0  0.95403220224E+01 -0.37369505647E+01  0.84682112016E+01  0.32813002678E+02  0.30000000000E+02 0. -1.
     200000    1    3    3    0    0 -0.69320127616E+03  0.34622260002E+03 -0.11923220902E+04  0.14255634201E+04  0.10100000000E+03 0.  1.
    -200001    1    1    2    0    0  0.68750072111E+03 -0.56556053971E+03 -0.55078151659E+02  0.10822747195E+04  0.61300000000E+03 0. -1.
<mgrwt>
<rscale>  0 0.24554968E+04</rscale>
<asrwt>0</asrwt>
<pdfrwt beam="1">  1        2 0.30943583E+00 0.24554968E+04</pdfrwt>
<pdfrwt beam="2">  1       -2 0.99415037E-01 0.24554968E+04</pdfrwt>
<totfact> 0.49655624E+00</totfact>
</mgrwt>
</event>
<event>
 8    1  0.7685004E-052  0.1619522E+04  0.7818608E-02  0.8808644E-01
          2   -1    0    0  501    0  0.00000000000E+00  0.00000000000E+00  0.91896721761E+03  0.91896721761E+03  0.25500000000E-02 0.  1.
         -2   -1    0    0    0  501 -0.00000000000E+00 -0.00000000000E+00 -0.71353274254E+03  0.71353274254E+03  0.25500000000E-02 0. -1.
     200001    2    1    2    0    0  0.36029769795E+03  0.25427015797E+03 -0.19279945398E+03  0.77878630405E+03  0.61226524769E+03 0.  0.
    5000001    2    3    3    0    0  0.16727517026E+03  0.27269568830E+03  0.15814321288E+03  0.36531447696E+03  0.78111908806E+02 0.  0.
        -13    1    4    4    0    0  0.75164857046E+02  0.62205603033E+02  0.49179327658E+02  0.10926074417E+03  0.10566000000E+00 0. -1.
     200003    1    4    4    0    0  0.92110313213E+02  0.21049008527E+03  0.10896388522E+03  0.25605373280E+03  0.30000000000E+02 0. -1.
     200000    1    3    3    0    0  0.19302252769E+03 -0.18425530329E+02 -0.35094266686E+03  0.41347182708E+03  0.10100000000E+03 0. -1.
    -200001    1    1    2    0    0 -0.36029769795E+03 -0.25427015797E+03  0.39823392905E+03  0.85371365611E+03  0.61300000000E+03 0. -1.
<mgrwt>
<rscale>  0 0.16195224E+04</rscale>
<asrwt>0</asrwt>
<pdfrwt beam="1">  1        2 0.13128103E+00 0.16195224E+04</pdfrwt>
<pdfrwt beam="2">  1       -2 0.10193325E+00 0.16195224E+04</pdfrwt>
<totfact> 0.23944508E+01</totfact>
</mgrwt>
</event>
<event>
 8    1  0.7685004E-052  0.2362574E+04  0.7818608E-02  0.8453650E-01
         -2   -1    0    0    0  501 -0.00000000000E+00  0.00000000000E+00  0.55087730938E+03  0.55087730939E+03  0.25500000000E-02 0. -1.
          2   -1    0    0  501    0  0.00000000000E+00 -0.00000000000E+00 -0.25331201446E+04  0.25331201446E+04  0.25500000000E-02 0.  1.
     200001    2    1    2    0    0  0.59513327345E+03  0.59462365874E+03 -0.26457900859E+03  0.10755406011E+04  0.61564975762E+03 0.  0.
    5000001    2    3    3    0    0  0.45226416643E+03  0.57496032484E+03  0.23134013477E+02  0.73823063752E+03  0.96576602840E+02 0.  0.
        -13    1    4    4    0    0  0.36085584463E+03  0.47753352494E+03  0.41998135543E+02  0.60001588529E+03  0.10566000000E+00 0. -1.
     200003    1    4    4    0    0  0.91408321795E+02  0.97426799902E+02 -0.18864122067E+02  0.13821475223E+03  0.30000000000E+02 0. -1.
     200000    1    3    3    0    0  0.14286910702E+03  0.19663333897E+02 -0.28771302207E+03  0.33730996355E+03  0.10100000000E+03 0.  1.
    -200001    1    1    2    0    0 -0.59513327345E+03 -0.59462365874E+03 -0.17176638266E+04  0.20084568529E+04  0.61300000000E+03 0.  1.
<mgrwt>
<rscale>  0 0.23625735E+04</rscale>
<asrwt>0</asrwt>
<pdfrwt beam="1">  1        2 0.36187430E+00 0.23625735E+04</pdfrwt>
<pdfrwt beam="2">  1       -2 0.78696760E-01 0.23625735E+04</pdfrwt>
<totfact> 0.55039991E+00</totfact>
</mgrwt>
</event>
<event>
 8    1  0.7685004E-052  0.1754030E+04  0.7818608E-02  0.8731135E-01
          2   -1    0    0  501    0  0.00000000000E+00  0.00000000000E+00  0.16673682988E+04  0.16673682988E+04  0.25500000000E-02 0.  1.
         -2   -1    0    0    0  501 -0.00000000000E+00 -0.00000000000E+00 -0.46129886800E+03  0.46129886800E+03  0.25500000000E-02 0. -1.
     200001    2    1    2    0    0  0.29209102680E+03  0.55169406275E+03  0.53691582108E+03  0.10272049295E+04  0.61415621912E+03 0.  0.
    5000001    2    3    3    0    0 -0.83081650042E+02  0.16442167516E+03  0.42015284917E+03  0.46634039039E+03  0.83713172255E+02 0.  0.
        -13    1    4    4    0    0 -0.76468537454E+02  0.14453206344E+03  0.31345374317E+03  0.35353955204E+03  0.10566000000E+00 0. -1.
     200003    1    4    4    0    0 -0.66131125881E+01  0.19889611717E+02  0.10669910599E+03  0.11280083835E+03  0.30000000000E+02 0. -1.
     200000    1    3    3    0    0  0.37517267684E+03  0.38727238759E+03  0.11676297191E+03  0.56086453912E+03  0.10100000000E+03 0.  1.
    -200001    1    1    2    0    0 -0.29209102680E+03 -0.55169406275E+03  0.66915360978E+03  0.11014622373E+04  0.61300000000E+03 0. -1.
<mgrwt>
<rscale>  0 0.17540298E+04</rscale>
<asrwt>0</asrwt>
<pdfrwt beam="1">  1        2 0.23819547E+00 0.17540298E+04</pdfrwt>
<pdfrwt beam="2">  1       -2 0.65899839E-01 0.17540298E+04</pdfrwt>
<totfact> 0.24020302E+01</totfact>
</mgrwt>
</event>
<event>
 8    1  0.7685004E-052  0.1266417E+04  0.7818608E-02  0.9056629E-01
          2   -1    0    0  501    0  0.00000000000E+00  0.00000000000E+00  0.86089898929E+03  0.86089898930E+03  0.25500000000E-02 0.  1.
         -2   -1    0    0    0  501 -0.00000000000E+00 -0.00000000000E+00 -0.46573786675E+03  0.46573786676E+03  0.25500000000E-02 0. -1.
     200001    2    1    2    0    0  0.14170934601E+03  0.58844926698E+02  0.15385363719E+03  0.65021792770E+03  0.61283615077E+03 0.  0.
    5000001    2    3    3    0    0  0.23127727266E+03 -0.66587944813E+02 -0.15049539932E+03  0.29442985206E+03  0.78210877271E+02 0.  0.
        -13    1    4    4    0    0  0.83455095299E+02 -0.55263430005E+02 -0.76854733243E+02  0.12619612044E+03  0.10566000000E+00 0. -1.
     200003    1    4    4    0    0  0.14782217736E+03 -0.11324514807E+02 -0.73640666079E+02  0.16823373162E+03  0.30000000000E+02 0. -1.
     200000    1    3    3    0    0 -0.89567926655E+02  0.12543287151E+03  0.30434903652E+03  0.35578807564E+03  0.10100000000E+03 0.  1.
    -200001    1    1    2    0    0 -0.14170934601E+03 -0.58844926698E+02  0.24130748535E+03  0.67641892835E+03  0.61300000000E+03 0. -1.
<mgrwt>
<rscale>  0 0.12664174E+04</rscale>
<asrwt>0</asrwt>
<pdfrwt beam="1">  1        2 0.12298557E+00 0.12664174E+04</pdfrwt>
<pdfrwt beam="2">  1       -2 0.66533982E-01 0.12664174E+04</pdfrwt>
<totfact> 0.70485074E+01</totfact>
</mgrwt>
</event>
<event>
 8    1  0.7685004E-052  0.1333567E+04  0.7818608E-02  0.9003362E-01
         -2   -1    0    0    0  501 -0.00000000000E+00  0.00000000000E+00  0.60826070789E+03  0.60826070790E+03  0.25500000000E-02 0. -1.
          2   -1    0    0  501    0  0.00000000000E+00 -0.00000000000E+00 -0.73093668737E+03  0.73093668738E+03  0.25500000000E-02 0.  1.
     200001    2    1    2    0    0 -0.13025768600E+03  0.14440370827E+03  0.11529959684E+03  0.65347086768E+03  0.61311555367E+03 0.  0.
    5000001    2    3    3    0    0  0.17306591411E+03  0.15646011976E+03  0.79293459682E+00  0.31367189896E+03  0.20966127861E+03 0.  0.
        -13    1    4    4    0    0  0.10240500377E+03  0.19110608777E+03 -0.39377270452E+02  0.22036084536E+03  0.10566000000E+00 0. -1.
     200003    1    4    4    0    0  0.70660910346E+02 -0.34645968004E+02  0.40170205049E+02  0.93311053598E+02  0.30000000000E+02 0. -1.
     200000    1    3    3    0    0 -0.30332360011E+03 -0.12056411489E+02  0.11450666225E+03  0.33979896872E+03  0.10100000000E+03 0.  1.
    -200001    1    1    2    0    0  0.13025768600E+03 -0.14440370827E+03 -0.23797557632E+03  0.68572652760E+03  0.61300000000E+03 0.  1.
<mgrwt>
<rscale>  0 0.13335667E+04</rscale>
<asrwt>0</asrwt>
<pdfrwt beam="1">  1        2 0.10441953E+00 0.13335667E+04</pdfrwt>
<pdfrwt beam="2">  1       -2 0.86894387E-01 0.13335667E+04</pdfrwt>
<totfact> 0.47862142E+01</totfact>
</mgrwt>
</event>
<event>
 8    1  0.7685004E-052  0.1541844E+04  0.7818608E-02  0.8857094E-01
          2   -1    0    0  501    0  0.00000000000E+00  0.00000000000E+00  0.14902534924E+04  0.14902534924E+04  0.25500000000E-02 0.  1.
         -2   -1    0    0    0  501 -0.00000000000E+00 -0.00000000000E+00 -0.39880517268E+03  0.39880517269E+03  0.25500000000E-02 0. -1.
     200001    2    1    2    0    0  0.21629123268E+03  0.39957632839E+03  0.68509620564E+03  0.10245737432E+04  0.61151566191E+03 0.  0.
    5000001    2    3    3    0    0  0.33200857375E+03  0.46892089308E+03  0.44302124742E+03  0.72961534433E+03  0.77163644348E+02 0.  0.
        -13    1    4    4    0    0  0.13546352242E+03  0.24639912182E+03  0.20723197551E+03  0.34929642995E+03  0.10566000000E+00 0. -1.
     200003    1    4    4    0    0  0.19654505133E+03  0.22252177126E+03  0.23578927191E+03  0.38031891438E+03  0.30000000000E+02 0. -1.
     200000    1    3    3    0    0 -0.11571734107E+03 -0.69344564692E+02  0.24207495822E+03  0.29495839888E+03  0.10100000000E+03 0.  1.
    -200001    1    1    2    0    0 -0.21629123268E+03 -0.39957632839E+03  0.40635211409E+03  0.86448492188E+03  0.61300000000E+03 0.  1.
<mgrwt>
<rscale>  0 0.15418441E+04</rscale>
<asrwt>0</asrwt>
<pdfrwt beam="1">  1        2 0.21289336E+00 0.15418441E+04</pdfrwt>
<pdfrwt beam="2">  1       -2 0.56972166E-01 0.15418441E+04</pdfrwt>
<totfact> 0.41225256E+01</totfact>
</mgrwt>
</event>
<event>
 8    1  0.7685004E-052  0.1764588E+04  0.7818608E-02  0.8725361E-01
          2   -1    0    0  501    0  0.00000000000E+00  0.00000000000E+00  0.29920740653E+04  0.29920740653E+04  0.25500000000E-02 0.  1.
         -2   -1    0    0    0  501 -0.00000000000E+00 -0.00000000000E+00 -0.26016835000E+03  0.26016835001E+03  0.25500000000E-02 0. -1.
     200001    2    1    2    0    0 -0.29502110962E+03 -0.18590304546E+03  0.38885754083E+03  0.80535844884E+03  0.61302091859E+03 0.  0.
    5000001    2    3    3    0    0 -0.32163432024E+03 -0.30360433063E+03  0.45098578466E+03  0.63617578368E+03  0.75546172941E+02 0.  0.
        -13    1    4    4    0    0 -0.17350944114E+03 -0.17247610604E+03  0.20572581265E+03  0.31965083212E+03  0.10566000000E+00 0. -1.
     200003    1    4    4    0    0 -0.14812487910E+03 -0.13112822458E+03  0.24525997201E+03  0.31652495156E+03  0.30000000000E+02 0.  1.
     200000    1    3    3    0    0  0.26613210618E+02  0.11770128517E+03 -0.62128243833E+02  0.16918266516E+03  0.10100000000E+03 0.  1.
    -200001    1    1    2    0    0  0.29502110962E+03  0.18590304546E+03  0.23430481745E+04  0.24468839665E+04  0.61300000000E+03 0.  1.
<mgrwt>
<rscale>  0 0.17645883E+04</rscale>
<asrwt>0</asrwt>
<pdfrwt beam="1">  1        2 0.42743914E+00 0.17645883E+04</pdfrwt>
<pdfrwt beam="2">  1       -2 0.37166908E-01 0.17645883E+04</pdfrwt>
<totfact> 0.15471258E+01</totfact>
</mgrwt>
</event>
<event>
 8    1  0.7685004E-052  0.1767681E+04  0.7818608E-02  0.8723678E-01
         -2   -1    0    0    0  501 -0.00000000000E+00  0.00000000000E+00  0.54254743137E+03  0.54254743138E+03  0.25500000000E-02 0. -1.
          2   -1    0    0  501    0  0.00000000000E+00 -0.00000000000E+00 -0.14398260559E+04  0.14398260559E+04  0.25500000000E-02 0.  1.
     200001    2    1    2    0    0  0.20995912386E+02 -0.60064628266E+03 -0.21518941172E+03  0.88591031897E+03  0.61425876073E+03 0.  0.
    5000001    2    3    3    0    0  0.13019921656E+03 -0.72219758245E+02  0.14602322377E+03  0.22876838500E+03  0.94046066477E+02 0.  0.
        -13    1    4    4    0    0 -0.85952109269E+01 -0.48092323725E+01  0.34911878911E+02  0.36274740799E+02  0.10566000000E+00 0. -1.
     200003    1    4    4    0    0  0.13879442749E+03 -0.67410525873E+02  0.11111134486E+03  0.19249364420E+03  0.30000000000E+02 0. -1.
     200000    1    3    3    0    0 -0.10920330418E+03 -0.52842652441E+03 -0.36121263550E+03  0.65714193397E+03  0.10100000000E+03 0. -1.
    -200001    1    1    2    0    0 -0.20995912386E+02  0.60064628266E+03 -0.68208921275E+03  0.10964631683E+04  0.61300000000E+03 0.  1.
<mgrwt>
<rscale>  0 0.17676809E+04</rscale>
<asrwt>0</asrwt>
<pdfrwt beam="1">  1        2 0.20568944E+00 0.17676809E+04</pdfrwt>
<pdfrwt beam="2">  1       -2 0.77506776E-01 0.17676809E+04</pdfrwt>
<totfact> 0.22181910E+01</totfact>
</mgrwt>
</event>
<event>
 8    1  0.7685004E-052  0.1623489E+04  0.7818608E-02  0.8806246E-01
         -2   -1    0    0    0  501 -0.00000000000E+00  0.00000000000E+00  0.23711133639E+03  0.23711133640E+03  0.25500000000E-02 0. -1.
          2   -1    0    0  501    0  0.00000000000E+00 -0.00000000000E+00 -0.27789877625E+04  0.27789877625E+04  0.25500000000E-02 0.  1.
     200001    2    1    2    0    0 -0.39159924281E+03 -0.34912166895E+03 -0.11025674942E+04  0.13660642180E+04  0.61256874043E+03 0.  0.
    5000001    2    3    3    0    0 -0.26583413533E+03 -0.36065510734E+03 -0.11146488039E+04  0.12039012120E+04  0.78716442157E+02 0.  0.
        -13    1    4    4    0    0 -0.58787833126E+02 -0.13212153720E+03 -0.32988387603E+03  0.36018813521E+03  0.10566000000E+00 0. -1.
     200003    1    4    4    0    0 -0.20704630221E+03 -0.22853357014E+03 -0.78476492791E+03  0.84371307683E+03  0.30000000000E+02 0. -1.
     200000    1    3    3    0    0 -0.12576510748E+03  0.11533438388E+02  0.12081309741E+02  0.16216300597E+03  0.10100000000E+03 0. -1.
    -200001    1    1    2    0    0  0.39159924281E+03  0.34912166895E+03 -0.14393089319E+04  0.16500348809E+04  0.61300000000E+03 0.  1.
<mgrwt>
<rscale>  0 0.16234895E+04</rscale>
<asrwt>0</asrwt>
<pdfrwt beam="1">  1        2 0.39699823E+00 0.16234895E+04</pdfrwt>
<pdfrwt beam="2">  1       -2 0.33873050E-01 0.16234895E+04</pdfrwt>
<totfact> 0.24492017E+01</totfact>
</mgrwt>
</event>
<event>
 8    1  0.7685004E-052  0.1636628E+04  0.7818608E-02  0.8798357E-01
          2   -1    0    0  501    0  0.00000000000E+00  0.00000000000E+00  0.16536445475E+04  0.16536445475E+04  0.25500000000E-02 0.  1.
         -2   -1    0    0    0  501 -0.00000000000E+00 -0.00000000000E+00 -0.40494670960E+03  0.40494670960E+03  0.25500000000E-02 0. -1.
     200001    2    1    2    0    0  0.23224118611E+03  0.44293400143E+03  0.88874496973E+03  0.11894183368E+04  0.61214529363E+03 0.  0.
    5000001    2    3    3    0    0 -0.17440206712E+03  0.26131883144E+03  0.27388150133E+03  0.42351959012E+03  0.75194107275E+02 0.  0.
        -13    1    4    4    0    0 -0.99375958868E+02  0.19346861480E+03  0.18149219900E+03  0.28327568828E+03  0.10566000000E+00 0. -1.
     200003    1    4    4    0    0 -0.75026108250E+02  0.67850216638E+02  0.92389302330E+02  0.14024390184E+03  0.30000000000E+02 0. -1.
     200000    1    3    3    0    0  0.40664325322E+03  0.18161517000E+03  0.61486346841E+03  0.76589874667E+03  0.10100000000E+03 0.  1.
    -200001    1    1    2    0    0 -0.23224118611E+03 -0.44293400143E+03  0.35995286821E+03  0.86917292035E+03  0.61300000000E+03 0.  1.
<mgrwt>
<rscale>  0 0.16366281E+04</rscale>
<asrwt>0</asrwt>
<pdfrwt beam="1">  1        2 0.23623493E+00 0.16366281E+04</pdfrwt>
<pdfrwt beam="2">  1       -2 0.57849531E-01 0.16366281E+04</pdfrwt>
<totfact> 0.32506861E+01</totfact>
</mgrwt>
</event>
<event>
 8    1  0.7685004E-052  0.1540421E+04  0.7818608E-02  0.8858010E-01
         -2   -1    0    0    0  501 -0.00000000000E+00  0.00000000000E+00  0.16295178237E+03  0.16295178239E+03  0.25500000000E-02 0. -1.
          2   -1    0    0  501    0  0.00000000000E+00 -0.00000000000E+00 -0.36404891628E+04  0.36404891628E+04  0.25500000000E-02 0.  1.
     200001    2    1    2    0    0  0.41409968243E+03 -0.17969914804E+03 -0.20283517781E+04  0.21664686667E+04  0.61286639402E+03 0.  0.
    5000001    2    3    3    0    0  0.11133368643E+03 -0.31255619038E+03 -0.96781076195E+03  0.10510017290E+04  0.24054189133E+03 0.  0.
        -13    1    4    4    0    0  0.15945424959E+03 -0.20202088049E+03 -0.44907168871E+03  0.51759393991E+03  0.10566000000E+00 0. -1.
     200003    1    4    4    0    0 -0.48120563156E+02 -0.11053530989E+03 -0.51873907324E+03  0.53340778907E+03  0.30000000000E+02 0. -1.
     200000    1    3    3    0    0  0.30276599600E+03  0.13285704234E+03 -0.10605410162E+04  0.11154669377E+04  0.10100000000E+03 0.  1.
    -200001    1    1    2    0    0 -0.41409968243E+03  0.17969914804E+03 -0.14491856023E+04  0.16369722785E+04  0.61300000000E+03 0.  1.
<mgrwt>
<rscale>  0 0.15404210E+04</rscale>
<asrwt>0</asrwt>
<pdfrwt beam="1">  1        2 0.52006983E+00 0.15404210E+04</pdfrwt>
<pdfrwt beam="2">  1       -2 0.23278828E-01 0.15404210E+04</pdfrwt>
<totfact> 0.15652786E+01</totfact>
</mgrwt>
</event>
<event>
 8    1  0.7685004E-052  0.1369378E+04  0.7818608E-02  0.8976287E-01
          2   -1    0    0  501    0  0.00000000000E+00  0.00000000000E+00  0.87628653819E+03  0.87628653819E+03  0.25500000000E-02 0.  1.
         -2   -1    0    0    0  501 -0.00000000000E+00 -0.00000000000E+00 -0.53498404121E+03  0.53498404121E+03  0.25500000000E-02 0. -1.
     200001    2    1    2    0    0 -0.53298440256E+02 -0.16697201169E+03  0.42851471941E+03  0.76776817213E+03  0.61247263201E+03 0.  0.
    5000001    2    3    3    0    0  0.23848625527E+03  0.43674164076E+02  0.10622993154E+03  0.27423134027E+03  0.71658237980E+02 0.  0.
        -13    1    4    4    0    0  0.22693577987E+02  0.17694199323E+02  0.30959018694E+02  0.42267661090E+02  0.10566000000E+00 0. -1.
     200003    1    4    4    0    0  0.21579267729E+03  0.25979964754E+02  0.75270912847E+02  0.23196367918E+03  0.30000000000E+02 0. -1.
     200000    1    3    3    0    0 -0.29178469553E+03 -0.21064617576E+03  0.32228478787E+03  0.49353683186E+03  0.10100000000E+03 0.  1.
    -200001    1    1    2    0    0  0.53298440256E+02  0.16697201169E+03 -0.87212222436E+02  0.64350240727E+03  0.61300000000E+03 0. -1.
<mgrwt>
<rscale>  0 0.13693784E+04</rscale>
<asrwt>0</asrwt>
<pdfrwt beam="1">  1        2 0.12518379E+00 0.13693784E+04</pdfrwt>
<pdfrwt beam="2">  1       -2 0.76426291E-01 0.13693784E+04</pdfrwt>
<totfact> 0.50438014E+01</totfact>
</mgrwt>
</event>
<event>
 8    1  0.7685004E-052  0.2135552E+04  0.7818608E-02  0.8545742E-01
          2   -1    0    0  501    0  0.00000000000E+00  0.00000000000E+00  0.23873560029E+04  0.23873560029E+04  0.25500000000E-02 0.  1.
         -2   -1    0    0    0  501 -0.00000000000E+00 -0.00000000000E+00 -0.47757658690E+03  0.47757658691E+03  0.25500000000E-02 0. -1.
     200001    2    1    2    0    0  0.49786502074E+03 -0.47458234965E+03  0.16766334053E+04  0.19145515884E+04  0.61750321751E+03 0.  0.
    5000001    2    3    3    0    0  0.28743743534E+03 -0.59182444501E+03  0.12123848116E+04  0.13818666587E+04  0.82474712011E+02 0.  0.
        -13    1    4    4    0    0  0.13249829143E+02 -0.81118341425E+02  0.13406221594E+03  0.15725276530E+03  0.10566000000E+00 0. -1.
     200003    1    4    4    0    0  0.27418760619E+03 -0.51070610359E+03  0.10783225957E+04  0.12246138934E+04  0.30000000000E+02 0. -1.
     200000    1    3    3    0    0  0.21042758540E+03  0.11724209537E+03  0.46424859364E+03  0.53268492969E+03  0.10100000000E+03 0. -1.
    -200001    1    1    2    0    0 -0.49786502074E+03  0.47458234965E+03  0.23314601072E+03  0.95038100138E+03  0.61300000000E+03 0.  1.
<mgrwt>
<rscale>  0 0.21355518E+04</rscale>
<asrwt>0</asrwt>
<pdfrwt beam="1">  1        2 0.34105086E+00 0.21355518E+04</pdfrwt>
<pdfrwt beam="2">  1       -2 0.68225226E-01 0.21355518E+04</pdfrwt>
<totfact> 0.91646466E+00</totfact>
</mgrwt>
</event>
<event>
 8    1  0.7685004E-052  0.1248692E+04  0.7818608E-02  0.9071272E-01
         -2   -1    0    0    0  501 -0.00000000000E+00  0.00000000000E+00  0.25669077718E+03  0.25669077719E+03  0.25500000000E-02 0. -1.
          2   -1    0    0  501    0  0.00000000000E+00 -0.00000000000E+00 -0.15185900608E+04  0.15185900608E+04  0.25500000000E-02 0.  1.
     200001    2    1    2    0    0 -0.98774190431E+02  0.51876785073E+02 -0.57923404407E+03  0.85102526142E+03  0.61342022810E+03 0.  0.
    5000001    2    3    3    0    0 -0.25236934800E+03 -0.17093310699E+03 -0.40968313140E+03  0.51608611408E+03  0.74807714305E+02 0.  0.
        -13    1    4    4    0    0 -0.10618365254E+03 -0.10929057233E+03 -0.19656376133E+03  0.24871011379E+03  0.10566000000E+00 0. -1.
     200003    1    4    4    0    0 -0.14618569546E+03 -0.61642534666E+02 -0.21311937006E+03  0.26737600029E+03  0.30000000000E+02 0. -1.
     200000    1    3    3    0    0  0.15359515757E+03  0.22280989207E+03 -0.16955091267E+03  0.33493914734E+03  0.10100000000E+03 0.  1.
    -200001    1    1    2    0    0  0.98774190431E+02 -0.51876785073E+02 -0.68266523953E+03  0.92425557655E+03  0.61300000000E+03 0. -1.
<mgrwt>
<rscale>  0 0.12486922E+04</rscale>
<asrwt>0</asrwt>
<pdfrwt beam="1">  1        2 0.21694143E+00 0.12486922E+04</pdfrwt>
<pdfrwt beam="2">  1       -2 0.36670112E-01 0.12486922E+04</pdfrwt>
<totfact> 0.98385620E+01</totfact>
</mgrwt>
</event>
<event>
 8    1  0.7685004E-052  0.1651361E+04  0.7818608E-02  0.8789602E-01
          2   -1    0    0  501    0  0.00000000000E+00  0.00000000000E+00  0.11552299648E+04  0.11552299648E+04  0.25500000000E-02 0.  1.
         -2   -1    0    0    0  501 -0.00000000000E+00 -0.00000000000E+00 -0.59014067079E+03  0.59014067080E+03  0.25500000000E-02 0. -1.
     200001    2    1    2    0    0 -0.21136159495E+03 -0.33685305091E+03  0.69681973233E+03  0.10028980030E+04  0.60174991761E+03 0.  0.
    5000001    2    3    3    0    0 -0.25657543564E+03  0.14401619807E+02  0.70770420045E+02  0.27656276601E+03  0.73757374990E+02 0.  0.
        -13    1    4    4    0    0 -0.18202225951E+03  0.18959827920E+02  0.70368918467E+02  0.19606981890E+03  0.10566000000E+00 0. -1.
     200003    1    4    4    0    0 -0.74553176123E+02 -0.45582081121E+01  0.40150157811E+00  0.80492947112E+02  0.30000000000E+02 0. -1.
     200000    1    3    3    0    0  0.45213840690E+02 -0.35125467072E+03  0.62604931228E+03  0.72633523699E+03  0.10100000000E+03 0. -1.
    -200001    1    1    2    0    0  0.21136159495E+03  0.33685305091E+03 -0.13173043835E+03  0.74247263257E+03  0.61300000000E+03 0.  1.
<mgrwt>
<rscale>  0 0.16513609E+04</rscale>
<asrwt>0</asrwt>
<pdfrwt beam="1">  1        2 0.16503285E+00 0.16513609E+04</pdfrwt>
<pdfrwt beam="2">  1       -2 0.84305809E-01 0.16513609E+04</pdfrwt>
<totfact> 0.26660894E+01</totfact>
</mgrwt>
</event>
<event>
 8    1  0.7685004E-052  0.1985150E+04  0.7818608E-02  0.8613595E-01
         -2   -1    0    0    0  501 -0.00000000000E+00  0.00000000000E+00  0.13906230483E+04  0.13906230483E+04  0.25500000000E-02 0. -1.
          2   -1    0    0  501    0  0.00000000000E+00 -0.00000000000E+00 -0.70846283533E+03  0.70846283533E+03  0.25500000000E-02 0.  1.
     200001    2    1    2    0    0 -0.43788959438E+03 -0.17140115766E+03 -0.31778400657E+03  0.83544705236E+03  0.61307377105E+03 0.  0.
    5000001    2    3    3    0    0 -0.44359552676E+03  0.98124531240E+02 -0.20177358506E+03  0.52506652375E+03  0.16904691579E+03 0.  0.
        -13    1    4    4    0    0 -0.20401597390E+03  0.12887536207E+03 -0.10369755363E+03  0.26264913924E+03  0.10566000000E+00 0. -1.
     200003    1    4    4    0    0 -0.23957955287E+03 -0.30750830830E+02 -0.98076031427E+02  0.26241738450E+03  0.30000000000E+02 0. -1.
     200000    1    3    3    0    0  0.57059323799E+01 -0.26952568890E+03 -0.11601042151E+03  0.31038052861E+03  0.10100000000E+03 0. -1.
    -200001    1    1    2    0    0  0.43788959438E+03  0.17140115766E+03  0.99994421952E+03  0.12636388313E+04  0.61300000000E+03 0. -1.
<mgrwt>
<rscale>  0 0.19851496E+04</rscale>
<asrwt>0</asrwt>
<pdfrwt beam="1">  1        2 0.10120898E+00 0.19851496E+04</pdfrwt>
<pdfrwt beam="2">  1       -2 0.19866044E+00 0.19851496E+04</pdfrwt>
<totfact> 0.56147723E+00</totfact>
</mgrwt>
</event>
<event>
 8    1  0.7685004E-052  0.1526587E+04  0.7818608E-02  0.8866963E-01
         -2   -1    0    0    0  501 -0.00000000000E+00  0.00000000000E+00  0.40514836444E+03  0.40514836445E+03  0.25500000000E-02 0.  1.
          2   -1    0    0  501    0  0.00000000000E+00 -0.00000000000E+00 -0.14380343996E+04  0.14380343996E+04  0.25500000000E-02 0. -1.
     200001    2    1    2    0    0 -0.41432373234E+02 -0.45349225880E+03 -0.53180853888E+03  0.92982657527E+03  0.61187030301E+03 0.  0.
    5000001    2    3    3    0    0  0.85154784792E+02  0.67925961566E+02 -0.31584738517E+03  0.34267966945E+03  0.76187344782E+02 0.  0.
        -13    1    4    4    0    0  0.63331155001E+02  0.66967538882E+02 -0.25781921009E+03  0.27379963972E+03  0.10566000000E+00 0. -1.
     200003    1    4    4    0    0  0.21823629792E+02  0.95842268395E+00 -0.58028175082E+02  0.68880029723E+02  0.30000000000E+02 0. -1.
     200000    1    3    3    0    0 -0.12658715803E+03 -0.52141822037E+03 -0.21596115371E+03  0.58714690583E+03  0.10100000000E+03 0.  1.
    -200001    1    1    2    0    0  0.41432373234E+02  0.45349225880E+03 -0.50107749631E+03  0.91335618882E+03  0.61300000000E+03 0.  1.
<mgrwt>
<rscale>  0 0.15265874E+04</rscale>
<asrwt>0</asrwt>
<pdfrwt beam="1">  1        2 0.20543348E+00 0.15265874E+04</pdfrwt>
<pdfrwt beam="2">  1       -2 0.57878339E-01 0.15265874E+04</pdfrwt>
<totfact> 0.42586258E+01</totfact>
</mgrwt>
</event>
<event>
 8    1  0.7685004E-052  0.1332477E+04  0.7818608E-02  0.9004200E-01
         -2   -1    0    0    0  501 -0.00000000000E+00  0.00000000000E+00  0.19963113153E+03  0.19963113155E+03  0.25500000000E-02 0. -1.
          2   -1    0    0  501    0  0.00000000000E+00 -0.00000000000E+00 -0.22234681371E+04  0.22234681371E+04  0.25500000000E-02 0.  1.
     200001    2    1    2    0    0  0.21912848590E+02  0.26154280295E+01 -0.53782642551E+03  0.81546639468E+03  0.61256931321E+03 0.  0.
    5000001    2    3    3    0    0  0.17526013945E+03  0.17716220826E+03 -0.67105406484E+02  0.28089998360E+03  0.11090131060E+03 0.  0.
        -13    1    4    4    0    0  0.15757083560E+03  0.11215040455E+03 -0.22508983165E+02  0.19471247253E+03  0.10566000000E+00 0. -1.
     200003    1    4    4    0    0  0.17689303853E+02  0.65011803708E+02 -0.44596423319E+02  0.86187511073E+02  0.30000000000E+02 0. -1.
     200000    1    3    3    0    0 -0.15334729086E+03 -0.17454678023E+03 -0.47072101903E+03  0.53456641108E+03  0.10100000000E+03 0.  1.
    -200001    1    1    2    0    0 -0.21912848590E+02 -0.26154280295E+01 -0.14860105800E+04  0.16076328739E+04  0.61300000000E+03 0.  1.
<mgrwt>
<rscale>  0 0.13324766E+04</rscale>
<asrwt>0</asrwt>
<pdfrwt beam="1">  1        2 0.31763829E+00 0.13324766E+04</pdfrwt>
<pdfrwt beam="2">  1       -2 0.28518734E-01 0.13324766E+04</pdfrwt>
<totfact> 0.67884815E+01</totfact>
</mgrwt>
</event>
<event>
 8    1  0.7685004E-052  0.1288873E+04  0.7818608E-02  0.9038436E-01
          2   -1    0    0  501    0  0.00000000000E+00  0.00000000000E+00  0.15303155469E+04  0.15303155469E+04  0.25500000000E-02 0.  1.
         -2   -1    0    0    0  501 -0.00000000000E+00 -0.00000000000E+00 -0.27138091689E+03  0.27138091690E+03  0.25500000000E-02 0. -1.
     200001    2    1    2    0    0  0.17931448278E+03 -0.29882977805E+02  0.54574353758E+03  0.84385659702E+03  0.61742308947E+03 0.  0.
    5000001    2    3    3    0    0  0.82392663338E+02 -0.11713002256E+03 -0.93237266882E+02  0.18392981746E+03  0.68036730222E+02 0.  0.
        -13    1    4    4    0    0  0.54167336538E+02 -0.69881271567E+02 -0.26344886167E+02  0.92258098044E+02  0.10566000000E+00 0. -1.
     200003    1    4    4    0    0  0.28225326799E+02 -0.47248750988E+02 -0.66892380715E+02  0.91671719415E+02  0.30000000000E+02 0. -1.
     200000    1    3    3    0    0  0.96921819443E+02  0.87247044750E+02  0.63898080446E+03  0.65992677956E+03  0.10100000000E+03 0.  1.
    -200001    1    1    2    0    0 -0.17931448278E+03  0.29882977805E+02  0.71319109244E+03  0.95783986680E+03  0.61300000000E+03 0.  1.
<mgrwt>
<rscale>  0 0.12888731E+04</rscale>
<asrwt>0</asrwt>
<pdfrwt beam="1">  1        2 0.21861651E+00 0.12888731E+04</pdfrwt>
<pdfrwt beam="2">  1       -2 0.38768702E-01 0.12888731E+04</pdfrwt>
<totfact> 0.86850308E+01</totfact>
</mgrwt>
</event>
<event>
 8    1  0.7685004E-052  0.1574648E+04  0.7818608E-02  0.8836276E-01
          2   -1    0    0  501    0  0.00000000000E+00  0.00000000000E+00  0.20825441134E+04  0.20825441134E+04  0.25500000000E-02 0.  1.
         -2   -1    0    0    0  501 -0.00000000000E+00 -0.00000000000E+00 -0.29765471569E+03  0.29765471570E+03  0.25500000000E-02 0. -1.
     200001    2    1    2    0    0 -0.33945650431E+03 -0.19822476709E+03  0.13432015036E+04  0.15285058255E+04  0.61450468073E+03 0.  0.
    5000001    2    3    3    0    0 -0.13808243777E+03 -0.85915548961E+02  0.12432991813E+04  0.12576805143E+04  0.97566289300E+02 0.  0.
        -13    1    4    4    0    0 -0.11526511966E+03 -0.29707395753E+02  0.68114104065E+03  0.69146345210E+03  0.10566000000E+00 0. -1.
     200003    1    4    4    0    0 -0.22817318111E+02 -0.56208153208E+02  0.56215814061E+03  0.56621706221E+03  0.30000000000E+02 0. -1.
     200000    1    3    3    0    0 -0.20137406653E+03 -0.11230921813E+03  0.99902322323E+02  0.27082531114E+03  0.10100000000E+03 0. -1.
    -200001    1    1    2    0    0  0.33945650431E+03  0.19822476709E+03  0.44168789410E+03  0.85169300361E+03  0.61300000000E+03 0. -1.
<mgrwt>
<rscale>  0 0.15746480E+04</rscale>
<asrwt>0</asrwt>
<pdfrwt beam="1">  1        2 0.29750630E+00 0.15746480E+04</pdfrwt>
<pdfrwt beam="2">  1       -2 0.42522103E-01 0.15746480E+04</pdfrwt>
<totfact> 0.36705110E+01</totfact>
</mgrwt>
</event>
<event>
 8    1  0.7685004E-052  0.1845148E+04  0.7818608E-02  0.8682652E-01
          2   -1    0    0  501    0  0.00000000000E+00  0.00000000000E+00  0.73825899527E+03  0.73825899527E+03  0.25500000000E-02 0.  1.
         -2   -1    0    0    0  501 -0.00000000000E+00 -0.00000000000E+00 -0.11529050107E+04  0.11529050107E+04  0.25500000000E-02 0. -1.
     200001    2    1    2    0    0 -0.46458332295E+03  0.38942462368E+03 -0.54378836746E+03  0.10194209541E+04  0.61320803285E+03 0.  0.
    5000001    2    3    3    0    0 -0.56519532717E+03  0.20026747903E+03 -0.28699508521E+03  0.67006870983E+03  0.84101581097E+02 0.  0.
        -13    1    4    4    0    0 -0.36443939254E+03  0.12311379716E+03 -0.21835267792E+03  0.44232452002E+03  0.10566000000E+00 0. -1.
     200003    1    4    4    0    0 -0.20075593462E+03  0.77153681879E+02 -0.68642407288E+02  0.22774418981E+03  0.30000000000E+02 0. -1.
     200000    1    3    3    0    0  0.10061200421E+03  0.18915714465E+03 -0.25679328225E+03  0.34935224426E+03  0.10100000000E+03 0.  1.
    -200001    1    1    2    0    0  0.46458332295E+03 -0.38942462368E+03  0.12914235200E+03  0.87174305192E+03  0.61300000000E+03 0.  1.
<mgrwt>
<rscale>  0 0.18451477E+04</rscale>
<asrwt>0</asrwt>
<pdfrwt beam="1">  1        2 0.10546557E+00 0.18451477E+04</pdfrwt>
<pdfrwt beam="2">  1       -2 0.16470071E+00 0.18451477E+04</pdfrwt>
<totfact> 0.92423688E+00</totfact>
</mgrwt>
</event>
<event>
 8    1  0.7685004E-052  0.1426091E+04  0.7818608E-02  0.8935146E-01
         -2   -1    0    0    0  501 -0.00000000000E+00  0.00000000000E+00  0.49547980296E+03  0.49547980296E+03  0.25500000000E-02 0. -1.
          2   -1    0    0  501    0  0.00000000000E+00 -0.00000000000E+00 -0.10261448863E+04  0.10261448863E+04  0.25500000000E-02 0.  1.
     200001    2    1    2    0    0  0.14976571553E+03  0.29073317128E+03 -0.45514007299E+03  0.82274803807E+03  0.60233404492E+03 0.  0.
    5000001    2    3    3    0    0  0.23062847867E+03 -0.62840233191E+02 -0.35340546235E+03  0.43274307680E+03  0.72337815941E+02 0.  0.
        -13    1    4    4    0    0  0.11530529932E+03 -0.20709062679E+02 -0.21821421619E+03  0.24767243012E+03  0.10566000000E+00 0. -1.
     200003    1    4    4    0    0  0.11532317935E+03 -0.42131170512E+02 -0.13519124616E+03  0.18507064668E+03  0.30000000000E+02 0. -1.
     200000    1    3    3    0    0 -0.80862763139E+02  0.35357340447E+03 -0.10173461064E+03  0.39000496127E+03  0.10100000000E+03 0.  1.
    -200001    1    1    2    0    0 -0.14976571553E+03 -0.29073317128E+03 -0.75525010375E+02  0.69887665122E+03  0.61300000000E+03 0. -1.
<mgrwt>
<rscale>  0 0.14260913E+04</rscale>
<asrwt>0</asrwt>
<pdfrwt beam="1">  1        2 0.14659213E+00 0.14260913E+04</pdfrwt>
<pdfrwt beam="2">  1       -2 0.70782829E-01 0.14260913E+04</pdfrwt>
<totfact> 0.47777908E+01</totfact>
</mgrwt>
</event>
<event>
 8    1  0.7685004E-052  0.1407839E+04  0.7818608E-02  0.8948164E-01
         -2   -1    0    0    0  501 -0.00000000000E+00  0.00000000000E+00  0.29374783198E+03  0.29374783199E+03  0.25500000000E-02 0. -1.
          2   -1    0    0  501    0  0.00000000000E+00 -0.00000000000E+00 -0.16868298872E+04  0.16868298872E+04  0.25500000000E-02 0.  1.
     200001    2    1    2    0    0 -0.22282437764E+03  0.25797166312E+03 -0.61108924705E+03  0.93011028312E+03  0.61276013958E+03 0.  0.
    5000001    2    3    3    0    0 -0.12603489748E+03  0.36191198879E+03 -0.12353010882E+03  0.41233938008E+03  0.88876282326E+02 0.  0.
        -13    1    4    4    0    0 -0.80030578605E+02  0.23766520535E+03 -0.43054714788E+02  0.25444717129E+03  0.10566000000E+00 0. -1.
     200003    1    4    4    0    0 -0.46004318872E+02  0.12424678344E+03 -0.80475394037E+02  0.15789220879E+03  0.30000000000E+02 0.  1.
     200000    1    3    3    0    0 -0.96789480160E+02 -0.10394032567E+03 -0.48755913822E+03  0.51777090304E+03  0.10100000000E+03 0.  1.
    -200001    1    1    2    0    0  0.22282437764E+03 -0.25797166312E+03 -0.78199280821E+03  0.10504674361E+04  0.61300000000E+03 0.  1.
<mgrwt>
<rscale>  0 0.14078389E+04</rscale>
<asrwt>0</asrwt>
<pdfrwt beam="1">  1        2 0.24097569E+00 0.14078389E+04</pdfrwt>
<pdfrwt beam="2">  1       -2 0.41963977E-01 0.14078389E+04</pdfrwt>
<totfact> 0.61045628E+01</totfact>
</mgrwt>
</event>
<event>
 8    1  0.7685004E-052  0.1499506E+04  0.7818608E-02  0.8884782E-01
         -2   -1    0    0    0  501 -0.00000000000E+00  0.00000000000E+00  0.58052899764E+03  0.58052899765E+03  0.25500000000E-02 0. -1.
          2   -1    0    0  501    0  0.00000000000E+00 -0.00000000000E+00 -0.96830572234E+03  0.96830572234E+03  0.25500000000E-02 0.  1.
     200001    2    1    2    0    0  0.56270592611E+02  0.42799107310E+03 -0.19144215156E+03  0.77381278297E+03  0.61301989157E+03 0.  0.
    5000001    2    3    3    0    0  0.70976018068E+02 -0.79950759771E+02  0.25041153853E+02  0.21230839596E+03  0.18170876830E+03 0.  0.
        -13    1    4    4    0    0 -0.24636948374E+01 -0.70959458937E+02  0.86243307125E+02  0.11171049097E+03  0.10566000000E+00 0. -1.
     200003    1    4    4    0    0  0.73439712906E+02 -0.89913008340E+01 -0.61202153272E+02  0.10059790499E+03  0.30000000000E+02 0. -1.
     200000    1    3    3    0    0 -0.14705425457E+02  0.50794183287E+03 -0.21648330542E+03  0.56150438702E+03  0.10100000000E+03 0.  1.
    -200001    1    1    2    0    0 -0.56270592611E+02 -0.42799107310E+03 -0.19633457313E+03  0.77502193701E+03  0.61300000000E+03 0.  1.
<mgrwt>
<rscale>  0 0.14995060E+04</rscale>
<asrwt>0</asrwt>
<pdfrwt beam="1">  1        2 0.13832939E+00 0.14995060E+04</pdfrwt>
<pdfrwt beam="2">  1       -2 0.82932714E-01 0.14995060E+04</pdfrwt>
<totfact> 0.36268738E+01</totfact>
</mgrwt>
</event>
<event>
 8    1  0.7685004E-052  0.2057455E+04  0.7818608E-02  0.8580220E-01
          2   -1    0    0  501    0  0.00000000000E+00  0.00000000000E+00  0.72705836727E+03  0.72705836728E+03  0.25500000000E-02 0. -1.
         -2   -1    0    0    0  501 -0.00000000000E+00 -0.00000000000E+00 -0.14555645065E+04  0.14555645065E+04  0.25500000000E-02 0.  1.
     200001    2    1    2    0    0  0.59529415154E+03 -0.48117518381E+03 -0.34507739063E+02  0.98124555427E+03  0.61298235649E+03 0.  0.
    5000001    2    3    3    0    0  0.11908607088E+03 -0.27515950795E+03 -0.26444280926E+03  0.40480151424E+03  0.63561147515E+02 0.  0.
        -13    1    4    4    0    0  0.37840791041E+02 -0.50226158459E+02 -0.77299084698E+02  0.99648141575E+02  0.10566000000E+00 0. -1.
     200003    1    4    4    0    0  0.81245279838E+02 -0.22493334949E+03 -0.18714372456E+03  0.30515337267E+03  0.30000000000E+02 0. -1.
     200000    1    3    3    0    0  0.47620808066E+03 -0.20601567586E+03  0.22993507019E+03  0.57644404003E+03  0.10100000000E+03 0. -1.
    -200001    1    1    2    0    0 -0.59529415154E+03  0.48117518381E+03 -0.69399840013E+03  0.12013773195E+04  0.61300000000E+03 0.  1.
<mgrwt>
<rscale>  0 0.20574551E+04</rscale>
<asrwt>0</asrwt>
<pdfrwt beam="1">  1        2 0.10386548E+00 0.20574551E+04</pdfrwt>
<pdfrwt beam="2">  1       -2 0.20793779E+00 0.20574551E+04</pdfrwt>
<totfact> 0.47025549E+00</totfact>
</mgrwt>
</event>
<event>
 8    1  0.7685004E-052  0.1497826E+04  0.7818608E-02  0.8885900E-01
          2   -1    0    0  501    0  0.00000000000E+00  0.00000000000E+00  0.30294876729E+04  0.30294876729E+04  0.25500000000E-02 0.  1.
         -2   -1    0    0    0  501 -0.00000000000E+00 -0.00000000000E+00 -0.18513715590E+03  0.18513715592E+03  0.25500000000E-02 0. -1.
     200001    2    1    2    0    0  0.28744268520E+02 -0.41351718628E+03  0.11754048887E+04  0.13889821456E+04  0.61308404993E+03 0.  0.
    5000001    2    3    3    0    0  0.18366092725E+03 -0.42445925213E+03  0.10860780326E+04  0.11833144837E+04  0.82284151241E+02 0.  0.
        -13    1    4    4    0    0  0.26976601672E+02 -0.19600756571E+02  0.57422704908E+02  0.66402597080E+02  0.10566000000E+00 0. -1.
     200003    1    4    4    0    0  0.15668432558E+03 -0.40485849555E+03  0.10286553277E+04  0.11169118866E+04  0.30000000000E+02 0. -1.
     200000    1    3    3    0    0 -0.15491665873E+03  0.10942065845E+02  0.89326856106E+02  0.20566766197E+03  0.10100000000E+03 0. -1.
    -200001    1    1    2    0    0 -0.28744268520E+02  0.41351718628E+03  0.16689456283E+04  0.18256426831E+04  0.61300000000E+03 0.  1.
<mgrwt>
<rscale>  0 0.14978261E+04</rscale>
<asrwt>0</asrwt>
<pdfrwt beam="1">  1        2 0.43278391E+00 0.14978261E+04</pdfrwt>
<pdfrwt beam="2">  1       -2 0.26448168E-01 0.14978261E+04</pdfrwt>
<totfact> 0.28593274E+01</totfact>
</mgrwt>
</event>
<event>
 8    1  0.7685004E-052  0.1513996E+04  0.7818608E-02  0.8875199E-01
          2   -1    0    0  501    0  0.00000000000E+00  0.00000000000E+00  0.81345882564E+03  0.81345882565E+03  0.25500000000E-02 0. -1.
         -2   -1    0    0    0  501 -0.00000000000E+00 -0.00000000000E+00 -0.70445597327E+03  0.70445597327E+03  0.25500000000E-02 0.  1.
     200001    2    1    2    0    0 -0.10612928251E+03 -0.77382947773E+02 -0.37162343526E+03  0.72796405769E+03  0.61202626287E+03 0.  0.
    5000001    2    3    3    0    0  0.15142367526E+03 -0.44293262803E+02 -0.41076255044E+03  0.44660783571E+03  0.76430775994E+02 0.  0.
        -13    1    4    4    0    0  0.54812695497E+02 -0.25238891287E+01 -0.21940897263E+03  0.22616611160E+03  0.10566000000E+00 0. -1.
     200003    1    4    4    0    0  0.96610979764E+02 -0.41769373674E+02 -0.19135357781E+03  0.22044172411E+03  0.30000000000E+02 0. -1.
     200000    1    3    3    0    0 -0.25755295777E+03 -0.33089684970E+02  0.39139115177E+02  0.28135622197E+03  0.10100000000E+03 0. -1.
    -200001    1    1    2    0    0  0.10612928251E+03  0.77382947773E+02  0.48062628764E+03  0.78995074124E+03  0.61300000000E+03 0. -1.
<mgrwt>
<rscale>  0 0.15139959E+04</rscale>
<asrwt>0</asrwt>
<pdfrwt beam="1">  1        2 0.11620840E+00 0.15139959E+04</pdfrwt>
<pdfrwt beam="2">  1       -2 0.10063657E+00 0.15139959E+04</pdfrwt>
<totfact> 0.29275603E+01</totfact>
</mgrwt>
</event>
<event>
 8    1  0.7685004E-052  0.1301464E+04  0.7818608E-02  0.9028405E-01
         -2   -1    0    0    0  501 -0.00000000000E+00  0.00000000000E+00  0.16452608102E+03  0.16452608104E+03  0.25500000000E-02 0. -1.
          2   -1    0    0  501    0  0.00000000000E+00 -0.00000000000E+00 -0.25737704638E+04  0.25737704638E+04  0.25500000000E-02 0.  1.
     200001    2    1    2    0    0  0.19695592499E+03 -0.38600638953E+02 -0.13620989515E+04  0.15084330565E+04  0.61625894439E+03 0.  0.
    5000001    2    3    3    0    0  0.31900602285E+03 -0.18400848207E+03 -0.11264181970E+04  0.11893937403E+04  0.10107200836E+03 0.  0.
        -13    1    4    4    0    0  0.39585671398E+02 -0.54678439294E+02 -0.28565918884E+03  0.29352672865E+03  0.10566000000E+00 0. -1.
     200003    1    4    4    0    0  0.27942035145E+03 -0.12933004278E+03 -0.84075900820E+03  0.89586701169E+03  0.30000000000E+02 0. -1.
     200000    1    3    3    0    0 -0.12205009786E+03  0.14540784312E+03 -0.23568075451E+03  0.31903931619E+03  0.10100000000E+03 0.  1.
    -200001    1    1    2    0    0 -0.19695592499E+03  0.38600638953E+02 -0.10471454312E+04  0.12298634883E+04  0.61300000000E+03 0.  1.
<mgrwt>
<rscale>  0 0.13014644E+04</rscale>
<asrwt>0</asrwt>
<pdfrwt beam="1">  1        2 0.36768147E+00 0.13014644E+04</pdfrwt>
<pdfrwt beam="2">  1       -2 0.23503727E-01 0.13014644E+04</pdfrwt>
<totfact> 0.63604027E+01</totfact>
</mgrwt>
</event>
<event>
 8    1  0.7685004E-052  0.1343210E+04  0.7818608E-02  0.8995984E-01
          2   -1    0    0  501    0  0.00000000000E+00  0.00000000000E+00  0.23403966785E+04  0.23403966785E+04  0.25500000000E-02 0.  1.
         -2   -1    0    0    0  501 -0.00000000000E+00 -0.00000000000E+00 -0.19272509341E+03  0.19272509343E+03  0.25500000000E-02 0. -1.
     200001    2    1    2    0    0  0.46085859135E+02  0.18358995505E+03  0.14481014330E+04  0.15839133777E+04  0.61315140854E+03 0.  0.
    5000001    2    3    3    0    0 -0.20234553285E+03 -0.31462437491E+02  0.70159784272E+03  0.76206527837E+03  0.21580165884E+03 0.  0.
        -13    1    4    4    0    0 -0.13180517492E+01  0.33160351174E+02  0.34471437334E+03  0.34630818139E+03  0.10566000000E+00 0. -1.
     200003    1    4    4    0    0 -0.20102748110E+03 -0.64622788665E+02  0.35688346938E+03  0.41575709698E+03  0.30000000000E+02 0. -1.
     200000    1    3    3    0    0  0.24843139198E+03  0.21505239254E+03  0.74650359026E+03  0.82184809931E+03  0.10100000000E+03 0.  1.
    -200001    1    1    2    0    0 -0.46085859135E+02 -0.18358995505E+03  0.69957015214E+03  0.94920839428E+03  0.61300000000E+03 0. -1.
<mgrwt>
<rscale>  0 0.13432098E+04</rscale>
<asrwt>0</asrwt>
<pdfrwt beam="1">  1        2 0.33434241E+00 0.13432098E+04</pdfrwt>
<pdfrwt beam="2">  1       -2 0.27532154E-01 0.13432098E+04</pdfrwt>
<totfact> 0.62975560E+01</totfact>
</mgrwt>
</event>
<event>
 8    1  0.7685004E-052  0.1304985E+04  0.7818608E-02  0.9025621E-01
          2   -1    0    0  501    0  0.00000000000E+00  0.00000000000E+00  0.98360494939E+03  0.98360494939E+03  0.25500000000E-02 0.  1.
         -2   -1    0    0    0  501 -0.00000000000E+00 -0.00000000000E+00 -0.43284291823E+03  0.43284291824E+03  0.25500000000E-02 0. -1.
     200001    2    1    2    0    0  0.40662553546E+02  0.60274344030E+02  0.50343292432E+03  0.79733924698E+03  0.61401850598E+03 0.  0.
    5000001    2    3    3    0    0 -0.12136598108E+02 -0.14788884648E+03 -0.42076787843E+02  0.20244302884E+03  0.13112709835E+03 0.  0.
        -13    1    4    4    0    0 -0.42544427880E+02 -0.74377585780E+02  0.30200269343E+02  0.90852193383E+02  0.10566000000E+00 0. -1.
     200003    1    4    4    0    0  0.30407829773E+02 -0.73511260705E+02 -0.72277057186E+02  0.11159083545E+03  0.30000000000E+02 0. -1.
     200000    1    3    3    0    0  0.52799151653E+02  0.20816319051E+03  0.54550971216E+03  0.59489621814E+03  0.10100000000E+03 0.  1.
    -200001    1    1    2    0    0 -0.40662553546E+02 -0.60274344030E+02  0.47329106840E+02  0.61910862065E+03  0.61300000000E+03 0. -1.
<mgrwt>
<rscale>  0 0.13049850E+04</rscale>
<asrwt>0</asrwt>
<pdfrwt beam="1">  1        2 0.14051499E+00 0.13049850E+04</pdfrwt>
<pdfrwt beam="2">  1       -2 0.61834703E-01 0.13049850E+04</pdfrwt>
<totfact> 0.68516302E+01</totfact>
</mgrwt>
</event>
<event>
 8    1  0.7685004E-052  0.1257392E+04  0.7818608E-02  0.9064053E-01
         -2   -1    0    0    0  501 -0.00000000000E+00  0.00000000000E+00  0.13845368323E+03  0.13845368325E+03  0.25500000000E-02 0. -1.
          2   -1    0    0  501    0  0.00000000000E+00 -0.00000000000E+00 -0.28548093540E+04  0.28548093540E+04  0.25500000000E-02 0.  1.
     200001    2    1    2    0    0 -0.65996542683E+02 -0.10727576109E+03 -0.12162015078E+04  0.13678107478E+04  0.61310398929E+03 0.  0.
    5000001    2    3    3    0    0 -0.15959083431E+03  0.41032547028E+02 -0.11225568028E+04  0.11448184240E+04  0.15271720367E+03 0.  0.
        -13    1    4    4    0    0 -0.13688012038E+03 -0.27326686841E+02 -0.84709952926E+03  0.85852229954E+03  0.10566000000E+00 0. -1.
     200003    1    4    4    0    0 -0.22710713925E+02  0.68359233869E+02 -0.27545727350E+03  0.28629612450E+03  0.30000000000E+02 0. -1.
     200000    1    3    3    0    0  0.93594291623E+02 -0.14830830812E+03 -0.93644705056E+02  0.22299232378E+03  0.10100000000E+03 0. -1.
    -200001    1    1    2    0    0  0.65996542683E+02  0.10727576109E+03 -0.15001541630E+04  0.16254522895E+04  0.61300000000E+03 0.  1.
<mgrwt>
<rscale>  0 0.12573923E+04</rscale>
<asrwt>0</asrwt>
<pdfrwt beam="1">  1        2 0.40782987E+00 0.12573923E+04</pdfrwt>
<pdfrwt beam="2">  1       -2 0.19779099E-01 0.12573923E+04</pdfrwt>
<totfact> 0.61340558E+01</totfact>
</mgrwt>
</event>
<event>
 8    1  0.7685004E-052  0.1989143E+04  0.7818608E-02  0.8611714E-01
          2   -1    0    0  501    0  0.00000000000E+00  0.00000000000E+00  0.21262616637E+04  0.21262616637E+04  0.25500000000E-02 0.  1.
         -2   -1    0    0    0  501 -0.00000000000E+00 -0.00000000000E+00 -0.46521666994E+03  0.46521666994E+03  0.25500000000E-02 0. -1.
     200001    2    1    2    0    0  0.20174851449E+03  0.16983263885E+03 -0.12976123321E+03  0.68037877295E+03  0.61362179616E+03 0.  0.
    5000001    2    3    3    0    0  0.26508050708E+03  0.31763014442E+03 -0.21564888350E+03  0.47197356089E+03  0.71400401605E+02 0.  0.
        -13    1    4    4    0    0  0.18843836539E+03  0.21843056852E+03 -0.12502959270E+03  0.31440951167E+03  0.10566000000E+00 0. -1.
     200003    1    4    4    0    0  0.76642141690E+02  0.99199575898E+02 -0.90619290808E+02  0.15756404922E+03  0.30000000000E+02 0. -1.
     200000    1    3    3    0    0 -0.63331992597E+02 -0.14779750557E+03  0.85887650295E+02  0.20840521206E+03  0.10100000000E+03 0.  1.
    -200001    1    1    2    0    0 -0.20174851449E+03 -0.16983263885E+03  0.17908062269E+04  0.19110995607E+04  0.61300000000E+03 0.  1.
<mgrwt>
<rscale>  0 0.19891429E+04</rscale>
<asrwt>0</asrwt>
<pdfrwt beam="1">  1        2 0.30375166E+00 0.19891429E+04</pdfrwt>
<pdfrwt beam="2">  1       -2 0.66459525E-01 0.19891429E+04</pdfrwt>
<totfact> 0.13410113E+01</totfact>
</mgrwt>
</event>
<event>
 8    1  0.7685004E-052  0.1254554E+04  0.7818608E-02  0.9066401E-01
          2   -1    0    0  501    0  0.00000000000E+00  0.00000000000E+00  0.19426916937E+04  0.19426916937E+04  0.25500000000E-02 0.  1.
         -2   -1    0    0    0  501 -0.00000000000E+00 -0.00000000000E+00 -0.20254193518E+03  0.20254193519E+03  0.25500000000E-02 0. -1.
     200001    2    1    2    0    0  0.11203681825E+03 -0.49958976236E+02  0.80511024899E+03  0.10204598595E+04  0.61488833447E+03 0.  0.
    5000001    2    3    3    0    0 -0.76920518943E+02  0.22907441854E+03  0.23650157711E+03  0.35181845156E+03  0.97218164009E+02 0.  0.
        -13    1    4    4    0    0 -0.43850687539E+02  0.43685514629E+02  0.98872877765E+02  0.11664974971E+03  0.10566000000E+00 0. -1.
     200003    1    4    4    0    0 -0.33069831404E+02  0.18538890391E+03  0.13762869935E+03  0.23516870185E+03  0.30000000000E+02 0.  1.
     200000    1    3    3    0    0  0.18895733719E+03 -0.27903339478E+03  0.56860867188E+03  0.66864140794E+03  0.10100000000E+03 0.  1.
    -200001    1    1    2    0    0 -0.11203681825E+03  0.49958976236E+02  0.93503950958E+03  0.11247737694E+04  0.61300000000E+03 0. -1.
<mgrwt>
<rscale>  0 0.12545542E+04</rscale>
<asrwt>0</asrwt>
<pdfrwt beam="1">  1        2 0.27752738E+00 0.12545542E+04</pdfrwt>
<pdfrwt beam="2">  1       -2 0.28934563E-01 0.12545542E+04</pdfrwt>
<totfact> 0.92649777E+01</totfact>
</mgrwt>
</event>
<event>
 8    1  0.7685004E-052  0.1855499E+04  0.7818608E-02  0.8677330E-01
          2   -1    0    0  501    0  0.00000000000E+00  0.00000000000E+00  0.15256336580E+04  0.15256336580E+04  0.25500000000E-02 0.  1.
         -2   -1    0    0    0  501 -0.00000000000E+00 -0.00000000000E+00 -0.56417165157E+03  0.56417165157E+03  0.25500000000E-02 0. -1.
     200001    2    1    2    0    0 -0.37226965437E+03 -0.36892101950E+03 -0.35167500502E+02  0.80772622141E+03  0.61359390599E+03 0.  0.
    5000001    2    3    3    0    0 -0.13944351315E+03 -0.46738668871E+03 -0.14490696763E+03  0.51421770246E+03  0.74343837121E+02 0.  0.
        -13    1    4    4    0    0 -0.84982299031E+02 -0.31322892600E+03 -0.12055167400E+03  0.34621823825E+03  0.10566000000E+00 0. -1.
     200003    1    4    4    0    0 -0.54461214116E+02 -0.15415776271E+03 -0.24355293626E+02  0.16799946421E+03  0.30000000000E+02 0. -1.
     200000    1    3    3    0    0 -0.23282614122E+03  0.98465669212E+02  0.10973946713E+03  0.29350851895E+03  0.10100000000E+03 0. -1.
    -200001    1    1    2    0    0  0.37226965437E+03  0.36892101950E+03  0.99662950689E+03  0.12820790881E+04  0.61300000000E+03 0.  1.
<mgrwt>
<rscale>  0 0.18554991E+04</rscale>
<asrwt>0</asrwt>
<pdfrwt beam="1">  1        2 0.21794766E+00 0.18554991E+04</pdfrwt>
<pdfrwt beam="2">  1       -2 0.80595951E-01 0.18554991E+04</pdfrwt>
<totfact> 0.18160752E+01</totfact>
</mgrwt>
</event>
<event>
 8    1  0.7685004E-052  0.1369470E+04  0.7818608E-02  0.8976219E-01
          2   -1    0    0  501    0  0.00000000000E+00  0.00000000000E+00  0.15324094189E+04  0.15324094189E+04  0.25500000000E-02 0.  1.
         -2   -1    0    0    0  501 -0.00000000000E+00 -0.00000000000E+00 -0.30596391647E+03  0.30596391648E+03  0.25500000000E-02 0. -1.
     200001    2    1    2    0    0  0.11990793336E+03 -0.16678224554E+03  0.31222072570E+03  0.71865454377E+03  0.61383087395E+03 0.  0.
    5000001    2    3    3    0    0  0.23349393304E+03 -0.33214491786E+03  0.14800203072E+03  0.44041836262E+03  0.84994528147E+02 0.  0.
        -13    1    4    4    0    0  0.46202746921E+02 -0.57837331879E+02 -0.35213233940E+01  0.74109794659E+02  0.10566000000E+00 0. -1.
     200003    1    4    4    0    0  0.18729118612E+03 -0.27430758598E+03  0.15152335411E+03  0.36630856796E+03  0.30000000000E+02 0. -1.
     200000    1    3    3    0    0 -0.11358599968E+03  0.16536267232E+03  0.16421869498E+03  0.27823618115E+03  0.10100000000E+03 0.  1.
    -200001    1    1    2    0    0 -0.11990793336E+03  0.16678224554E+03  0.91422477671E+03  0.11197187916E+04  0.61300000000E+03 0.  1.
<mgrwt>
<rscale>  0 0.13694700E+04</rscale>
<asrwt>0</asrwt>
<pdfrwt beam="1">  1        2 0.21891563E+00 0.13694700E+04</pdfrwt>
<pdfrwt beam="2">  1       -2 0.43709131E-01 0.13694700E+04</pdfrwt>
<totfact> 0.68051070E+01</totfact>
</mgrwt>
</event>
<event>
 8    1  0.7685004E-052  0.1323693E+04  0.7818608E-02  0.9010984E-01
          2   -1    0    0  501    0  0.00000000000E+00  0.00000000000E+00  0.18943419498E+04  0.18943419498E+04  0.25500000000E-02 0.  1.
         -2   -1    0    0    0  501 -0.00000000000E+00 -0.00000000000E+00 -0.23123644990E+03  0.23123644992E+03  0.25500000000E-02 0. -1.
     200001    2    1    2    0    0  0.17811227540E+03 -0.16515498081E+03  0.73944748783E+03  0.99071573243E+03  0.61297220565E+03 0.  0.
    5000001    2    3    3    0    0  0.24047804300E+03 -0.57711851827E+02  0.30510442732E+03  0.52780277177E+03  0.35259992529E+03 0.  0.
        -13    1    4    4    0    0 -0.78698534861E+02 -0.75536652895E+02  0.66268637023E+02  0.12763537416E+03  0.10566000000E+00 0. -1.
     200003    1    4    4    0    0  0.31917657786E+03  0.17824801068E+02  0.23883579030E+03  0.40016739761E+03  0.30000000000E+02 0. -1.
     200000    1    3    3    0    0 -0.62365767596E+02 -0.10744312898E+03  0.43434306051E+03  0.46291296066E+03  0.10100000000E+03 0.  1.
    -200001    1    1    2    0    0 -0.17811227540E+03  0.16515498081E+03  0.92365801203E+03  0.11348626672E+04  0.61300000000E+03 0.  1.
<mgrwt>
<rscale>  0 0.13236932E+04</rscale>
<asrwt>0</asrwt>
<pdfrwt beam="1">  1        2 0.27062028E+00 0.13236932E+04</pdfrwt>
<pdfrwt beam="2">  1       -2 0.33033778E-01 0.13236932E+04</pdfrwt>
<totfact> 0.76168760E+01</totfact>
</mgrwt>
</event>
<event>
 8    1  0.7685004E-052  0.1618956E+04  0.7818608E-02  0.8808986E-01
         -2   -1    0    0    0  501 -0.00000000000E+00  0.00000000000E+00  0.11287310593E+04  0.11287310594E+04  0.25500000000E-02 0. -1.
          2   -1    0    0  501    0  0.00000000000E+00 -0.00000000000E+00 -0.58052351192E+03  0.58052351192E+03  0.25500000000E-02 0.  1.
     200001    2    1    2    0    0 -0.97498867021E+02  0.37125967343E+03  0.65904239906E+03  0.97754893475E+03  0.61149428607E+03 0.  0.
    5000001    2    3    3    0    0 -0.10628873346E+02 -0.49933713150E+02  0.34413002708E+03  0.43503527896E+03  0.26119699413E+03 0.  0.
        -13    1    4    4    0    0  0.85309382552E+02 -0.11523564125E+03  0.21896305609E+03  0.26172843724E+03  0.10566000000E+00 0. -1.
     200003    1    4    4    0    0 -0.95938255898E+02  0.65301928104E+02  0.12516697100E+03  0.17330684172E+03  0.30000000000E+02 0. -1.
     200000    1    3    3    0    0 -0.86869993675E+02  0.42119338658E+03  0.31491237197E+03  0.54251365579E+03  0.10100000000E+03 0. -1.
    -200001    1    1    2    0    0  0.97498867021E+02 -0.37125967343E+03 -0.11083485162E+03  0.73170563652E+03  0.61300000000E+03 0.  1.
<mgrwt>
<rscale>  0 0.16189564E+04</rscale>
<asrwt>0</asrwt>
<pdfrwt beam="1">  1        2 0.82931931E-01 0.16189564E+04</pdfrwt>
<pdfrwt beam="2">  1       -2 0.16124729E+00 0.16189564E+04</pdfrwt>
<totfact> 0.13345897E+01</totfact>
</mgrwt>
</event>
<event>
 8    1  0.7685004E-052  0.1384508E+04  0.7818608E-02  0.8965109E-01
         -2   -1    0    0    0  501 -0.00000000000E+00  0.00000000000E+00  0.50580485054E+03  0.50580485055E+03  0.25500000000E-02 0. -1.
          2   -1    0    0  501    0  0.00000000000E+00 -0.00000000000E+00 -0.94743163763E+03  0.94743163763E+03  0.25500000000E-02 0.  1.
     200001    2    1    2    0    0  0.11320764816E+03  0.28296643150E+03 -0.31191025309E+03  0.75647156933E+03  0.61812236350E+03 0.  0.
    5000001    2    3    3    0    0  0.29163277154E+03  0.13964425965E+02 -0.21601326794E+02  0.31073860406E+03  0.10414981566E+03 0.  0.
        -13    1    4    4    0    0  0.18257761917E+03 -0.34972542331E+02 -0.24244474279E+02  0.18747125496E+03  0.10566000000E+00 0. -1.
     200003    1    4    4    0    0  0.10905515237E+03  0.48936968296E+02  0.26431474847E+01  0.12326734910E+03  0.30000000000E+02 0. -1.
     200000    1    3    3    0    0 -0.17842512338E+03  0.26900200554E+03 -0.29030892630E+03  0.44573296527E+03  0.10100000000E+03 0.  1.
    -200001    1    1    2    0    0 -0.11320764816E+03 -0.28296643150E+03 -0.12971653399E+03  0.69676491886E+03  0.61300000000E+03 0.  1.
<mgrwt>
<rscale>  0 0.13845079E+04</rscale>
<asrwt>0</asrwt>
<pdfrwt beam="1">  1        2 0.13534738E+00 0.13845079E+04</pdfrwt>
<pdfrwt beam="2">  1       -2 0.72257835E-01 0.13845079E+04</pdfrwt>
<totfact> 0.51277710E+01</totfact>
</mgrwt>
</event>
<event>
 8    1  0.7685004E-052  0.1320722E+04  0.7818608E-02  0.9013292E-01
          2   -1    0    0  501    0  0.00000000000E+00  0.00000000000E+00  0.23481890181E+04  0.23481890181E+04  0.25500000000E-02 0.  1.
         -2   -1    0    0    0  501 -0.00000000000E+00 -0.00000000000E+00 -0.18570753368E+03  0.18570753370E+03  0.25500000000E-02 0. -1.
     200001    2    1    2    0    0  0.14331143602E+03  0.16982097384E+03  0.89256932737E+03  0.11063730958E+04  0.61482037383E+03 0.  0.
    5000001    2    3    3    0    0  0.42870937296E+02  0.33935795497E+03  0.26033443743E+03  0.43648277804E+03  0.75772404936E+02 0.  0.
        -13    1    4    4    0    0  0.52562292845E+01  0.47318768731E+02  0.69765184183E+02  0.84462334260E+02  0.10566000000E+00 0. -1.
     200003    1    4    4    0    0  0.37614708012E+02  0.29203918624E+03  0.19056925325E+03  0.35202044378E+03  0.30000000000E+02 0. -1.
     200000    1    3    3    0    0  0.10044049872E+03 -0.16953698113E+03  0.63223488994E+03  0.66989031774E+03  0.10100000000E+03 0.  1.
    -200001    1    1    2    0    0 -0.14331143602E+03 -0.16982097384E+03  0.12699121570E+04  0.14275234560E+04  0.61300000000E+03 0.  1.
<mgrwt>
<rscale>  0 0.13207216E+04</rscale>
<asrwt>0</asrwt>
<pdfrwt beam="1">  1        2 0.33545554E+00 0.13207216E+04</pdfrwt>
<pdfrwt beam="2">  1       -2 0.26529651E-01 0.13207216E+04</pdfrwt>
<totfact> 0.66900398E+01</totfact>
</mgrwt>
</event>
<event>
 8    1  0.7685004E-052  0.1400494E+04  0.7818608E-02  0.8953461E-01
         -2   -1    0    0    0  501 -0.00000000000E+00  0.00000000000E+00  0.14488722616E+03  0.14488722618E+03  0.25500000000E-02 0. -1.
          2   -1    0    0  501    0  0.00000000000E+00 -0.00000000000E+00 -0.33843288309E+04  0.33843288309E+04  0.25500000000E-02 0.  1.
     200001    2    1    2    0    0 -0.17977672016E+03 -0.16085819815E+03 -0.10209991495E+04  0.12150313288E+04  0.61291666469E+03 0.  0.
    5000001    2    3    3    0    0 -0.27712271815E+03 -0.59981837300E+02 -0.68291559100E+03  0.83535544601E+03  0.38865176576E+03 0.  0.
        -13    1    4    4    0    0 -0.18988502821E+02 -0.76454803426E+02  0.23718590907E+02  0.82270790230E+02  0.10566000000E+00 0. -1.
     200003    1    4    4    0    0 -0.25813421533E+03  0.16472966127E+02 -0.70663418191E+03  0.75308465578E+03  0.30000000000E+02 0. -1.
     200000    1    3    3    0    0  0.97345997991E+02 -0.10087636085E+03 -0.33808355846E+03  0.37967588283E+03  0.10100000000E+03 0.  1.
    -200001    1    1    2    0    0  0.17977672016E+03  0.16085819815E+03 -0.22184424553E+04  0.23141847282E+04  0.61300000000E+03 0.  1.
<mgrwt>
<rscale>  0 0.14004942E+04</rscale>
<asrwt>0</asrwt>
<pdfrwt beam="1">  1        2 0.48347550E+00 0.14004942E+04</pdfrwt>
<pdfrwt beam="2">  1       -2 0.20698177E-01 0.14004942E+04</pdfrwt>
<totfact> 0.28011369E+01</totfact>
</mgrwt>
</event>
<event>
 8    1  0.7685004E-052  0.3410703E+04  0.7818608E-02  0.8135284E-01
          2   -1    0    0  501    0  0.00000000000E+00  0.00000000000E+00  0.41692491409E+04  0.41692491409E+04  0.25500000000E-02 0.  1.
         -2   -1    0    0    0  501 -0.00000000000E+00 -0.00000000000E+00 -0.69754145689E+03  0.69754145689E+03  0.25500000000E-02 0. -1.
     200001    2    1    2    0    0  0.52750393647E+03  0.13075671734E+04  0.27887859263E+04  0.31844875801E+04  0.61289631220E+03 0.  0.
    5000001    2    3    3    0    0 -0.29586037905E+02  0.32647898588E+03  0.31651060936E+03  0.46507045254E+03  0.92993000433E+02 0.  0.
        -13    1    4    4    0    0 -0.36243415063E+02  0.16741907112E+03  0.21082896279E+03  0.27164608082E+03  0.10566000000E+00 0. -1.
     200003    1    4    4    0    0  0.66573771584E+01  0.15905991476E+03  0.10568164657E+03  0.19342437172E+03  0.30000000000E+02 0.  1.
     200000    1    3    3    0    0  0.55708997437E+03  0.98108818755E+03  0.24722753169E+04  0.27194171276E+04  0.10100000000E+03 0.  1.
    -200001    1    1    2    0    0 -0.52750393647E+03 -0.13075671734E+04  0.68292175775E+03  0.16823030177E+04  0.61300000000E+03 0. -1.
<mgrwt>
<rscale>  0 0.34107032E+04</rscale>
<asrwt>0</asrwt>
<pdfrwt beam="1">  1        2 0.59560701E+00 0.34107032E+04</pdfrwt>
<pdfrwt beam="2">  1       -2 0.99648781E-01 0.34107032E+04</pdfrwt>
<totfact> 0.29990138E-01</totfact>
</mgrwt>
</event>
<event>
 8    1  0.7685004E-052  0.1400529E+04  0.7818608E-02  0.8953436E-01
          2   -1    0    0  501    0  0.00000000000E+00  0.00000000000E+00  0.15358744806E+04  0.15358744806E+04  0.25500000000E-02 0.  1.
         -2   -1    0    0    0  501 -0.00000000000E+00 -0.00000000000E+00 -0.31927750736E+03  0.31927750737E+03  0.25500000000E-02 0. -1.
     200001    2    1    2    0    0  0.11232238017E+02  0.20097428486E+03  0.97000064626E+03  0.11644309337E+04  0.61194878806E+03 0.  0.
    5000001    2    3    3    0    0  0.24952165668E+03  0.11396052974E+03  0.19796235731E+03  0.34553084195E+03  0.70387558105E+02 0.  0.
        -13    1    4    4    0    0  0.71428418857E+02  0.37390004041E+02  0.92892078814E+02  0.12299992233E+03  0.10566000000E+00 0. -1.
     200003    1    4    4    0    0  0.17809323782E+03  0.76570525700E+02  0.10507027850E+03  0.22253091962E+03  0.30000000000E+02 0. -1.
     200000    1    3    3    0    0 -0.23828941866E+03  0.87013755119E+02  0.77203828895E+03  0.81890009173E+03  0.10100000000E+03 0.  1.
    -200001    1    1    2    0    0 -0.11232238017E+02 -0.20097428486E+03  0.24659632694E+03  0.69072105427E+03  0.61300000000E+03 0. -1.
<mgrwt>
<rscale>  0 0.14005287E+04</rscale>
<asrwt>0</asrwt>
<pdfrwt beam="1">  1        2 0.21941064E+00 0.14005287E+04</pdfrwt>
<pdfrwt beam="2">  1       -2 0.45611072E-01 0.14005287E+04</pdfrwt>
<totfact> 0.62105726E+01</totfact>
</mgrwt>
</event>
<event>
 8    1  0.7685004E-052  0.1487519E+04  0.7818608E-02  0.8892795E-01
          2   -1    0    0  501    0  0.00000000000E+00  0.00000000000E+00  0.11596347311E+04  0.11596347311E+04  0.25500000000E-02 0.  1.
         -2   -1    0    0    0  501 -0.00000000000E+00 -0.00000000000E+00 -0.47702778290E+03  0.47702778291E+03  0.25500000000E-02 0. -1.
     200001    2    1    2    0    0 -0.26732626816E+03 -0.27737304423E+03  0.52978539251E+03  0.89671483535E+03  0.61239349645E+03 0.  0.
    5000001    2    3    3    0    0 -0.37402626474E+03  0.59004184987E+01  0.38022479874E+03  0.54429730575E+03  0.10843522405E+03 0.  0.
        -13    1    4    4    0    0 -0.26776038060E+03 -0.16674449192E+01  0.32346175731E+03  0.41991180192E+03  0.10566000000E+00 0. -1.
     200003    1    4    4    0    0 -0.10626588415E+03  0.75678634179E+01  0.56763041436E+02  0.12438550383E+03  0.30000000000E+02 0. -1.
     200000    1    3    3    0    0  0.10669999658E+03 -0.28327346273E+03  0.14956059377E+03  0.35241752959E+03  0.10100000000E+03 0. -1.
    -200001    1    1    2    0    0  0.26732626816E+03  0.27737304423E+03  0.15282155572E+03  0.73994767869E+03  0.61300000000E+03 0. -1.
<mgrwt>
<rscale>  0 0.14875187E+04</rscale>
<asrwt>0</asrwt>
<pdfrwt beam="1">  1        2 0.16566210E+00 0.14875187E+04</pdfrwt>
<pdfrwt beam="2">  1       -2 0.68146827E-01 0.14875187E+04</pdfrwt>
<totfact> 0.43047081E+01</totfact>
</mgrwt>
</event>
<event>
 8    1  0.7685004E-052  0.2303493E+04  0.7818608E-02  0.8476545E-01
          2   -1    0    0  501    0  0.00000000000E+00  0.00000000000E+00  0.16626918012E+04  0.16626918012E+04  0.25500000000E-02 0.  1.
         -2   -1    0    0    0  501 -0.00000000000E+00 -0.00000000000E+00 -0.79781489086E+03  0.79781489087E+03  0.25500000000E-02 0. -1.
     200001    2    1    2    0    0 -0.62944517890E+03 -0.28115388490E+03 -0.30304253709E+03  0.97220108638E+03  0.61489139922E+03 0.  0.
    5000001    2    3    3    0    0 -0.35322635723E+03 -0.34919077805E+03 -0.31714488070E+03  0.66999960992E+03  0.31877192948E+03 0.  0.
        -13    1    4    4    0    0 -0.14688668818E+03 -0.10439384565E+03 -0.29752147924E+03  0.34784021611E+03  0.10566000000E+00 0. -1.
     200003    1    4    4    0    0 -0.20633966905E+03 -0.24479693240E+03 -0.19623401465E+02  0.32215939381E+03  0.30000000000E+02 0. -1.
     200000    1    3    3    0    0 -0.27621882167E+03  0.68036893149E+02  0.14102343615E+02  0.30220147646E+03  0.10100000000E+03 0. -1.
    -200001    1    1    2    0    0  0.62944517890E+03  0.28115388490E+03  0.11679194474E+04  0.14883056057E+04  0.61300000000E+03 0.  1.
<mgrwt>
<rscale>  0 0.23034932E+04</rscale>
<asrwt>0</asrwt>
<pdfrwt beam="1">  1        2 0.23752740E+00 0.23034932E+04</pdfrwt>
<pdfrwt beam="2">  1       -2 0.11397356E+00 0.23034932E+04</pdfrwt>
<totfact> 0.65889783E+00</totfact>
</mgrwt>
</event>
<event>
 8    1  0.7685004E-052  0.1467910E+04  0.7818608E-02  0.8906077E-01
         -2   -1    0    0    0  501 -0.00000000000E+00  0.00000000000E+00  0.16309817608E+03  0.16309817610E+03  0.25500000000E-02 0. -1.
          2   -1    0    0  501    0  0.00000000000E+00 -0.00000000000E+00 -0.33028561462E+04  0.33028561462E+04  0.25500000000E-02 0.  1.
     200001    2    1    2    0    0  0.14734267466E+03  0.64490075963E+01 -0.24588357373E+04  0.25379588802E+04  0.61123697601E+03 0.  0.
    5000001    2    3    3    0    0  0.64141502110E+02  0.22595875577E+03 -0.19830045559E+04  0.19978447461E+04  0.62490551483E+02 0.  0.
        -13    1    4    4    0    0  0.56532993482E+02  0.16504332013E+03 -0.13814059555E+04  0.13923784334E+04  0.10566000000E+00 0. -1.
     200003    1    4    4    0    0  0.76085086275E+01  0.60915435640E+02 -0.60159860049E+03  0.60546631270E+03  0.30000000000E+02 0. -1.
     200000    1    3    3    0    0  0.83201172555E+02 -0.21950974817E+03 -0.47583118140E+03  0.54011413410E+03  0.10100000000E+03 0. -1.
    -200001    1    1    2    0    0 -0.14734267466E+03 -0.64490075963E+01 -0.68092223274E+03  0.92799544208E+03  0.61300000000E+03 0.  1.
<mgrwt>
<rscale>  0 0.14679098E+04</rscale>
<asrwt>0</asrwt>
<pdfrwt beam="1">  1        2 0.47183655E+00 0.14679098E+04</pdfrwt>
<pdfrwt beam="2">  1       -2 0.23299742E-01 0.14679098E+04</pdfrwt>
<totfact> 0.25173754E+01</totfact>
</mgrwt>
</event>
<event>
 8    1  0.7685004E-052  0.1254834E+04  0.7818608E-02  0.9066170E-01
          2   -1    0    0  501    0  0.00000000000E+00  0.00000000000E+00  0.62295138894E+03  0.62295138894E+03  0.25500000000E-02 0.  1.
         -2   -1    0    0    0  501 -0.00000000000E+00 -0.00000000000E+00 -0.63191423399E+03  0.63191423399E+03  0.25500000000E-02 0. -1.
     200001    2    1    2    0    0 -0.35336682117E+02  0.75243642850E+02 -0.10865362666E+03  0.62827361945E+03  0.61319804584E+03 0.  0.
    5000001    2    3    3    0    0 -0.27960391657E+03 -0.87720472245E+02 -0.24507566173E+02  0.30655115500E+03  0.86601145604E+02 0.  0.
        -13    1    4    4    0    0 -0.18835931545E+03 -0.31043291082E+02 -0.36583332199E+02  0.19437404404E+03  0.10566000000E+00 0. -1.
     200003    1    4    4    0    0 -0.91244601125E+02 -0.56677181163E+02  0.12075766027E+02  0.11217711096E+03  0.30000000000E+02 0. -1.
     200000    1    3    3    0    0  0.24426723445E+03  0.16296411510E+03 -0.84146060492E+02  0.32172246445E+03  0.10100000000E+03 0. -1.
    -200001    1    1    2    0    0  0.35336682117E+02 -0.75243642850E+02  0.99690781614E+02  0.62659200348E+03  0.61300000000E+03 0. -1.
<mgrwt>
<rscale>  0 0.12548336E+04</rscale>
<asrwt>0</asrwt>
<pdfrwt beam="1">  1        2 0.88993056E-01 0.12548336E+04</pdfrwt>
<pdfrwt beam="2">  1       -2 0.90273462E-01 0.12548336E+04</pdfrwt>
<totfact> 0.53611396E+01</totfact>
</mgrwt>
</event>
<event>
 8    1  0.7685004E-052  0.1706375E+04  0.7818608E-02  0.8757737E-01
          2   -1    0    0  501    0  0.00000000000E+00  0.00000000000E+00  0.30567156568E+04  0.30567156568E+04  0.25500000000E-02 0.  1.
         -2   -1    0    0    0  501 -0.00000000000E+00 -0.00000000000E+00 -0.23814094471E+03  0.23814094473E+03  0.25500000000E-02 0. -1.
     200001    2    1    2    0    0  0.20577191618E+03  0.76661039253E+01  0.33400717752E+03  0.72751445751E+03  0.61263010096E+03 0.  0.
    5000001    2    3    3    0    0  0.74728954337E+02  0.94802358105E+02  0.46999257655E+03  0.49630456717E+03  0.10417916136E+03 0.  0.
        -13    1    4    4    0    0  0.55446528812E+02  0.61242894351E+02  0.13890919980E+03  0.16161926438E+03  0.10566000000E+00 0. -1.
     200003    1    4    4    0    0  0.19282425525E+02  0.33559463754E+02  0.33108337675E+03  0.33468530279E+03  0.30000000000E+02 0. -1.
     200000    1    3    3    0    0  0.13104296184E+03 -0.87136254180E+02 -0.13598539903E+03  0.23120989034E+03  0.10100000000E+03 0. -1.
    -200001    1    1    2    0    0 -0.20577191618E+03 -0.76661039253E+01  0.24845675345E+04  0.25673421440E+04  0.61300000000E+03 0.  1.
<mgrwt>
<rscale>  0 0.17063753E+04</rscale>
<asrwt>0</asrwt>
<pdfrwt beam="1">  1        2 0.43667366E+00 0.17063753E+04</pdfrwt>
<pdfrwt beam="2">  1       -2 0.34020136E-01 0.17063753E+04</pdfrwt>
<totfact> 0.16949832E+01</totfact>
</mgrwt>
</event>
<event>
 8    1  0.7685004E-052  0.1427692E+04  0.7818608E-02  0.8934014E-01
         -2   -1    0    0    0  501 -0.00000000000E+00  0.00000000000E+00  0.51442879038E+03  0.51442879039E+03  0.25500000000E-02 0. -1.
          2   -1    0    0  501    0  0.00000000000E+00 -0.00000000000E+00 -0.99056646679E+03  0.99056646680E+03  0.25500000000E-02 0.  1.
     200001    2    1    2    0    0 -0.50903511616E+02  0.23620375918E+00  0.14319518099E+03  0.63210728525E+03  0.61356624493E+03 0.  0.
    5000001    2    3    3    0    0 -0.62422744491E+02 -0.63595849210E+02  0.34040793681E+03  0.40123698666E+03  0.19280177634E+03 0.  0.
        -13    1    4    4    0    0 -0.12579506156E+03 -0.54438992587E+02  0.18269049026E+03  0.22839401880E+03  0.10566000000E+00 0. -1.
     200003    1    4    4    0    0  0.63372317072E+02 -0.91568566232E+01  0.15771744655E+03  0.17284296787E+03  0.30000000000E+02 0. -1.
     200000    1    3    3    0    0  0.11519232875E+02  0.63832052969E+02 -0.19721275582E+03  0.23087029859E+03  0.10100000000E+03 0.  1.
    -200001    1    1    2    0    0  0.50903511616E+02 -0.23620375918E+00 -0.61933285740E+03  0.87288797193E+03  0.61300000000E+03 0.  1.
<mgrwt>
<rscale>  0 0.14276917E+04</rscale>
<asrwt>0</asrwt>
<pdfrwt beam="1">  1        2 0.14150950E+00 0.14276917E+04</pdfrwt>
<pdfrwt beam="2">  1       -2 0.73489827E-01 0.14276917E+04</pdfrwt>
<totfact> 0.46268719E+01</totfact>
</mgrwt>
</event>
<event>
 8    1  0.7685004E-052  0.1780255E+04  0.7818608E-02  0.8716871E-01
         -2   -1    0    0    0  501 -0.00000000000E+00  0.00000000000E+00  0.88194100301E+03  0.88194100301E+03  0.25500000000E-02 0.  1.
          2   -1    0    0  501    0  0.00000000000E+00 -0.00000000000E+00 -0.89838968614E+03  0.89838968615E+03  0.25500000000E-02 0. -1.
     200001    2    1    2    0    0 -0.10754567350E+03  0.45277726971E+03  0.43926467485E+03  0.88589399911E+03  0.61260215086E+03 0.  0.
    5000001    2    3    3    0    0 -0.30587250500E+03  0.38936501013E+03  0.25647653060E+03  0.59099206213E+03  0.19577616384E+03 0.  0.
        -13    1    4    4    0    0 -0.26231577025E+03  0.35580228231E+03  0.14879503298E+03  0.46641698128E+03  0.10566000000E+00 0. -1.
     200003    1    4    4    0    0 -0.43556734747E+02  0.33562727818E+02  0.10768149762E+03  0.12457508085E+03  0.30000000000E+02 0. -1.
     200000    1    3    3    0    0  0.19832683150E+03  0.63412259577E+02  0.18278814425E+03  0.29490193698E+03  0.10100000000E+03 0. -1.
    -200001    1    1    2    0    0  0.10754567350E+03 -0.45277726971E+03 -0.45571335799E+03  0.89443669005E+03  0.61300000000E+03 0. -1.
<mgrwt>
<rscale>  0 0.17802547E+04</rscale>
<asrwt>0</asrwt>
<pdfrwt beam="1">  1        2 0.12834138E+00 0.17802547E+04</pdfrwt>
<pdfrwt beam="2">  1       -2 0.12599157E+00 0.17802547E+04</pdfrwt>
<totfact> 0.14531638E+01</totfact>
</mgrwt>
</event>
<event>
 8    1  0.7685004E-052  0.1860149E+04  0.7818608E-02  0.8674951E-01
         -2   -1    0    0    0  501 -0.00000000000E+00  0.00000000000E+00  0.31596089474E+03  0.31596089475E+03  0.25500000000E-02 0. -1.
          2   -1    0    0  501    0  0.00000000000E+00 -0.00000000000E+00 -0.27378041122E+04  0.27378041122E+04  0.25500000000E-02 0.  1.
     200001    2    1    2    0    0 -0.15729838812E+03  0.14425954748E+03 -0.23054911837E+04  0.23943255513E+04  0.60987838731E+03 0.  0.
    5000001    2    3    3    0    0  0.12342031886E+03 -0.12857095379E+03 -0.36524567506E+03  0.41240902711E+03  0.70098054357E+02 0.  0.
        -13    1    4    4    0    0  0.64699028705E+02 -0.35376156251E+02 -0.18374390145E+03  0.19798805325E+03  0.10566000000E+00 0. -1.
     200003    1    4    4    0    0  0.58721290150E+02 -0.93194797542E+02 -0.18150177361E+03  0.21442097386E+03  0.30000000000E+02 0. -1.
     200000    1    3    3    0    0 -0.28071870697E+03  0.27283050127E+03 -0.19402455087E+04  0.19819165242E+04  0.10100000000E+03 0.  1.
    -200001    1    1    2    0    0  0.15729838812E+03 -0.14425954748E+03 -0.11635203373E+03  0.65943945567E+03  0.61300000000E+03 0. -1.
<mgrwt>
<rscale>  0 0.18601495E+04</rscale>
<asrwt>0</asrwt>
<pdfrwt beam="1">  1        2 0.39111486E+00 0.18601495E+04</pdfrwt>
<pdfrwt beam="2">  1       -2 0.45137272E-01 0.18601495E+04</pdfrwt>
<totfact> 0.14441100E+01</totfact>
</mgrwt>
</event>
<event>
 8    1  0.7685004E-052  0.1315429E+04  0.7818608E-02  0.9017418E-01
         -2   -1    0    0    0  501 -0.00000000000E+00  0.00000000000E+00  0.17854258927E+03  0.17854258928E+03  0.25500000000E-02 0. -1.
          2   -1    0    0  501    0  0.00000000000E+00 -0.00000000000E+00 -0.24228873790E+04  0.24228873790E+04  0.25500000000E-02 0.  1.
     200001    2    1    2    0    0  0.13864647412E+03 -0.18703833483E+03 -0.12222953011E+04  0.13871152065E+04  0.61308776658E+03 0.  0.
    5000001    2    3    3    0    0 -0.94392784926E+02 -0.36586450719E+02 -0.10030310477E+04  0.10193912903E+04  0.15112496142E+03 0.  0.
        -13    1    4    4    0    0 -0.52979083340E+02  0.54314501026E+02 -0.49310352170E+03  0.49890674737E+03  0.10566000000E+00 0. -1.
     200003    1    4    4    0    0 -0.41413701586E+02 -0.90900951745E+02 -0.50992752596E+03  0.52048454294E+03  0.30000000000E+02 0.  1.
     200000    1    3    3    0    0  0.23303925905E+03 -0.15045188411E+03 -0.21926425339E+03  0.36772391614E+03  0.10100000000E+03 0. -1.
    -200001    1    1    2    0    0 -0.13864647412E+03  0.18703833483E+03 -0.10220494887E+04  0.12143147619E+04  0.61300000000E+03 0.  1.
<mgrwt>
<rscale>  0 0.13154293E+04</rscale>
<asrwt>0</asrwt>
<pdfrwt beam="1">  1        2 0.34612675E+00 0.13154293E+04</pdfrwt>
<pdfrwt beam="2">  1       -2 0.25506086E-01 0.13154293E+04</pdfrwt>
<totfact> 0.65754730E+01</totfact>
</mgrwt>
</event>
<event>
 8    1  0.7685004E-052  0.1274200E+04  0.7818608E-02  0.9050279E-01
          2   -1    0    0  501    0  0.00000000000E+00  0.00000000000E+00  0.83614767712E+03  0.83614767712E+03  0.25500000000E-02 0.  1.
         -2   -1    0    0    0  501 -0.00000000000E+00 -0.00000000000E+00 -0.48543597454E+03  0.48543597455E+03  0.25500000000E-02 0. -1.
     200001    2    1    2    0    0 -0.87054601722E+02  0.73682705002E+02  0.31577100267E+03  0.69708585567E+03  0.61090892885E+03 0.  0.
    5000001    2    3    3    0    0 -0.65880871817E+02 -0.82283686352E+02 -0.72976761167E+02  0.26569315064E+03  0.23271516563E+03 0.  0.
        -13    1    4    4    0    0 -0.97172284988E+02  0.23294836822E+02  0.37614404800E+02  0.10677058118E+03  0.10566000000E+00 0. -1.
     200003    1    4    4    0    0  0.31291413171E+02 -0.10557852317E+03 -0.11059116597E+03  0.15892256946E+03  0.30000000000E+02 0. -1.
     200000    1    3    3    0    0 -0.21173729905E+02  0.15596639135E+03  0.38874776383E+03  0.43139270503E+03  0.10100000000E+03 0.  1.
    -200001    1    1    2    0    0  0.87054601722E+02 -0.73682705002E+02  0.34940699906E+02  0.62449779600E+03  0.61300000000E+03 0. -1.
<mgrwt>
<rscale>  0 0.12741996E+04</rscale>
<asrwt>0</asrwt>
<pdfrwt beam="1">  1        2 0.11944967E+00 0.12741996E+04</pdfrwt>
<pdfrwt beam="2">  1       -2 0.69347996E-01 0.12741996E+04</pdfrwt>
<totfact> 0.66929170E+01</totfact>
</mgrwt>
</event>
<event>
 8    1  0.7685004E-052  0.1340928E+04  0.7818608E-02  0.8997724E-01
         -2   -1    0    0    0  501 -0.00000000000E+00  0.00000000000E+00  0.27322846137E+03  0.27322846139E+03  0.25500000000E-02 0. -1.
          2   -1    0    0  501    0  0.00000000000E+00 -0.00000000000E+00 -0.16452248179E+04  0.16452248179E+04  0.25500000000E-02 0.  1.
     200001    2    1    2    0    0  0.61130584653E+02  0.29729690199E+02 -0.30629904077E+03  0.68715292127E+03  0.61134215622E+03 0.  0.
    5000001    2    3    3    0    0 -0.16963925011E+03 -0.44887354802E+02 -0.37105834219E+03  0.41656617517E+03  0.71068524612E+02 0.  0.
        -13    1    4    4    0    0 -0.83769569059E+02  0.46101590193E+01 -0.19551052394E+03  0.21275095864E+03  0.10566000000E+00 0. -1.
     200003    1    4    4    0    0 -0.85869681054E+02 -0.49497513822E+02 -0.17554781824E+03  0.20381521653E+03  0.30000000000E+02 0. -1.
     200000    1    3    3    0    0  0.23076983477E+03  0.74617045001E+02  0.64759301414E+02  0.27058674610E+03  0.10100000000E+03 0. -1.
    -200001    1    1    2    0    0 -0.61130584653E+02 -0.29729690199E+02 -0.10656973158E+04  0.12313003580E+04  0.61300000000E+03 0.  1.
<mgrwt>
<rscale>  0 0.13409284E+04</rscale>
<asrwt>0</asrwt>
<pdfrwt beam="1">  1        2 0.23503211E+00 0.13409284E+04</pdfrwt>
<pdfrwt beam="2">  1       -2 0.39032638E-01 0.13409284E+04</pdfrwt>
<totfact> 0.74312343E+01</totfact>
</mgrwt>
</event>
<event>
 8    1  0.7685004E-052  0.1848737E+04  0.7818608E-02  0.8680802E-01
         -2   -1    0    0    0  501 -0.00000000000E+00  0.00000000000E+00  0.35437466715E+03  0.35437466716E+03  0.25500000000E-02 0. -1.
          2   -1    0    0  501    0  0.00000000000E+00 -0.00000000000E+00 -0.24111693182E+04  0.24111693182E+04  0.25500000000E-02 0.  1.
     200001    2    1    2    0    0 -0.59687346892E+03  0.22119138478E+03 -0.14337262505E+04  0.16842638189E+04  0.61318030285E+03 0.  0.
    5000001    2    3    3    0    0  0.39239842917E+02  0.46159307107E+02 -0.64135789417E+03  0.64824982973E+03  0.72231893417E+02 0.  0.
        -13    1    4    4    0    0  0.44809687319E+02  0.44842617201E+02 -0.40621828062E+03  0.41113510075E+03  0.10566000000E+00 0. -1.
     200003    1    4    4    0    0 -0.55698444011E+01  0.13166899068E+01 -0.23513961355E+03  0.23711472898E+03  0.30000000000E+02 0.  1.
     200000    1    3    3    0    0 -0.63611331183E+03  0.17503207767E+03 -0.79236835629E+03  0.10360139892E+04  0.10100000000E+03 0.  1.
    -200001    1    1    2    0    0  0.59687346892E+03 -0.22119138478E+03 -0.62306840061E+03  0.10812801665E+04  0.61300000000E+03 0. -1.
<mgrwt>
<rscale>  0 0.18487372E+04</rscale>
<asrwt>0</asrwt>
<pdfrwt beam="1">  1        2 0.34445275E+00 0.18487372E+04</pdfrwt>
<pdfrwt beam="2">  1       -2 0.50624954E-01 0.18487372E+04</pdfrwt>
<totfact> 0.17086553E+01</totfact>
</mgrwt>
</event>
<event>
 8    1  0.7685004E-052  0.1336888E+04  0.7818608E-02  0.9000814E-01
         -2   -1    0    0    0  501 -0.00000000000E+00  0.00000000000E+00  0.14608873029E+03  0.14608873031E+03  0.25500000000E-02 0. -1.
          2   -1    0    0  501    0  0.00000000000E+00 -0.00000000000E+00 -0.30585337049E+04  0.30585337049E+04  0.25500000000E-02 0.  1.
     200001    2    1    2    0    0  0.54640963566E+02  0.11690200618E+03 -0.89746524069E+03  0.10945124755E+04  0.61307584101E+03 0.  0.
    5000001    2    3    3    0    0 -0.21647844157E+03  0.21979422066E+03 -0.42314735778E+03  0.52947177459E+03  0.78193724756E+02 0.  0.
        -13    1    4    4    0    0 -0.15399712698E+03  0.15274433661E+03 -0.33334214359E+03  0.39769704970E+03  0.10566000000E+00 0. -1.
     200003    1    4    4    0    0 -0.62481314585E+02  0.67049884048E+02 -0.89805214198E+02  0.13177472489E+03  0.30000000000E+02 0.  1.
     200000    1    3    3    0    0  0.27111940513E+03 -0.10289221448E+03 -0.47431788291E+03  0.56504070091E+03  0.10100000000E+03 0. -1.
    -200001    1    1    2    0    0 -0.54640963566E+02 -0.11690200618E+03 -0.20149797340E+04  0.21101099598E+04  0.61300000000E+03 0.  1.
<mgrwt>
<rscale>  0 0.13368879E+04</rscale>
<asrwt>0</asrwt>
<pdfrwt beam="1">  1        2 0.43693335E+00 0.13368879E+04</pdfrwt>
<pdfrwt beam="2">  1       -2 0.20869820E-01 0.13368879E+04</pdfrwt>
<totfact> 0.42774636E+01</totfact>
</mgrwt>
</event>
<event>
 8    1  0.7685004E-052  0.1599209E+04  0.7818608E-02  0.8821034E-01
         -2   -1    0    0    0  501 -0.00000000000E+00  0.00000000000E+00  0.62586384670E+03  0.62586384670E+03  0.25500000000E-02 0. -1.
          2   -1    0    0  501    0  0.00000000000E+00 -0.00000000000E+00 -0.10215751601E+04  0.10215751601E+04  0.25500000000E-02 0.  1.
     200001    2    1    2    0    0  0.29176188673E+03 -0.69096846528E+02  0.23045267207E+03  0.72129122732E+03  0.61420943317E+03 0.  0.
    5000001    2    3    3    0    0  0.17134252279E+03  0.10734345019E+03 -0.15795239391E+03  0.26665786207E+03  0.72640073287E+02 0.  0.
        -13    1    4    4    0    0  0.12881700623E+03  0.56608597771E+02 -0.11851083559E+03  0.18396516994E+03  0.10566000000E+00 0. -1.
     200003    1    4    4    0    0  0.42525516559E+02  0.50734852420E+02 -0.39441558323E+02  0.82692692130E+02  0.30000000000E+02 0. -1.
     200000    1    3    3    0    0  0.12041936394E+03 -0.17644029672E+03  0.38840506598E+03  0.45463336525E+03  0.10100000000E+03 0. -1.
    -200001    1    1    2    0    0 -0.29176188673E+03  0.69096846528E+02 -0.62616398548E+03  0.92614777949E+03  0.61300000000E+03 0.  1.
<mgrwt>
<rscale>  0 0.15992085E+04</rscale>
<asrwt>0</asrwt>
<pdfrwt beam="1">  1        2 0.14593931E+00 0.15992085E+04</pdfrwt>
<pdfrwt beam="2">  1       -2 0.89409121E-01 0.15992085E+04</pdfrwt>
<totfact> 0.28098415E+01</totfact>
</mgrwt>
</event>
<event>
 8    1  0.7685004E-052  0.1314404E+04  0.7818608E-02  0.9018220E-01
         -2   -1    0    0    0  501 -0.00000000000E+00  0.00000000000E+00  0.32316937426E+03  0.32316937427E+03  0.25500000000E-02 0. -1.
          2   -1    0    0  501    0  0.00000000000E+00 -0.00000000000E+00 -0.13364949712E+04  0.13364949712E+04  0.25500000000E-02 0.  1.
     200001    2    1    2    0    0  0.19480946547E+03  0.90803517143E+01 -0.33549399524E+03  0.72518167526E+03  0.61261656904E+03 0.  0.
    5000001    2    3    3    0    0  0.35740279829E+03  0.14749461463E+03 -0.13596220912E+03  0.41597457036E+03  0.71117503504E+02 0.  0.
        -13    1    4    4    0    0  0.24947939018E+03  0.92967978808E+02 -0.71345528246E+02  0.27563237613E+03  0.10566000000E+00 0. -1.
     200003    1    4    4    0    0  0.10792340811E+03  0.54526635818E+02 -0.64616680877E+02  0.14034219422E+03  0.30000000000E+02 0. -1.
     200000    1    3    3    0    0 -0.16259333281E+03 -0.13841426291E+03 -0.19953178612E+03  0.30920710491E+03  0.10100000000E+03 0.  1.
    -200001    1    1    2    0    0 -0.19480946547E+03 -0.90803517143E+01 -0.67783160166E+03  0.93448267016E+03  0.61300000000E+03 0.  1.
<mgrwt>
<rscale>  0 0.13144037E+04</rscale>
<asrwt>0</asrwt>
<pdfrwt beam="1">  1        2 0.19092785E+00 0.13144037E+04</pdfrwt>
<pdfrwt beam="2">  1       -2 0.46167054E-01 0.13144037E+04</pdfrwt>
<totfact> 0.78083340E+01</totfact>
</mgrwt>
</event>
<event>
 8    1  0.7685004E-052  0.1444132E+04  0.7818608E-02  0.8922479E-01
          2   -1    0    0  501    0  0.00000000000E+00  0.00000000000E+00  0.11183367723E+04  0.11183367723E+04  0.25500000000E-02 0.  1.
         -2   -1    0    0    0  501 -0.00000000000E+00 -0.00000000000E+00 -0.46620930911E+03  0.46620930911E+03  0.25500000000E-02 0. -1.
     200001    2    1    2    0    0  0.18999872184E+02 -0.56765564076E+02  0.73985387795E+03  0.96241406303E+03  0.61259590563E+03 0.  0.
    5000001    2    3    3    0    0  0.23983950253E+03 -0.18890967234E+03  0.27881766321E+03  0.42483839488E+03  0.97665353004E+02 0.  0.
        -13    1    4    4    0    0 -0.36267117524E+01 -0.17385572813E+02  0.33142875117E+02  0.37601496183E+02  0.10566000000E+00 0. -1.
     200003    1    4    4    0    0  0.24346621428E+03 -0.17152409952E+03  0.24567478809E+03  0.38723689870E+03  0.30000000000E+02 0. -1.
     200000    1    3    3    0    0 -0.22083963034E+03  0.13214410826E+03  0.46103621475E+03  0.53757566815E+03  0.10100000000E+03 0.  1.
    -200001    1    1    2    0    0 -0.18999872184E+02  0.56765564076E+02 -0.87726414790E+02  0.62213201835E+03  0.61300000000E+03 0. -1.
<mgrwt>
<rscale>  0 0.14441316E+04</rscale>
<asrwt>0</asrwt>
<pdfrwt beam="1">  1        2 0.15976239E+00 0.14441316E+04</pdfrwt>
<pdfrwt beam="2">  1       -2 0.66601332E-01 0.14441316E+04</pdfrwt>
<totfact> 0.47968865E+01</totfact>
</mgrwt>
</event>
<event>
 8    1  0.7685004E-052  0.1991668E+04  0.7818608E-02  0.8610526E-01
          2   -1    0    0  501    0  0.00000000000E+00  0.00000000000E+00  0.45330444845E+03  0.45330444846E+03  0.25500000000E-02 0.  1.
         -2   -1    0    0    0  501 -0.00000000000E+00 -0.00000000000E+00 -0.21876810265E+04  0.21876810265E+04  0.25500000000E-02 0. -1.
     200001    2    1    2    0    0  0.51589878578E+03 -0.20841502153E+03 -0.16026159412E+04  0.18027025611E+04  0.60972968623E+03 0.  0.
    5000001    2    3    3    0    0  0.53433070023E+03  0.27416201783E+02 -0.85743678155E+03  0.10143821431E+04  0.86673828705E+02 0.  0.
        -13    1    4    4    0    0  0.19680753453E+03 -0.13635200452E+02 -0.37015390153E+03  0.41944373439E+03  0.10566000000E+00 0. -1.
     200003    1    4    4    0    0  0.33752316570E+03  0.41051402235E+02 -0.48728288002E+03  0.59493840872E+03  0.30000000000E+02 0. -1.
     200000    1    3    3    0    0 -0.18431914454E+02 -0.23583122332E+03 -0.74517915967E+03  0.78832041795E+03  0.10100000000E+03 0. -1.
    -200001    1    1    2    0    0 -0.51589878578E+03  0.20841502153E+03 -0.13176063687E+03  0.83828291393E+03  0.61300000000E+03 0.  1.
<mgrwt>
<rscale>  0 0.19916682E+04</rscale>
<asrwt>0</asrwt>
<pdfrwt beam="1">  1        2 0.64757779E-01 0.19916682E+04</pdfrwt>
<pdfrwt beam="2">  1       -2 0.31252586E+00 0.19916682E+04</pdfrwt>
<totfact> 0.18675661E+00</totfact>
</mgrwt>
</event>
<event>
 8    1  0.7685004E-052  0.1595199E+04  0.7818608E-02  0.8823503E-01
         -2   -1    0    0    0  501 -0.00000000000E+00  0.00000000000E+00  0.50837307971E+03  0.50837307971E+03  0.25500000000E-02 0. -1.
          2   -1    0    0  501    0  0.00000000000E+00 -0.00000000000E+00 -0.12513741756E+04  0.12513741756E+04  0.25500000000E-02 0.  1.
     200001    2    1    2    0    0  0.23343155541E+03  0.45257865536E+03 -0.32676057388E+03  0.86066833634E+03  0.61209458598E+03 0.  0.
    5000001    2    3    3    0    0 -0.69381167030E+02  0.75663793279E+02 -0.26066868400E+03  0.36234164025E+03  0.22979239650E+03 0.  0.
        -13    1    4    4    0    0 -0.99776321563E+02 -0.43019875289E+02 -0.18698671712E+03  0.21626388409E+03  0.10566000000E+00 0. -1.
     200003    1    4    4    0    0  0.30395154533E+02  0.11868366857E+03 -0.73681966874E+02  0.14607775617E+03  0.30000000000E+02 0. -1.
     200000    1    3    3    0    0  0.30281272244E+03  0.37691486208E+03 -0.66091889882E+02  0.49832669609E+03  0.10100000000E+03 0.  1.
    -200001    1    1    2    0    0 -0.23343155541E+03 -0.45257865536E+03 -0.41624052197E+03  0.89907891894E+03  0.61300000000E+03 0. -1.
<mgrwt>
<rscale>  0 0.15951990E+04</rscale>
<asrwt>0</asrwt>
<pdfrwt beam="1">  1        2 0.17876774E+00 0.15951990E+04</pdfrwt>
<pdfrwt beam="2">  1       -2 0.72624726E-01 0.15951990E+04</pdfrwt>
<totfact> 0.32945093E+01</totfact>
</mgrwt>
</event>
<event>
 8    1  0.7685004E-052  0.1324490E+04  0.7818608E-02  0.9010367E-01
          2   -1    0    0  501    0  0.00000000000E+00  0.00000000000E+00  0.21203852423E+04  0.21203852423E+04  0.25500000000E-02 0.  1.
         -2   -1    0    0    0  501 -0.00000000000E+00 -0.00000000000E+00 -0.20683425848E+03  0.20683425849E+03  0.25500000000E-02 0. -1.
     200001    2    1    2    0    0 -0.13108980463E+03  0.34712537215E+02  0.58366805403E+03  0.85659136830E+03  0.61211998647E+03 0.  0.
    5000001    2    3    3    0    0  0.37085610256E+02  0.31884673717E+02 -0.91955335424E+02  0.15305819115E+03  0.11215636967E+03 0.  0.
        -13    1    4    4    0    0  0.19558933221E+02  0.28103267974E+02 -0.10894424942E+03  0.11419810062E+03  0.10566000000E+00 0. -1.
     200003    1    4    4    0    0  0.17526677034E+02  0.37814057437E+01  0.16988913992E+02  0.38860090529E+02  0.30000000000E+02 0.  1.
     200000    1    3    3    0    0 -0.16817541488E+03  0.28278634980E+01  0.67562338946E+03  0.70353317716E+03  0.10100000000E+03 0.  1.
    -200001    1    1    2    0    0  0.13108980463E+03 -0.34712537215E+02  0.13298829298E+04  0.14706281325E+04  0.61300000000E+03 0.  1.
<mgrwt>
<rscale>  0 0.13244898E+04</rscale>
<asrwt>0</asrwt>
<pdfrwt beam="1">  1        2 0.30291218E+00 0.13244898E+04</pdfrwt>
<pdfrwt beam="2">  1       -2 0.29547751E-01 0.13244898E+04</pdfrwt>
<totfact> 0.71867153E+01</totfact>
</mgrwt>
</event>
<event>
 8    1  0.7685004E-052  0.1492362E+04  0.7818608E-02  0.8889548E-01
          2   -1    0    0  501    0  0.00000000000E+00  0.00000000000E+00  0.12938559255E+04  0.12938559255E+04  0.25500000000E-02 0.  1.
         -2   -1    0    0    0  501 -0.00000000000E+00 -0.00000000000E+00 -0.43033091313E+03  0.43033091314E+03  0.25500000000E-02 0. -1.
     200001    2    1    2    0    0 -0.22398547913E+03 -0.17955912025E+02  0.14812941214E+02  0.65340530660E+03  0.61337359074E+03 0.  0.
    5000001    2    3    3    0    0 -0.36936801219E+03 -0.94664159092E+02 -0.13152391096E+03  0.41125718996E+03  0.80249023011E+02 0.  0.
        -13    1    4    4    0    0 -0.19284820942E+03 -0.14282519527E+02 -0.67141762067E+02  0.20470087840E+03  0.10566000000E+00 0. -1.
     200003    1    4    4    0    0 -0.17651980277E+03 -0.80381639565E+02 -0.64382148891E+02  0.20655631156E+03  0.30000000000E+02 0.  1.
     200000    1    3    3    0    0  0.14538253306E+03  0.76708247067E+02  0.14633685217E+03  0.24214811664E+03  0.10100000000E+03 0. -1.
    -200001    1    1    2    0    0  0.22398547913E+03  0.17955912025E+02  0.84871207114E+03  0.10707815320E+04  0.61300000000E+03 0.  1.
<mgrwt>
<rscale>  0 0.14923622E+04</rscale>
<asrwt>0</asrwt>
<pdfrwt beam="1">  1        2 0.18483656E+00 0.14923622E+04</pdfrwt>
<pdfrwt beam="2">  1       -2 0.61475845E-01 0.14923622E+04</pdfrwt>
<totfact> 0.45065120E+01</totfact>
</mgrwt>
</event>
<event>
 8    1  0.7685004E-052  0.1407434E+04  0.7818608E-02  0.8948455E-01
          2   -1    0    0  501    0  0.00000000000E+00  0.00000000000E+00  0.12950587228E+04  0.12950587228E+04  0.25500000000E-02 0.  1.
         -2   -1    0    0    0  501 -0.00000000000E+00 -0.00000000000E+00 -0.38239019238E+03  0.38239019239E+03  0.25500000000E-02 0. -1.
     200001    2    1    2    0    0  0.27525897857E+03  0.12632121027E+03  0.25688986227E+03  0.73006345244E+03  0.61259749412E+03 0.  0.
    5000001    2    3    3    0    0 -0.80710377154E+02  0.24578415631E+03  0.41081640906E+01  0.26629070138E+03  0.63006699300E+02 0.  0.
        -13    1    4    4    0    0 -0.38166499274E+02  0.46054678077E+02  0.29154931197E+01  0.59885109199E+02  0.10566000000E+00 0. -1.
     200003    1    4    4    0    0 -0.42543877880E+02  0.19972947823E+03  0.11926709708E+01  0.20640559218E+03  0.30000000000E+02 0. -1.
     200000    1    3    3    0    0  0.35596935572E+03 -0.11946294604E+03  0.25278169818E+03  0.46377275106E+03  0.10100000000E+03 0.  1.
    -200001    1    1    2    0    0 -0.27525897857E+03 -0.12632121027E+03  0.65577866820E+03  0.94738546279E+03  0.61300000000E+03 0.  1.
<mgrwt>
<rscale>  0 0.14074342E+04</rscale>
<asrwt>0</asrwt>
<pdfrwt beam="1">  1        2 0.18500839E+00 0.14074342E+04</pdfrwt>
<pdfrwt beam="2">  1       -2 0.54627171E-01 0.14074342E+04</pdfrwt>
<totfact> 0.58010219E+01</totfact>
</mgrwt>
</event>
<event>
 8    1  0.7685004E-052  0.1609495E+04  0.7818608E-02  0.8814736E-01
          2   -1    0    0  501    0  0.00000000000E+00  0.00000000000E+00  0.97282414248E+03  0.97282414248E+03  0.25500000000E-02 0.  1.
         -2   -1    0    0    0  501 -0.00000000000E+00 -0.00000000000E+00 -0.66570941235E+03  0.66570941235E+03  0.25500000000E-02 0. -1.
     200001    2    1    2    0    0 -0.35493958510E+03  0.29178305055E+03  0.40284960276E+03  0.86648846321E+03  0.61432483002E+03 0.  0.
    5000001    2    3    3    0    0 -0.21781895732E+03 -0.86048504614E+02 -0.44470284526E+02  0.25668945354E+03  0.95196775353E+02 0.  0.
        -13    1    4    4    0    0 -0.13132090597E+03 -0.48710423747E+02 -0.67026372208E+02  0.15527534081E+03  0.10566000000E+00 0. -1.
     200003    1    4    4    0    0 -0.86498051347E+02 -0.37338080867E+02  0.22556087681E+02  0.10141411273E+03  0.30000000000E+02 0. -1.
     200000    1    3    3    0    0 -0.13712062778E+03  0.37783155517E+03  0.44731988728E+03  0.60979900968E+03  0.10100000000E+03 0. -1.
    -200001    1    1    2    0    0  0.35493958510E+03 -0.29178305055E+03 -0.95734872624E+02  0.77204509162E+03  0.61300000000E+03 0. -1.
<mgrwt>
<rscale>  0 0.16094946E+04</rscale>
<asrwt>0</asrwt>
<pdfrwt beam="1">  1        2 0.13897488E+00 0.16094946E+04</pdfrwt>
<pdfrwt beam="2">  1       -2 0.95101345E-01 0.16094946E+04</pdfrwt>
<totfact> 0.26082489E+01</totfact>
</mgrwt>
</event>
<event>
 8    1  0.7685004E-052  0.1505035E+04  0.7818608E-02  0.8881112E-01
          2   -1    0    0  501    0  0.00000000000E+00  0.00000000000E+00  0.60945806906E+03  0.60945806906E+03  0.25500000000E-02 0.  1.
         -2   -1    0    0    0  501 -0.00000000000E+00 -0.00000000000E+00 -0.92915749068E+03  0.92915749069E+03  0.25500000000E-02 0. -1.
     200001    2    1    2    0    0  0.38441262368E+03  0.12322519170E+03 -0.32686316961E+03  0.80460068770E+03  0.61447963504E+03 0.  0.
    5000001    2    3    3    0    0  0.26470263338E+02  0.27358323838E+03 -0.25591795543E+03  0.39721328124E+03  0.12936741366E+03 0.  0.
        -13    1    4    4    0    0  0.13688689330E+02  0.26893967648E+03 -0.21438541275E+03  0.34420494791E+03  0.10566000000E+00 0. -1.
     200003    1    4    4    0    0  0.12781574008E+02  0.46435619008E+01 -0.41532542675E+02  0.53008333329E+02  0.30000000000E+02 0. -1.
     200000    1    3    3    0    0  0.35794236034E+03 -0.15035804668E+03 -0.70945214180E+02  0.40738740646E+03  0.10100000000E+03 0.  1.
    -200001    1    1    2    0    0 -0.38441262368E+03 -0.12322519170E+03  0.71637479832E+01  0.73401487205E+03  0.61300000000E+03 0.  1.
<mgrwt>
<rscale>  0 0.15050349E+04</rscale>
<asrwt>0</asrwt>
<pdfrwt beam="1">  1        2 0.87065438E-01 0.15050349E+04</pdfrwt>
<pdfrwt beam="2">  1       -2 0.13273678E+00 0.15050349E+04</pdfrwt>
<totfact> 0.21223692E+01</totfact>
</mgrwt>
</event>
<event>
 8    1  0.7685004E-052  0.1954097E+04  0.7818608E-02  0.8628388E-01
          2   -1    0    0  501    0  0.00000000000E+00  0.00000000000E+00  0.30699543322E+04  0.30699543322E+04  0.25500000000E-02 0.  1.
         -2   -1    0    0    0  501 -0.00000000000E+00 -0.00000000000E+00 -0.31095684437E+03  0.31095684438E+03  0.25500000000E-02 0. -1.
     200001    2    1    2    0    0  0.26466806768E+03  0.33947016214E+03  0.24652628984E+04  0.25763378822E+04  0.61213278622E+03 0.  0.
    5000001    2    3    3    0    0  0.41483993782E+03  0.17250555458E+03  0.19304153128E+04  0.19875325574E+04  0.14809472035E+03 0.  0.
        -13    1    4    4    0    0  0.20600603262E+03  0.11427775606E+03  0.12738006508E+04  0.12954018682E+04  0.10566000000E+00 0. -1.
     200003    1    4    4    0    0  0.20883390520E+03  0.58227798523E+02  0.65661466205E+03  0.69213068918E+03  0.30000000000E+02 0. -1.
     200000    1    3    3    0    0 -0.15017187014E+03  0.16696460756E+03  0.53484758551E+03  0.58880532478E+03  0.10100000000E+03 0.  1.
    -200001    1    1    2    0    0 -0.26466806768E+03 -0.33947016214E+03  0.29373458946E+03  0.80457329441E+03  0.61300000000E+03 0. -1.
<mgrwt>
<rscale>  0 0.19540965E+04</rscale>
<asrwt>0</asrwt>
<pdfrwt beam="1">  1        2 0.43856487E+00 0.19540965E+04</pdfrwt>
<pdfrwt beam="2">  1       -2 0.44422410E-01 0.19540965E+04</pdfrwt>
<totfact> 0.96995999E+00</totfact>
</mgrwt>
</event>
<event>
 8    1  0.7685004E-052  0.1356293E+04  0.7818608E-02  0.8986078E-01
         -2   -1    0    0    0  501 -0.00000000000E+00  0.00000000000E+00  0.53312918949E+03  0.53312918950E+03  0.25500000000E-02 0. -1.
          2   -1    0    0  501    0  0.00000000000E+00 -0.00000000000E+00 -0.86261082547E+03  0.86261082547E+03  0.25500000000E-02 0.  1.
     200001    2    1    2    0    0  0.64902093838E+02  0.43853232857E+02 -0.45273781782E+03  0.76558410237E+03  0.61238231384E+03 0.  0.
    5000001    2    3    3    0    0  0.32303008660E+03  0.62161582492E+02 -0.28175077044E+03  0.43938964092E+03  0.73940927214E+02 0.  0.
        -13    1    4    4    0    0  0.20055419988E+03  0.11511675949E+02 -0.15761910118E+03  0.25533957389E+03  0.10566000000E+00 0. -1.
     200003    1    4    4    0    0  0.12247588671E+03  0.50649906543E+02 -0.12413166927E+03  0.18405006703E+03  0.30000000000E+02 0. -1.
     200000    1    3    3    0    0 -0.25812799276E+03 -0.18308349636E+02 -0.17098704737E+03  0.32619446145E+03  0.10100000000E+03 0.  1.
    -200001    1    1    2    0    0 -0.64902093838E+02 -0.43853232857E+02  0.12325618184E+03  0.63015591259E+03  0.61300000000E+03 0. -1.
<mgrwt>
<rscale>  0 0.13562935E+04</rscale>
<asrwt>0</asrwt>
<pdfrwt beam="1">  1        2 0.12323012E+00 0.13562935E+04</pdfrwt>
<pdfrwt beam="2">  1       -2 0.76161313E-01 0.13562935E+04</pdfrwt>
<totfact> 0.51957132E+01</totfact>
</mgrwt>
</event>
<event>
 8    1  0.7685004E-052  0.1871443E+04  0.7818608E-02  0.8669203E-01
          2   -1    0    0  501    0  0.00000000000E+00  0.00000000000E+00  0.97664741989E+03  0.97664741989E+03  0.25500000000E-02 0.  1.
         -2   -1    0    0    0  501 -0.00000000000E+00 -0.00000000000E+00 -0.89651055365E+03  0.89651055365E+03  0.25500000000E-02 0. -1.
     200001    2    1    2    0    0  0.79140389088E+02 -0.33613928880E+03 -0.57765649083E+03  0.90997890231E+03  0.61247184311E+03 0.  0.
    5000001    2    3    3    0    0 -0.24002157156E+03 -0.11561238080E+03 -0.28489958008E+03  0.41358784370E+03  0.13751565846E+03 0.  0.
        -13    1    4    4    0    0 -0.49435814209E+02 -0.42949784484E+02 -0.46176009876E+01  0.65649958999E+02  0.10566000000E+00 0. -1.
     200003    1    4    4    0    0 -0.19058575735E+03 -0.72662596317E+02 -0.28028197909E+03  0.34793788471E+03  0.30000000000E+02 0. -1.
     200000    1    3    3    0    0  0.31916196065E+03 -0.22052690800E+03 -0.29275691075E+03  0.49639105861E+03  0.10100000000E+03 0. -1.
    -200001    1    1    2    0    0 -0.79140389088E+02  0.33613928880E+03  0.65779335707E+03  0.96317907123E+03  0.61300000000E+03 0.  1.
<mgrwt>
<rscale>  0 0.18714430E+04</rscale>
<asrwt>0</asrwt>
<pdfrwt beam="1">  1        2 0.13952106E+00 0.18714430E+04</pdfrwt>
<pdfrwt beam="2">  1       -2 0.12807294E+00 0.18714430E+04</pdfrwt>
<totfact> 0.12337925E+01</totfact>
</mgrwt>
</event>
<event>
 8    1  0.7685004E-052  0.2144077E+04  0.7818608E-02  0.8542072E-01
          2   -1    0    0  501    0  0.00000000000E+00  0.00000000000E+00  0.36008294894E+04  0.36008294894E+04  0.25500000000E-02 0.  1.
         -2   -1    0    0    0  501 -0.00000000000E+00 -0.00000000000E+00 -0.31916731522E+03  0.31916731523E+03  0.25500000000E-02 0. -1.
     200001    2    1    2    0    0 -0.62450304964E+03 -0.47041001038E+03  0.90452159165E+03  0.13435931123E+04  0.61301998720E+03 0.  0.
    5000001    2    3    3    0    0 -0.12295093094E+03 -0.52822813196E+02 -0.71271100444E+02  0.16532914653E+03  0.65931600321E+02 0.  0.
        -13    1    4    4    0    0 -0.45328592704E+02 -0.46300463871E+02 -0.40245272070E+02  0.76276519055E+02  0.10566000000E+00 0. -1.
     200003    1    4    4    0    0 -0.77622338231E+02 -0.65223493252E+01 -0.31025828374E+02  0.89052627471E+02  0.30000000000E+02 0. -1.
     200000    1    3    3    0    0 -0.50155211870E+03 -0.41758719718E+03  0.97579269209E+03  0.11782639657E+04  0.10100000000E+03 0.  1.
    -200001    1    1    2    0    0  0.62450304964E+03  0.47041001038E+03  0.23771405826E+04  0.25764036924E+04  0.61300000000E+03 0.  1.
<mgrwt>
<rscale>  0 0.21440775E+04</rscale>
<asrwt>0</asrwt>
<pdfrwt beam="1">  1        2 0.51440420E+00 0.21440775E+04</pdfrwt>
<pdfrwt beam="2">  1       -2 0.45595332E-01 0.21440775E+04</pdfrwt>
<totfact> 0.43892541E+00</totfact>
</mgrwt>
</event>
<event>
 8    1  0.7685004E-052  0.2369954E+04  0.7818608E-02  0.8450839E-01
         -2   -1    0    0    0  501 -0.00000000000E+00  0.00000000000E+00  0.40895711229E+03  0.40895711230E+03  0.25500000000E-02 0. -1.
          2   -1    0    0  501    0  0.00000000000E+00 -0.00000000000E+00 -0.34335406065E+04  0.34335406065E+04  0.25500000000E-02 0.  1.
     200001    2    1    2    0    0 -0.61043781578E+03 -0.68853267585E+03 -0.22034660916E+04  0.24652851856E+04  0.61290835941E+03 0.  0.
    5000001    2    3    3    0    0 -0.70749141789E+03 -0.52844992015E+03 -0.16718953605E+04  0.18927344608E+04  0.86059387173E+02 0.  0.
        -13    1    4    4    0    0 -0.21352908246E+03 -0.18705493910E+03 -0.47594702588E+03  0.55417488386E+03  0.10566000000E+00 0. -1.
     200003    1    4    4    0    0 -0.49396233543E+03 -0.34139498105E+03 -0.11959483346E+04  0.13385595769E+04  0.30000000000E+02 0. -1.
     200000    1    3    3    0    0  0.97053602108E+02 -0.16008275569E+03 -0.53157073113E+03  0.57255072487E+03  0.10100000000E+03 0. -1.
    -200001    1    1    2    0    0  0.61043781578E+03  0.68853267585E+03 -0.82111740263E+03  0.13772125332E+04  0.61300000000E+03 0. -1.
<mgrwt>
<rscale>  0 0.23699543E+04</rscale>
<asrwt>0</asrwt>
<pdfrwt beam="1">  1        2 0.49050578E+00 0.23699543E+04</pdfrwt>
<pdfrwt beam="2">  1       -2 0.58422447E-01 0.23699543E+04</pdfrwt>
<totfact> 0.32768992E+00</totfact>
</mgrwt>
</event>
<event>
 8    1  0.7685004E-052  0.1331326E+04  0.7818608E-02  0.9005086E-01
          2   -1    0    0  501    0  0.00000000000E+00  0.00000000000E+00  0.13874574456E+04  0.13874574456E+04  0.25500000000E-02 0.  1.
         -2   -1    0    0    0  501 -0.00000000000E+00 -0.00000000000E+00 -0.31936612688E+03  0.31936612689E+03  0.25500000000E-02 0. -1.
     200001    2    1    2    0    0 -0.17180934762E+03  0.16949710078E+03  0.41313396281E+03  0.77785325158E+03  0.61329298925E+03 0.  0.
    5000001    2    3    3    0    0  0.56799951602E+02  0.30071277954E+03  0.53229965139E+02  0.32045664732E+03  0.78769431535E+02 0.  0.
        -13    1    4    4    0    0  0.12516674852E+02  0.20115058609E+03  0.48726940443E+02  0.20734645240E+03  0.10566000000E+00 0. -1.
     200003    1    4    4    0    0  0.44283276750E+02  0.99562193449E+02  0.45030246960E+01  0.11311019492E+03  0.30000000000E+02 0. -1.
     200000    1    3    3    0    0 -0.22860929922E+03 -0.13121567876E+03  0.35990399767E+03  0.45739660426E+03  0.10100000000E+03 0.  1.
    -200001    1    1    2    0    0  0.17180934762E+03 -0.16949710078E+03  0.65495735593E+03  0.92897032094E+03  0.61300000000E+03 0.  1.
<mgrwt>
<rscale>  0 0.13313255E+04</rscale>
<asrwt>0</asrwt>
<pdfrwt beam="1">  1        2 0.19820820E+00 0.13313255E+04</pdfrwt>
<pdfrwt beam="2">  1       -2 0.45623734E-01 0.13313255E+04</pdfrwt>
<totfact> 0.74908234E+01</totfact>
</mgrwt>
</event>
<event>
 8    1  0.7685004E-052  0.2040529E+04  0.7818608E-02  0.8587903E-01
          2   -1    0    0  501    0  0.00000000000E+00  0.00000000000E+00  0.35087128029E+04  0.35087128029E+04  0.25500000000E-02 0.  1.
         -2   -1    0    0    0  501 -0.00000000000E+00 -0.00000000000E+00 -0.29667275750E+03  0.29667275751E+03  0.25500000000E-02 0. -1.
     200001    2    1    2    0    0  0.79194504008E+02 -0.31115738950E+03  0.30049509599E+04  0.30830659775E+04  0.61030718490E+03 0.  0.
    5000001    2    3    3    0    0  0.65158690212E+02  0.10336933396E+03  0.18007142600E+04  0.18054054444E+04  0.44565664191E+02 0.  0.
        -13    1    4    4    0    0  0.25844677012E+02  0.52770333755E+02  0.73483221097E+03  0.73717775665E+03  0.10566000000E+00 0. -1.
     200003    1    4    4    0    0  0.39314013200E+02  0.50599000200E+02  0.10658820490E+04  0.10682276877E+04  0.30000000000E+02 0.  1.
     200000    1    3    3    0    0  0.14035813796E+02 -0.41452672345E+03  0.12042366999E+04  0.12776605331E+04  0.10100000000E+03 0. -1.
    -200001    1    1    2    0    0 -0.79194504008E+02  0.31115738950E+03  0.20708908554E+03  0.72231958291E+03  0.61300000000E+03 0. -1.
<mgrwt>
<rscale>  0 0.20405289E+04</rscale>
<asrwt>0</asrwt>
<pdfrwt beam="1">  1        2 0.50124466E+00 0.20405289E+04</pdfrwt>
<pdfrwt beam="2">  1       -2 0.42381825E-01 0.20405289E+04</pdfrwt>
<totfact> 0.58412228E+00</totfact>
</mgrwt>
</event>
<event>
 8    1  0.7685004E-052  0.1896433E+04  0.7818608E-02  0.8656634E-01
         -2   -1    0    0    0  501 -0.00000000000E+00  0.00000000000E+00  0.18719802528E+04  0.18719802528E+04  0.25500000000E-02 0. -1.
          2   -1    0    0  501    0  0.00000000000E+00 -0.00000000000E+00 -0.48030114624E+03  0.48030114625E+03  0.25500000000E-02 0.  1.
     200001    2    1    2    0    0  0.45597160566E+03 -0.26147424904E+03  0.13125396265E+04  0.15409177658E+04  0.61268948235E+03 0.  0.
    5000001    2    3    3    0    0 -0.79801504180E+01  0.46325006900E+02 -0.21474575456E+02  0.91853755856E+02  0.75935933582E+02 0.  0.
        -13    1    4    4    0    0 -0.19237674861E+02  0.63929687965E+01 -0.33597187472E+02  0.39239525407E+02  0.10566000000E+00 0. -1.
     200003    1    4    4    0    0  0.11257524443E+02  0.39932038104E+02  0.12122612015E+02  0.52614230450E+02  0.30000000000E+02 0. -1.
     200000    1    3    3    0    0  0.46395175608E+03 -0.30779925594E+03  0.13340142020E+04  0.14490640100E+04  0.10100000000E+03 0. -1.
    -200001    1    1    2    0    0 -0.45597160566E+03  0.26147424904E+03  0.79139480084E+02  0.81136363327E+03  0.61300000000E+03 0. -1.
<mgrwt>
<rscale>  0 0.18964327E+04</rscale>
<asrwt>0</asrwt>
<pdfrwt beam="1">  1        2 0.68614448E-01 0.18964327E+04</pdfrwt>
<pdfrwt beam="2">  1       -2 0.26742576E+00 0.18964327E+04</pdfrwt>
<totfact> 0.33212732E+00</totfact>
</mgrwt>
</event>
<event>
 8    1  0.7685004E-052  0.1638522E+04  0.7818608E-02  0.8797226E-01
          2   -1    0    0  501    0  0.00000000000E+00  0.00000000000E+00  0.99848081043E+03  0.99848081043E+03  0.25500000000E-02 0.  1.
         -2   -1    0    0    0  501 -0.00000000000E+00 -0.00000000000E+00 -0.67221014656E+03  0.67221014656E+03  0.25500000000E-02 0. -1.
     200001    2    1    2    0    0 -0.16977251077E+03 -0.26716845469E+03 -0.28744159554E+03  0.74732026981E+03  0.61291371841E+03 0.  0.
    5000001    2    3    3    0    0  0.14611438845E+03 -0.51615693518E+02  0.91207797966E+02  0.19975850238E+03  0.87011508055E+02 0.  0.
        -13    1    4    4    0    0  0.11015366020E+03 -0.90550343417E+01  0.37364890121E+02  0.11667034190E+03  0.10566000000E+00 0. -1.
     200003    1    4    4    0    0  0.35960728247E+02 -0.42560659177E+02  0.53842907845E+02  0.83088160473E+02  0.30000000000E+02 0. -1.
     200000    1    3    3    0    0 -0.31588689922E+03 -0.21555276117E+03 -0.37864939351E+03  0.54756176743E+03  0.10100000000E+03 0.  1.
    -200001    1    1    2    0    0  0.16977251077E+03  0.26716845469E+03  0.61371225942E+03  0.92337068719E+03  0.61300000000E+03 0. -1.
<mgrwt>
<rscale>  0 0.16385224E+04</rscale>
<asrwt>0</asrwt>
<pdfrwt beam="1">  1        2 0.14264012E+00 0.16385224E+04</pdfrwt>
<pdfrwt beam="2">  1       -2 0.96030021E-01 0.16385224E+04</pdfrwt>
<totfact> 0.24520585E+01</totfact>
</mgrwt>
</event>
<event>
 8    1  0.7685004E-052  0.1676927E+04  0.7818608E-02  0.8774634E-01
         -2   -1    0    0    0  501 -0.00000000000E+00  0.00000000000E+00  0.66308864350E+03  0.66308864351E+03  0.25500000000E-02 0. -1.
          2   -1    0    0  501    0  0.00000000000E+00 -0.00000000000E+00 -0.10602223311E+04  0.10602223311E+04  0.25500000000E-02 0.  1.
     200001    2    1    2    0    0 -0.57650274388E+02 -0.50974342791E+03 -0.45896129652E+03  0.92159184072E+03  0.61280023886E+03 0.  0.
    5000001    2    3    3    0    0  0.18663348555E+03 -0.21506697758E+03 -0.41367313171E+03  0.52314387220E+03  0.14652026601E+03 0.  0.
        -13    1    4    4    0    0 -0.20383803121E+02 -0.45948237290E+02 -0.80939096049E+02  0.95277953236E+02  0.10566000000E+00 0. -1.
     200003    1    4    4    0    0  0.20701728867E+03 -0.16911874029E+03 -0.33273403566E+03  0.42786591896E+03  0.30000000000E+02 0. -1.
     200000    1    3    3    0    0 -0.24428375993E+03 -0.29467645033E+03 -0.45288164815E+02  0.39844796852E+03  0.10100000000E+03 0. -1.
    -200001    1    1    2    0    0  0.57650274388E+02  0.50974342791E+03  0.61827608921E+02  0.80171913390E+03  0.61300000000E+03 0. -1.
<mgrwt>
<rscale>  0 0.16769274E+04</rscale>
<asrwt>0</asrwt>
<pdfrwt beam="1">  1        2 0.15146033E+00 0.16769274E+04</pdfrwt>
<pdfrwt beam="2">  1       -2 0.94726949E-01 0.16769274E+04</pdfrwt>
<totfact> 0.23146288E+01</totfact>
</mgrwt>
</event>
<event>
 8    1  0.7685004E-052  0.1580200E+04  0.7818608E-02  0.8832805E-01
         -2   -1    0    0    0  501 -0.00000000000E+00  0.00000000000E+00  0.72933581205E+03  0.72933581205E+03  0.25500000000E-02 0.  1.
          2   -1    0    0  501    0  0.00000000000E+00 -0.00000000000E+00 -0.85592654473E+03  0.85592654473E+03  0.25500000000E-02 0. -1.
     200001    2    1    2    0    0  0.37206480077E+02  0.48630168553E+03 -0.16599836440E+03  0.80091829138E+03  0.61322182037E+03 0.  0.
    5000001    2    3    3    0    0  0.24842224932E+03  0.43839254902E+03 -0.21181768301E+03  0.55759176899E+03  0.11018261669E+03 0.  0.
        -13    1    4    4    0    0 -0.54548842751E+01  0.50581139338E+02 -0.14269851524E+02  0.52837933776E+02  0.10566000000E+00 0. -1.
     200003    1    4    4    0    0  0.25387713359E+03  0.38781140968E+03 -0.19754783149E+03  0.50475383522E+03  0.30000000000E+02 0. -1.
     200000    1    3    3    0    0 -0.21121576924E+03  0.47909136508E+02  0.45819318616E+02  0.24332652238E+03  0.10100000000E+03 0.  1.
    -200001    1    1    2    0    0 -0.37206480077E+02 -0.48630168553E+03  0.39407631719E+02  0.78434406541E+03  0.61300000000E+03 0.  1.
<mgrwt>
<rscale>  0 0.15801998E+04</rscale>
<asrwt>0</asrwt>
<pdfrwt beam="1">  1        2 0.12227522E+00 0.15801998E+04</pdfrwt>
<pdfrwt beam="2">  1       -2 0.10419083E+00 0.15801998E+04</pdfrwt>
<totfact> 0.25079498E+01</totfact>
</mgrwt>
</event>
<event>
 8    1  0.7685004E-052  0.2022752E+04  0.7818608E-02  0.8596057E-01
         -2   -1    0    0    0  501 -0.00000000000E+00  0.00000000000E+00  0.11098543052E+04  0.11098543052E+04  0.25500000000E-02 0. -1.
          2   -1    0    0  501    0  0.00000000000E+00 -0.00000000000E+00 -0.92163534042E+03  0.92163534042E+03  0.25500000000E-02 0.  1.
     200001    2    1    2    0    0 -0.14895012122E+03 -0.13099640773E+02 -0.70019130405E+03  0.94181100264E+03  0.61186792957E+03 0.  0.
    5000001    2    3    3    0    0  0.13026227134E+03 -0.21904566360E+03 -0.24601001161E+03  0.36141891889E+03  0.71787513159E+02 0.  0.
        -13    1    4    4    0    0  0.23387282567E+01 -0.49353990117E+02 -0.35888179476E+02  0.61067655763E+02  0.10566000000E+00 0. -1.
     200003    1    4    4    0    0  0.12792354309E+03 -0.16969167348E+03 -0.21012183213E+03  0.30035126313E+03  0.30000000000E+02 0. -1.
     200000    1    3    3    0    0 -0.27921239257E+03  0.20594602282E+03 -0.45418129244E+03  0.58039208375E+03  0.10100000000E+03 0. -1.
    -200001    1    1    2    0    0  0.14895012122E+03  0.13099640773E+02  0.88841026885E+03  0.10896786430E+04  0.61300000000E+03 0. -1.
<mgrwt>
<rscale>  0 0.20227515E+04</rscale>
<asrwt>0</asrwt>
<pdfrwt beam="1">  1        2 0.13166219E+00 0.20227515E+04</pdfrwt>
<pdfrwt beam="2">  1       -2 0.15855061E+00 0.20227515E+04</pdfrwt>
<totfact> 0.75656206E+00</totfact>
</mgrwt>
</event>
<event>
 8    1  0.7685004E-052  0.1517021E+04  0.7818608E-02  0.8873213E-01
         -2   -1    0    0    0  501 -0.00000000000E+00  0.00000000000E+00  0.31624879690E+03  0.31624879691E+03  0.25500000000E-02 0. -1.
          2   -1    0    0  501    0  0.00000000000E+00 -0.00000000000E+00 -0.18192569525E+04  0.18192569525E+04  0.25500000000E-02 0.  1.
     200001    2    1    2    0    0 -0.20001501538E+03 -0.39955766161E+03 -0.75846747537E+03  0.10726030465E+04  0.61282301919E+03 0.  0.
    5000001    2    3    3    0    0  0.15961982893E+02 -0.21107585281E+03 -0.72203017727E+03  0.76649827241E+03  0.14623345780E+03 0.  0.
        -13    1    4    4    0    0 -0.16589662380E+02 -0.10565659808E+03 -0.15668382188E+03  0.18970599574E+03  0.10566000000E+00 0. -1.
     200003    1    4    4    0    0  0.32551645273E+02 -0.10541925474E+03 -0.56534635539E+03  0.57679227667E+03  0.30000000000E+02 0. -1.
     200000    1    3    3    0    0 -0.21597699827E+03 -0.18848180880E+03 -0.36437298098E+02  0.30610477409E+03  0.10100000000E+03 0. -1.
    -200001    1    1    2    0    0  0.20001501538E+03  0.39955766161E+03 -0.74454068021E+03  0.10629027029E+04  0.61300000000E+03 0.  1.
<mgrwt>
<rscale>  0 0.15170205E+04</rscale>
<asrwt>0</asrwt>
<pdfrwt beam="1">  1        2 0.25989384E+00 0.15170205E+04</pdfrwt>
<pdfrwt beam="2">  1       -2 0.45178401E-01 0.15170205E+04</pdfrwt>
<totfact> 0.44652038E+01</totfact>
</mgrwt>
</event>
<event>
 8    1  0.7685004E-052  0.1265881E+04  0.7818608E-02  0.9057068E-01
          2   -1    0    0  501    0  0.00000000000E+00  0.00000000000E+00  0.16698146545E+04  0.16698146545E+04  0.25500000000E-02 0.  1.
         -2   -1    0    0    0  501 -0.00000000000E+00 -0.00000000000E+00 -0.23991516914E+03  0.23991516916E+03  0.25500000000E-02 0. -1.
     200001    2    1    2    0    0 -0.13999279393E+03 -0.37604505225E+02  0.79869923126E+03  0.10179928434E+04  0.61431008950E+03 0.  0.
    5000001    2    3    3    0    0 -0.13780235993E+03  0.15348655372E+01 -0.26476174734E+02  0.18573558811E+03  0.12167528363E+03 0.  0.
        -13    1    4    4    0    0 -0.18885966528E+02 -0.16260782338E+02  0.38458407316E+02  0.45827426627E+02  0.10566000000E+00 0. -1.
     200003    1    4    4    0    0 -0.11891639340E+03  0.17795647875E+02 -0.64934582050E+02  0.13990816148E+03  0.30000000000E+02 0. -1.
     200000    1    3    3    0    0 -0.21904339945E+01 -0.39139370762E+02  0.82517540599E+03  0.83225725530E+03  0.10100000000E+03 0.  1.
    -200001    1    1    2    0    0  0.13999279393E+03  0.37604505225E+02  0.63120025409E+03  0.89173698024E+03  0.61300000000E+03 0.  1.
<mgrwt>
<rscale>  0 0.12658813E+04</rscale>
<asrwt>0</asrwt>
<pdfrwt beam="1">  1        2 0.23854495E+00 0.12658813E+04</pdfrwt>
<pdfrwt beam="2">  1       -2 0.34273596E-01 0.12658813E+04</pdfrwt>
<totfact> 0.93155210E+01</totfact>
</mgrwt>
</event>
<event>
 8    1  0.7685004E-052  0.1359027E+04  0.7818608E-02  0.8984023E-01
         -2   -1    0    0    0  501 -0.00000000000E+00  0.00000000000E+00  0.17799398738E+03  0.17799398740E+03  0.25500000000E-02 0. -1.
          2   -1    0    0  501    0  0.00000000000E+00 -0.00000000000E+00 -0.25941246975E+04  0.25941246975E+04  0.25500000000E-02 0.  1.
     200001    2    1    2    0    0  0.36932433731E+02  0.96408917976E+02 -0.17682083150E+04  0.18742149516E+04  0.61274983118E+03 0.  0.
    5000001    2    3    3    0    0 -0.13708488174E+03  0.24087234032E+02 -0.15836567796E+04  0.15917743008E+04  0.80026053837E+02 0.  0.
        -13    1    4    4    0    0 -0.26589923808E+02 -0.23845531285E+02 -0.42020121237E+03  0.42171637797E+03  0.10566000000E+00 0. -1.
     200003    1    4    4    0    0 -0.11049495794E+03  0.47932765317E+02 -0.11634555673E+04  0.11700579228E+04  0.30000000000E+02 0. -1.
     200000    1    3    3    0    0  0.17401731547E+03  0.72321683944E+02 -0.18455153534E+03  0.28244065085E+03  0.10100000000E+03 0. -1.
    -200001    1    1    2    0    0 -0.36932433731E+02 -0.96408917976E+02 -0.64792239516E+03  0.89790373330E+03  0.61300000000E+03 0. -1.
<mgrwt>
<rscale>  0 0.13590270E+04</rscale>
<asrwt>0</asrwt>
<pdfrwt beam="1">  1        2 0.37058922E+00 0.13590270E+04</pdfrwt>
<pdfrwt beam="2">  1       -2 0.25427714E-01 0.13590270E+04</pdfrwt>
<totfact> 0.53573563E+01</totfact>
</mgrwt>
</event>
<event>
 8    1  0.7685004E-052  0.2426986E+04  0.7818608E-02  0.8429469E-01
         -2   -1    0    0    0  501 -0.00000000000E+00  0.00000000000E+00  0.62700404929E+03  0.62700404929E+03  0.25500000000E-02 0. -1.
          2   -1    0    0  501    0  0.00000000000E+00 -0.00000000000E+00 -0.23485730306E+04  0.23485730306E+04  0.25500000000E-02 0.  1.
     200001    2    1    2    0    0 -0.29584417889E+03 -0.63153626998E+01 -0.20923770265E+04  0.22004440150E+04  0.61347255848E+03 0.  0.
    5000001    2    3    3    0    0 -0.40817669857E+01 -0.52902040251E+02 -0.44306956969E+03  0.52183991911E+03  0.27053829843E+03 0.  0.
        -13    1    4    4    0    0 -0.43780786059E+02  0.10123881255E+03 -0.22076521399E+03  0.24678603135E+03  0.10566000000E+00 0. -1.
     200003    1    4    4    0    0  0.39699019073E+02 -0.15414085280E+03 -0.22230435569E+03  0.27505388777E+03  0.30000000000E+02 0. -1.
     200000    1    3    3    0    0 -0.29176241190E+03  0.46586677552E+02 -0.16493074568E+04  0.16786040958E+04  0.10100000000E+03 0.  1.
    -200001    1    1    2    0    0  0.29584417889E+03  0.63153626998E+01  0.37080804518E+03  0.77513306493E+03  0.61300000000E+03 0. -1.
<mgrwt>
<rscale>  0 0.24269856E+04</rscale>
<asrwt>0</asrwt>
<pdfrwt beam="1">  1        2 0.33551043E+00 0.24269856E+04</pdfrwt>
<pdfrwt beam="2">  1       -2 0.89572008E-01 0.24269856E+04</pdfrwt>
<totfact> 0.51022712E+00</totfact>
</mgrwt>
</event>
<event>
 8    1  0.7685004E-052  0.2239419E+04  0.7818608E-02  0.8502198E-01
          2   -1    0    0  501    0  0.00000000000E+00  0.00000000000E+00  0.26660029556E+04  0.26660029556E+04  0.25500000000E-02 0.  1.
         -2   -1    0    0    0  501 -0.00000000000E+00 -0.00000000000E+00 -0.47027313473E+03  0.47027313474E+03  0.25500000000E-02 0. -1.
     200001    2    1    2    0    0 -0.76008067778E+03  0.36325960622E+03  0.52004842476E+03  0.11631168673E+04  0.61050004476E+03 0.  0.
    5000001    2    3    3    0    0 -0.34567161242E+03  0.29895013129E+03  0.54487838828E+03  0.73104267332E+03  0.16932479903E+03 0.  0.
        -13    1    4    4    0    0 -0.24520495070E+03  0.29072014401E+03  0.45211546024E+03  0.59080628850E+03  0.10566000000E+00 0. -1.
     200003    1    4    4    0    0 -0.10046666172E+03  0.82299872805E+01  0.92762928033E+02  0.14023638481E+03  0.30000000000E+02 0.  1.
     200000    1    3    3    0    0 -0.41440906536E+03  0.64309474930E+02 -0.24829963519E+02  0.43207419398E+03  0.10100000000E+03 0. -1.
    -200001    1    1    2    0    0  0.76008067778E+03 -0.36325960622E+03  0.16756813961E+04  0.19731592231E+04  0.61300000000E+03 0.  1.
<mgrwt>
<rscale>  0 0.22394192E+04</rscale>
<asrwt>0</asrwt>
<pdfrwt beam="1">  1        2 0.38085757E+00 0.22394192E+04</pdfrwt>
<pdfrwt beam="2">  1       -2 0.67181875E-01 0.22394192E+04</pdfrwt>
<totfact> 0.66902264E+00</totfact>
</mgrwt>
</event>
<event>
 8    1  0.7685004E-052  0.1600698E+04  0.7818608E-02  0.8820119E-01
          2   -1    0    0  501    0  0.00000000000E+00  0.00000000000E+00  0.10482546691E+04  0.10482546691E+04  0.25500000000E-02 0.  1.
         -2   -1    0    0    0  501 -0.00000000000E+00 -0.00000000000E+00 -0.61107131420E+03  0.61107131421E+03  0.25500000000E-02 0. -1.
     200001    2    1    2    0    0 -0.32569785735E+03  0.12535276884E+03 -0.17326180445E+03  0.72647835185E+03  0.61315473731E+03 0.  0.
    5000001    2    3    3    0    0 -0.33596907559E+03  0.22635544491E+03 -0.31772516988E+03  0.52306325298E+03  0.92378979497E+02 0.  0.
        -13    1    4    4    0    0 -0.45277092321E+01  0.11581129128E+01  0.56075236180E+01  0.73004699555E+01  0.10566000000E+00 0. -1.
     200003    1    4    4    0    0 -0.33144136636E+03  0.22519733200E+03 -0.32333269349E+03  0.51576278303E+03  0.30000000000E+02 0. -1.
     200000    1    3    3    0    0  0.10271218243E+02 -0.10100267607E+03  0.14446336542E+03  0.20341509887E+03  0.10100000000E+03 0. -1.
    -200001    1    1    2    0    0  0.32569785735E+03 -0.12535276884E+03  0.61044515933E+03  0.93284763144E+03  0.61300000000E+03 0.  1.
<mgrwt>
<rscale>  0 0.16006978E+04</rscale>
<asrwt>0</asrwt>
<pdfrwt beam="1">  1        2 0.14975067E+00 0.16006978E+04</pdfrwt>
<pdfrwt beam="2">  1       -2 0.87295902E-01 0.16006978E+04</pdfrwt>
<totfact> 0.28593401E+01</totfact>
</mgrwt>
</event>
<event>
 8    1  0.7685004E-052  0.1268106E+04  0.7818608E-02  0.9055247E-01
         -2   -1    0    0    0  501 -0.00000000000E+00  0.00000000000E+00  0.38860570093E+03  0.38860570094E+03  0.25500000000E-02 0. -1.
          2   -1    0    0  501    0  0.00000000000E+00 -0.00000000000E+00 -0.10345269617E+04  0.10345269617E+04  0.25500000000E-02 0.  1.
     200001    2    1    2    0    0  0.59932066918E+02  0.12610773052E+03 -0.41099980343E+03  0.75197537599E+03  0.61404488055E+03 0.  0.
    5000001    2    3    3    0    0  0.28614962608E+03  0.15609993592E+03 -0.16162522905E+03  0.39918280973E+03  0.16424190215E+03 0.  0.
        -13    1    4    4    0    0  0.14951162039E+03  0.52332323825E+01 -0.11376371965E+03  0.18794495584E+03  0.10566000000E+00 0. -1.
     200003    1    4    4    0    0  0.13663800568E+03  0.15086670354E+03 -0.47861509397E+02  0.21123785389E+03  0.30000000000E+02 0. -1.
     200000    1    3    3    0    0 -0.22621755916E+03 -0.29992205402E+02 -0.24937457438E+03  0.35279256625E+03  0.10100000000E+03 0. -1.
    -200001    1    1    2    0    0 -0.59932066918E+02 -0.12610773052E+03 -0.23492145737E+03  0.67115728669E+03  0.61300000000E+03 0. -1.
<mgrwt>
<rscale>  0 0.12681058E+04</rscale>
<asrwt>0</asrwt>
<pdfrwt beam="1">  1        2 0.14778957E+00 0.12681058E+04</pdfrwt>
<pdfrwt beam="2">  1       -2 0.55515100E-01 0.12681058E+04</pdfrwt>
<totfact> 0.80161505E+01</totfact>
</mgrwt>
</event>
<event>
 8    1  0.7685004E-052  0.1358151E+04  0.7818608E-02  0.8984681E-01
         -2   -1    0    0    0  501 -0.00000000000E+00  0.00000000000E+00  0.47660222569E+03  0.47660222570E+03  0.25500000000E-02 0. -1.
          2   -1    0    0  501    0  0.00000000000E+00 -0.00000000000E+00 -0.96756517292E+03  0.96756517293E+03  0.25500000000E-02 0.  1.
     200001    2    1    2    0    0 -0.58189631441E+02  0.26241835802E+03 -0.12306413552E+03  0.68038211237E+03  0.61280144383E+03 0.  0.
    5000001    2    3    3    0    0  0.14975411544E+03  0.24721071346E+03  0.11261952632E+03  0.34989812973E+03  0.16188301808E+03 0.  0.
        -13    1    4    4    0    0  0.14710372304E+03  0.25351644366E+03  0.77442115644E+02  0.30316230798E+03  0.10566000000E+00 0. -1.
     200003    1    4    4    0    0  0.26503924041E+01 -0.63057302034E+01  0.35177410678E+02  0.46735821757E+02  0.30000000000E+02 0. -1.
     200000    1    3    3    0    0 -0.20794374688E+03  0.15207644559E+02 -0.23568366184E+03  0.33048398264E+03  0.10100000000E+03 0.  1.
    -200001    1    1    2    0    0  0.58189631441E+02 -0.26241835802E+03 -0.36789881172E+03  0.76378528625E+03  0.61300000000E+03 0.  1.
<mgrwt>
<rscale>  0 0.13581513E+04</rscale>
<asrwt>0</asrwt>
<pdfrwt beam="1">  1        2 0.13822360E+00 0.13581513E+04</pdfrwt>
<pdfrwt beam="2">  1       -2 0.68086032E-01 0.13581513E+04</pdfrwt>
<totfact> 0.56807535E+01</totfact>
</mgrwt>
</event>
<event>
 8    1  0.7685004E-052  0.1358253E+04  0.7818608E-02  0.8984604E-01
          2   -1    0    0  501    0  0.00000000000E+00  0.00000000000E+00  0.93521793381E+03  0.93521793382E+03  0.25500000000E-02 0.  1.
         -2   -1    0    0    0  501 -0.00000000000E+00 -0.00000000000E+00 -0.49316109754E+03  0.49316109755E+03  0.25500000000E-02 0. -1.
     200001    2    1    2    0    0  0.15835569958E+03 -0.24157067471E+03  0.17206350334E+03  0.69892833509E+03  0.61274958175E+03 0.  0.
    5000001    2    3    3    0    0 -0.10053149228E+03  0.68617933048E+02  0.23350500267E+03  0.27795849255E+03  0.89001885546E+02 0.  0.
        -13    1    4    4    0    0 -0.82808884838E+02  0.12271845998E+02  0.14460492867E+03  0.16708831848E+03  0.10566000000E+00 0. -1.
     200003    1    4    4    0    0 -0.17722607439E+02  0.56346087050E+02  0.88900074001E+02  0.11087017407E+03  0.30000000000E+02 0. -1.
     200000    1    3    3    0    0  0.25888719185E+03 -0.31018860776E+03 -0.61441499335E+02  0.42096984254E+03  0.10100000000E+03 0. -1.
    -200001    1    1    2    0    0 -0.15835569958E+03  0.24157067471E+03  0.26999333293E+03  0.72945069628E+03  0.61300000000E+03 0. -1.
<mgrwt>
<rscale>  0 0.13582534E+04</rscale>
<asrwt>0</asrwt>
<pdfrwt beam="1">  1        2 0.13360256E+00 0.13582534E+04</pdfrwt>
<pdfrwt beam="2">  1       -2 0.70451587E-01 0.13582534E+04</pdfrwt>
<totfact> 0.55288567E+01</totfact>
</mgrwt>
</event>
<event>
 8    1  0.7685004E-052  0.1834018E+04  0.7818608E-02  0.8688415E-01
          2   -1    0    0  501    0  0.00000000000E+00  0.00000000000E+00  0.19922351506E+04  0.19922351506E+04  0.25500000000E-02 0.  1.
         -2   -1    0    0    0  501 -0.00000000000E+00 -0.00000000000E+00 -0.42209140493E+03  0.42209140493E+03  0.25500000000E-02 0. -1.
     200001    2    1    2    0    0  0.36243766859E+03  0.17213034849E+03  0.58763453698E+02  0.73473454928E+03  0.61269225059E+03 0.  0.
    5000001    2    3    3    0    0  0.19418337873E+03  0.14122944594E+03  0.31763852625E+03  0.40841924927E+03  0.90879639292E+02 0.  0.
        -13    1    4    4    0    0  0.85998854737E+01 -0.43982654487E+01  0.47731880528E+02  0.48699551865E+02  0.10566000000E+00 0. -1.
     200003    1    4    4    0    0  0.18558349325E+03  0.14562771139E+03  0.26990664572E+03  0.35971969740E+03  0.30000000000E+02 0. -1.
     200000    1    3    3    0    0  0.16825428987E+03  0.30900902548E+02 -0.25887507255E+03  0.32631530002E+03  0.10100000000E+03 0. -1.
    -200001    1    1    2    0    0 -0.36243766859E+03 -0.17213034849E+03  0.15113802919E+04  0.16795920062E+04  0.61300000000E+03 0.  1.
<mgrwt>
<rscale>  0 0.18340178E+04</rscale>
<asrwt>0</asrwt>
<pdfrwt beam="1">  1        2 0.28460502E+00 0.18340178E+04</pdfrwt>
<pdfrwt beam="2">  1       -2 0.60298773E-01 0.18340178E+04</pdfrwt>
<totfact> 0.19595196E+01</totfact>
</mgrwt>
</event>
<event>
 8    1  0.7685004E-052  0.1301038E+04  0.7818608E-02  0.9028743E-01
          2   -1    0    0  501    0  0.00000000000E+00  0.00000000000E+00  0.42623545734E+03  0.42623545735E+03  0.25500000000E-02 0.  1.
         -2   -1    0    0    0  501 -0.00000000000E+00 -0.00000000000E+00 -0.99281913884E+03  0.99281913885E+03  0.25500000000E-02 0. -1.
     200001    2    1    2    0    0 -0.16621261956E+03 -0.13037161717E+03 -0.33704593149E+03  0.73124650367E+03  0.61359440653E+03 0.  0.
    5000001    2    3    3    0    0 -0.21087546018E+03 -0.27394296616E+03 -0.86917331044E+02  0.42242160450E+03  0.22665432072E+03 0.  0.
        -13    1    4    4    0    0  0.33608006621E+02  0.12225671612E+02 -0.58197398320E+01  0.36233212543E+02  0.10566000000E+00 0. -1.
     200003    1    4    4    0    0 -0.24448346680E+03 -0.28616863777E+03 -0.81097591212E+02  0.38618839196E+03  0.30000000000E+02 0. -1.
     200000    1    3    3    0    0  0.44662840616E+02  0.14357134899E+03 -0.25012860045E+03  0.30882489917E+03  0.10100000000E+03 0.  1.
    -200001    1    1    2    0    0  0.16621261956E+03  0.13037161717E+03 -0.22953775001E+03  0.68780809253E+03  0.61300000000E+03 0. -1.
<mgrwt>
<rscale>  0 0.13010376E+04</rscale>
<asrwt>0</asrwt>
<pdfrwt beam="1">  1        2 0.60890780E-01 0.13010376E+04</pdfrwt>
<pdfrwt beam="2">  1       -2 0.14183130E+00 0.13010376E+04</pdfrwt>
<totfact> 0.27414917E+01</totfact>
</mgrwt>
</event>
<event>
 8    1  0.7685004E-052  0.1373708E+04  0.7818608E-02  0.8973073E-01
          2   -1    0    0  501    0  0.00000000000E+00  0.00000000000E+00  0.33715943130E+04  0.33715943130E+04  0.25500000000E-02 0.  1.
         -2   -1    0    0    0  501 -0.00000000000E+00 -0.00000000000E+00 -0.13992444486E+03  0.13992444489E+03  0.25500000000E-02 0. -1.
     200001    2    1    2    0    0  0.24754078316E+03  0.18301858681E+03  0.15317327381E+04  0.16783991523E+04  0.61322613358E+03 0.  0.
    5000001    2    3    3    0    0  0.33296475159E+03 -0.10709573060E+03  0.66436145372E+03  0.75427929179E+03  0.72291683608E+02 0.  0.
        -13    1    4    4    0    0  0.24208756691E+03 -0.59659388438E+02  0.43831261477E+03  0.50426539849E+03  0.10566000000E+00 0. -1.
     200003    1    4    4    0    0  0.90877184678E+02 -0.47436342161E+02  0.22604883895E+03  0.25001389330E+03  0.30000000000E+02 0.  1.
     200000    1    3    3    0    0 -0.85423968437E+02  0.29011431741E+03  0.86737128443E+03  0.92411986051E+03  0.10100000000E+03 0.  1.
    -200001    1    1    2    0    0 -0.24754078316E+03 -0.18301858681E+03  0.16999371300E+04  0.18331196056E+04  0.61300000000E+03 0.  1.
<mgrwt>
<rscale>  0 0.13737081E+04</rscale>
<asrwt>0</asrwt>
<pdfrwt beam="1">  1        2 0.48165635E+00 0.13737081E+04</pdfrwt>
<pdfrwt beam="2">  1       -2 0.19989206E-01 0.13737081E+04</pdfrwt>
<totfact> 0.30385962E+01</totfact>
</mgrwt>
</event>
<event>
 8    1  0.7685004E-052  0.1553691E+04  0.7818608E-02  0.8849513E-01
          2   -1    0    0  501    0  0.00000000000E+00  0.00000000000E+00  0.36546049037E+03  0.36546049038E+03  0.25500000000E-02 0.  1.
         -2   -1    0    0    0  501 -0.00000000000E+00 -0.00000000000E+00 -0.16513116025E+04  0.16513116025E+04  0.25500000000E-02 0. -1.
     200001    2    1    2    0    0  0.19272548372E+03  0.33921870234E+03 -0.99955831913E+03  0.12357823340E+04  0.61304869599E+03 0.  0.
    5000001    2    3    3    0    0  0.76291792765E+02  0.29397894028E+03 -0.40039058940E+03  0.61545467156E+03  0.35528548197E+03 0.  0.
        -13    1    4    4    0    0  0.20996410734E+03  0.11105663795E+03 -0.18068855555E+03  0.29844072858E+03  0.10566000000E+00 0. -1.
     200003    1    4    4    0    0 -0.13367231457E+03  0.18292230233E+03 -0.21970203385E+03  0.31701394299E+03  0.30000000000E+02 0. -1.
     200000    1    3    3    0    0  0.11643369096E+03  0.45239762063E+02 -0.59916772974E+03  0.62032766247E+03  0.10100000000E+03 0. -1.
    -200001    1    1    2    0    0 -0.19272548372E+03 -0.33921870234E+03 -0.28629279297E+03  0.78098975883E+03  0.61300000000E+03 0.  1.
<mgrwt>
<rscale>  0 0.15536913E+04</rscale>
<asrwt>0</asrwt>
<pdfrwt beam="1">  1        2 0.52208642E-01 0.15536913E+04</pdfrwt>
<pdfrwt beam="2">  1       -2 0.23590165E+00 0.15536913E+04</pdfrwt>
<totfact> 0.72472782E+00</totfact>
</mgrwt>
</event>
<event>
 8    1  0.7685004E-052  0.1361349E+04  0.7818608E-02  0.8982282E-01
         -2   -1    0    0    0  501 -0.00000000000E+00  0.00000000000E+00  0.26299812073E+03  0.26299812074E+03  0.25500000000E-02 0. -1.
          2   -1    0    0  501    0  0.00000000000E+00 -0.00000000000E+00 -0.17616760604E+04  0.17616760604E+04  0.25500000000E-02 0.  1.
     200001    2    1    2    0    0 -0.84383060478E+02  0.15744811014E+03 -0.37057182467E+03  0.72840923330E+03  0.60112072468E+03 0.  0.
    5000001    2    3    3    0    0 -0.35283439303E+02  0.14712607538E+03 -0.51553909605E+03  0.54474152527E+03  0.89843011178E+02 0.  0.
        -13    1    4    4    0    0 -0.18264394287E+02  0.35327328084E+02 -0.45826401337E+02  0.60676836039E+02  0.10566000000E+00 0. -1.
     200003    1    4    4    0    0 -0.17019045015E+02  0.11179874729E+03 -0.46971269471E+03  0.48406468923E+03  0.30000000000E+02 0. -1.
     200000    1    3    3    0    0 -0.49099621175E+02  0.10322034765E+02  0.14496727138E+03  0.18366770803E+03  0.10100000000E+03 0. -1.
    -200001    1    1    2    0    0  0.84383060478E+02 -0.15744811014E+03 -0.11281061150E+04  0.12962649478E+04  0.61300000000E+03 0.  1.
<mgrwt>
<rscale>  0 0.13613486E+04</rscale>
<asrwt>0</asrwt>
<pdfrwt beam="1">  1        2 0.25166800E+00 0.13613486E+04</pdfrwt>
<pdfrwt beam="2">  1       -2 0.37571161E-01 0.13613486E+04</pdfrwt>
<totfact> 0.69513425E+01</totfact>
</mgrwt>
</event>
<event>
 8    1  0.7685004E-052  0.1490827E+04  0.7818608E-02  0.8890576E-01
         -2   -1    0    0    0  501 -0.00000000000E+00  0.00000000000E+00  0.39680296734E+03  0.39680296735E+03  0.25500000000E-02 0. -1.
          2   -1    0    0  501    0  0.00000000000E+00 -0.00000000000E+00 -0.14002957971E+04  0.14002957971E+04  0.25500000000E-02 0.  1.
     200001    2    1    2    0    0 -0.88019415158E+02  0.18114470389E+03 -0.95139405139E+03  0.11497626046E+04  0.61338616280E+03 0.  0.
    5000001    2    3    3    0    0  0.12732668207E+03  0.21627356259E+03 -0.38630191324E+03  0.53564689652E+03  0.27331683398E+03 0.  0.
        -13    1    4    4    0    0  0.28922284534E+02  0.12974664783E+03 -0.68725492115E+01  0.13310873098E+03  0.10566000000E+00 0. -1.
     200003    1    4    4    0    0  0.98404397534E+02  0.86526914761E+02 -0.37942936403E+03  0.40253816555E+03  0.30000000000E+02 0. -1.
     200000    1    3    3    0    0 -0.21534609723E+03 -0.35128858698E+02 -0.56509213815E+03  0.61411570807E+03  0.10100000000E+03 0.  1.
    -200001    1    1    2    0    0  0.88019415158E+02 -0.18114470389E+03 -0.52098778408E+02  0.64733615989E+03  0.61300000000E+03 0. -1.
<mgrwt>
<rscale>  0 0.14908273E+04</rscale>
<asrwt>0</asrwt>
<pdfrwt beam="1">  1        2 0.20004225E+00 0.14908273E+04</pdfrwt>
<pdfrwt beam="2">  1       -2 0.56686139E-01 0.14908273E+04</pdfrwt>
<totfact> 0.46743935E+01</totfact>
</mgrwt>
</event>
<event>
 8    1  0.7685004E-052  0.1319986E+04  0.7818608E-02  0.9013864E-01
          2   -1    0    0  501    0  0.00000000000E+00  0.00000000000E+00  0.14631413569E+04  0.14631413569E+04  0.25500000000E-02 0. -1.
         -2   -1    0    0    0  501 -0.00000000000E+00 -0.00000000000E+00 -0.29770944253E+03  0.29770944254E+03  0.25500000000E-02 0.  1.
     200001    2    1    2    0    0  0.23418992340E+03  0.53972086247E+02  0.52259683387E+03  0.84065307772E+03  0.61305158021E+03 0.  0.
    5000001    2    3    3    0    0  0.88203447335E+02 -0.11677240325E+03 -0.76436710910E+02  0.19295876737E+03  0.99874285231E+02 0.  0.
        -13    1    4    4    0    0  0.21898668246E+02 -0.64454343317E+02  0.95654592414E+01  0.68741713813E+02  0.10566000000E+00 0. -1.
     200003    1    4    4    0    0  0.66304779089E+02 -0.52318059928E+02 -0.86002170152E+02  0.12421705356E+03  0.30000000000E+02 0. -1.
     200000    1    3    3    0    0  0.14598647606E+03  0.17074448949E+03  0.59903354478E+03  0.64769431035E+03  0.10100000000E+03 0. -1.
    -200001    1    1    2    0    0 -0.23418992340E+03 -0.53972086247E+02  0.64283508046E+03  0.92019772168E+03  0.61300000000E+03 0. -1.
<mgrwt>
<rscale>  0 0.13199864E+04</rscale>
<asrwt>0</asrwt>
<pdfrwt beam="1">  1        2 0.20902019E+00 0.13199864E+04</pdfrwt>
<pdfrwt beam="2">  1       -2 0.42529920E-01 0.13199864E+04</pdfrwt>
<totfact> 0.78479609E+01</totfact>
</mgrwt>
</event>
