<event>
 4    1  0.5069019E-005  0.5536224E+03  0.7818608E-02  0.1000659E+00
         -2   -1    0    0    0  501 -0.00000000000E+00  0.00000000000E+00  0.37459075824E+02  0.37459075910E+02  0.25500000000E-02 0.  1.
          2   -1    0    0  501    0  0.00000000000E+00 -0.00000000000E+00 -0.20455510867E+04  0.20455510867E+04  0.25500000000E-02 0. -1.
    5000001    1    1    2    0    0  0.17319507331E+03  0.41086225152E+02 -0.72912923458E+03  0.77647604731E+03  0.19900000000E+03 0.  0.
   -5000001    1    1    2    0    0 -0.17319507331E+03 -0.41086225152E+02 -0.12789627763E+04  0.13065341153E+04  0.19900000000E+03 0.  0.
<mgrwt>
<rscale>  0 0.55362245E+03</rscale>
<asrwt>0</asrwt>
<pdfrwt beam="1">  1        2 0.29222151E+00 0.55362245E+03</pdfrwt>
<pdfrwt beam="2">  1       -2 0.53512979E-02 0.55362245E+03</pdfrwt>
<totfact> 0.14546804E+03</totfact>
</mgrwt>
</event>
<event>
 4    1  0.5069019E-005  0.1138907E+04  0.7818608E-02  0.9168079E-01
          2   -1    0    0  501    0  0.00000000000E+00  0.00000000000E+00  0.18974675507E+04  0.18974675507E+04  0.25500000000E-02 0.  1.
         -2   -1    0    0    0  501 -0.00000000000E+00 -0.00000000000E+00 -0.17090011462E+03  0.17090011464E+03  0.25500000000E-02 0. -1.
    5000001    1    1    2    0    0  0.34226473408E+03 -0.40547183205E+03  0.96478830447E+03  0.11189146649E+04  0.19900000000E+03 0.  0.
   -5000001    1    1    2    0    0 -0.34226473408E+03  0.40547183205E+03  0.76177913163E+03  0.94945300051E+03  0.19900000000E+03 0.  0.
<mgrwt>
<rscale>  0 0.11389072E+04</rscale>
<asrwt>0</asrwt>
<pdfrwt beam="1">  1        2 0.27106679E+00 0.11389072E+04</pdfrwt>
<pdfrwt beam="2">  1       -2 0.24414303E-01 0.11389072E+04</pdfrwt>
<totfact> 0.13442340E+02</totfact>
</mgrwt>
</event>
<event>
 4    1  0.5069019E-005  0.5989401E+03  0.7818608E-02  0.9907607E-01
         -2   -1    0    0    0  501 -0.00000000000E+00  0.00000000000E+00  0.11937384043E+04  0.11937384043E+04  0.25500000000E-02 0.  1.
          2   -1    0    0  501    0  0.00000000000E+00 -0.00000000000E+00 -0.75127272732E+02  0.75127272775E+02  0.25500000000E-02 0. -1.
    5000001    1    1    2    0    0  0.13839302959E+03  0.62642467233E+02  0.90744333704E+03  0.94134537725E+03  0.19900000000E+03 0.  0.
   -5000001    1    1    2    0    0 -0.13839302959E+03 -0.62642467233E+02  0.21116779448E+03  0.32752029978E+03  0.19900000000E+03 0.  0.
<mgrwt>
<rscale>  0 0.59894010E+03</rscale>
<asrwt>0</asrwt>
<pdfrwt beam="1">  1        2 0.10732468E-01 0.59894010E+03</pdfrwt>
<pdfrwt beam="2">  1       -2 0.17053405E+00 0.59894010E+03</pdfrwt>
<totfact> 0.13088010E+02</totfact>
</mgrwt>
</event>
<event>
 4    1  0.5069019E-005  0.6424296E+03  0.7818608E-02  0.9821089E-01
         -2   -1    0    0    0  501 -0.00000000000E+00  0.00000000000E+00  0.12247031237E+03  0.12247031240E+03  0.25500000000E-02 0. -1.
          2   -1    0    0  501    0  0.00000000000E+00 -0.00000000000E+00 -0.84248127013E+03  0.84248127013E+03  0.25500000000E-02 0.  1.
    5000001    1    1    2    0    0  0.20732801526E+03 -0.96791965721E+02 -0.51913862925E+03  0.60121502553E+03  0.19900000000E+03 0.  0.
   -5000001    1    1    2    0    0 -0.20732801526E+03  0.96791965721E+02 -0.20087232851E+03  0.36373655700E+03  0.19900000000E+03 0.  0.
<mgrwt>
<rscale>  0 0.64242959E+03</rscale>
<asrwt>0</asrwt>
<pdfrwt beam="1">  1        2 0.12035446E+00 0.64242959E+03</pdfrwt>
<pdfrwt beam="2">  1       -2 0.17495759E-01 0.64242959E+03</pdfrwt>
<totfact> 0.95985717E+02</totfact>
</mgrwt>
</event>
<event>
 4    1  0.5069019E-005  0.6900590E+03  0.7818608E-02  0.9734385E-01
          2   -1    0    0  501    0  0.00000000000E+00  0.00000000000E+00  0.36221398235E+04  0.36221398235E+04  0.25500000000E-02 0.  1.
         -2   -1    0    0    0  501 -0.00000000000E+00 -0.00000000000E+00 -0.32866026552E+02  0.32866026651E+02  0.25500000000E-02 0. -1.
    5000001    1    1    2    0    0 -0.22774836785E+03  0.16338761736E+03  0.19517175047E+04  0.19817585753E+04  0.19900000000E+03 0.  0.
   -5000001    1    1    2    0    0  0.22774836785E+03 -0.16338761736E+03  0.16375562922E+04  0.16732472749E+04  0.19900000000E+03 0.  0.
<mgrwt>
<rscale>  0 0.69005897E+03</rscale>
<asrwt>0</asrwt>
<pdfrwt beam="1">  1        2 0.51744848E+00 0.69005897E+03</pdfrwt>
<pdfrwt beam="2">  1       -2 0.46951472E-02 0.69005897E+03</pdfrwt>
<totfact> 0.24787026E+02</totfact>
</mgrwt>
</event>
<event>
 4    1  0.5069019E-005  0.5370458E+03  0.7818608E-02  0.1004538E+00
          2   -1    0    0  501    0  0.00000000000E+00  0.00000000000E+00  0.13894620928E+03  0.13894620930E+03  0.25500000000E-02 0.  1.
         -2   -1    0    0    0  501 -0.00000000000E+00 -0.00000000000E+00 -0.51893849113E+03  0.51893849113E+03  0.25500000000E-02 0. -1.
    5000001    1    1    2    0    0 -0.13615048028E+03 -0.10224374202E+03 -0.26260092160E+03  0.37087865952E+03  0.19900000000E+03 0.  0.
   -5000001    1    1    2    0    0  0.13615048028E+03  0.10224374202E+03 -0.11739136025E+03  0.28700604092E+03  0.19900000000E+03 0.  0.
<mgrwt>
<rscale>  0 0.53704576E+03</rscale>
<asrwt>0</asrwt>
<pdfrwt beam="1">  1        2 0.19849459E-01 0.53704576E+03</pdfrwt>
<pdfrwt beam="2">  1       -2 0.74134069E-01 0.53704576E+03</pdfrwt>
<totfact> 0.47392767E+02</totfact>
</mgrwt>
</event>
<event>
 4    1  0.5069019E-005  0.9853564E+03  0.7818608E-02  0.9324753E-01
          2   -1    0    0  501    0  0.00000000000E+00  0.00000000000E+00  0.52108858339E+03  0.52108858340E+03  0.25500000000E-02 0.  1.
         -2   -1    0    0    0  501 -0.00000000000E+00 -0.00000000000E+00 -0.46581679834E+03  0.46581679835E+03  0.25500000000E-02 0. -1.
    5000001    1    1    2    0    0 -0.42118078626E+02 -0.16730922292E+03  0.44466105846E+03  0.51680824832E+03  0.19900000000E+03 0.  0.
   -5000001    1    1    2    0    0  0.42118078626E+02  0.16730922292E+03 -0.38938927340E+03  0.47009713343E+03  0.19900000000E+03 0.  0.
<mgrwt>
<rscale>  0 0.98535641E+03</rscale>
<asrwt>0</asrwt>
<pdfrwt beam="1">  1        2 0.74441226E-01 0.98535641E+03</pdfrwt>
<pdfrwt beam="2">  1       -2 0.66545257E-01 0.98535641E+03</pdfrwt>
<totfact> 0.13284492E+02</totfact>
</mgrwt>
</event>
<event>
 4    1  0.5069019E-005  0.4609797E+03  0.7818608E-02  0.1024497E+00
         -2   -1    0    0    0  501 -0.00000000000E+00  0.00000000000E+00  0.42392455437E+03  0.42392455438E+03  0.25500000000E-02 0. -1.
          2   -1    0    0  501    0  0.00000000000E+00 -0.00000000000E+00 -0.12531846789E+03  0.12531846791E+03  0.25500000000E-02 0.  1.
    5000001    1    1    2    0    0 -0.24964204573E+02 -0.10187610645E+03  0.20914543063E+03  0.30715592739E+03  0.19900000000E+03 0.  0.
   -5000001    1    1    2    0    0  0.24964204573E+02  0.10187610645E+03  0.89460655854E+02  0.24208709491E+03  0.19900000000E+03 0.  0.
<mgrwt>
<rscale>  0 0.46097972E+03</rscale>
<asrwt>0</asrwt>
<pdfrwt beam="1">  1        2 0.17902639E-01 0.46097972E+03</pdfrwt>
<pdfrwt beam="2">  1       -2 0.60560650E-01 0.46097972E+03</pdfrwt>
<totfact> 0.82592716E+02</totfact>
</mgrwt>
</event>
<event>
 4    1  0.5069019E-005  0.4391324E+03  0.7818608E-02  0.1031013E+00
         -2   -1    0    0    0  501 -0.00000000000E+00  0.00000000000E+00  0.25256948421E+02  0.25256948549E+02  0.25500000000E-02 0. -1.
          2   -1    0    0  501    0  0.00000000000E+00 -0.00000000000E+00 -0.19087544095E+04  0.19087544095E+04  0.25500000000E-02 0.  1.
    5000001    1    1    2    0    0  0.78408562214E+02 -0.47733935260E+02 -0.10011446672E+04  0.10248502700E+04  0.19900000000E+03 0.  0.
   -5000001    1    1    2    0    0 -0.78408562214E+02  0.47733935260E+02 -0.88235279381E+03  0.90916108801E+03  0.19900000000E+03 0.  0.
<mgrwt>
<rscale>  0 0.43913238E+03</rscale>
<asrwt>0</asrwt>
<pdfrwt beam="1">  1        2 0.27267911E+00 0.43913238E+03</pdfrwt>
<pdfrwt beam="2">  1       -2 0.36081367E-02 0.43913238E+03</pdfrwt>
<totfact> 0.31318816E+03</totfact>
</mgrwt>
</event>
<event>
 4    1  0.5069019E-005  0.6191198E+03  0.7818608E-02  0.9866514E-01
          2   -1    0    0  501    0  0.00000000000E+00  0.00000000000E+00  0.26985632579E+04  0.26985632579E+04  0.25500000000E-02 0.  1.
         -2   -1    0    0    0  501 -0.00000000000E+00 -0.00000000000E+00 -0.35510495084E+02  0.35510495176E+02  0.25500000000E-02 0. -1.
    5000001    1    1    2    0    0 -0.10054542670E+03 -0.18537048459E+03  0.85274012789E+03  0.90068769565E+03  0.19900000000E+03 0.  0.
   -5000001    1    1    2    0    0  0.10054542670E+03  0.18537048459E+03  0.18103126349E+04  0.18333860574E+04  0.19900000000E+03 0.  0.
<mgrwt>
<rscale>  0 0.61911975E+03</rscale>
<asrwt>0</asrwt>
<pdfrwt beam="1">  1        2 0.38550892E+00 0.61911975E+03</pdfrwt>
<pdfrwt beam="2">  1       -2 0.50729295E-02 0.61911975E+03</pdfrwt>
<totfact> 0.73163007E+02</totfact>
</mgrwt>
</event>
<event>
 4    1  0.5069019E-005  0.5345835E+03  0.7818608E-02  0.1005127E+00
         -2   -1    0    0    0  501 -0.00000000000E+00  0.00000000000E+00  0.17199131806E+03  0.17199131808E+03  0.25500000000E-02 0. -1.
          2   -1    0    0  501    0  0.00000000000E+00 -0.00000000000E+00 -0.41539814167E+03  0.41539814167E+03  0.25500000000E-02 0.  1.
    5000001    1    1    2    0    0  0.15093488067E+03  0.35772575172E+01 -0.22623044934E+03  0.33700942299E+03  0.19900000000E+03 0.  0.
   -5000001    1    1    2    0    0 -0.15093488067E+03 -0.35772575172E+01 -0.17176374265E+02  0.25038003676E+03  0.19900000000E+03 0.  0.
<mgrwt>
<rscale>  0 0.53458348E+03</rscale>
<asrwt>0</asrwt>
<pdfrwt beam="1">  1        2 0.59342591E-01 0.53458348E+03</pdfrwt>
<pdfrwt beam="2">  1       -2 0.24570188E-01 0.53458348E+03</pdfrwt>
<totfact> 0.12254772E+03</totfact>
</mgrwt>
</event>
<event>
 4    1  0.5069019E-005  0.5523925E+03  0.7818608E-02  0.1000942E+00
          2   -1    0    0  501    0  0.00000000000E+00  0.00000000000E+00  0.64565739366E+03  0.64565739367E+03  0.25500000000E-02 0. -1.
         -2   -1    0    0    0  501 -0.00000000000E+00 -0.00000000000E+00 -0.11814993211E+03  0.11814993213E+03  0.25500000000E-02 0.  1.
    5000001    1    1    2    0    0  0.87782377430E+01  0.19132651849E+03  0.26279265721E+03  0.38123991766E+03  0.19900000000E+03 0.  0.
   -5000001    1    1    2    0    0 -0.87782377430E+01 -0.19132651849E+03  0.26471480434E+03  0.38256740814E+03  0.19900000000E+03 0.  0.
<mgrwt>
<rscale>  0 0.55239253E+03</rscale>
<asrwt>0</asrwt>
<pdfrwt beam="1">  1        2 0.92236772E-01 0.55239253E+03</pdfrwt>
<pdfrwt beam="2">  1       -2 0.16878562E-01 0.55239253E+03</pdfrwt>
<totfact> 0.14233472E+03</totfact>
</mgrwt>
</event>
<event>
 4    1  0.5069019E-005  0.7014764E+03  0.7818608E-02  0.9714711E-01
         -2   -1    0    0    0  501 -0.00000000000E+00  0.00000000000E+00  0.33487529643E+03  0.33487529644E+03  0.25500000000E-02 0. -1.
          2   -1    0    0  501    0  0.00000000000E+00 -0.00000000000E+00 -0.36735252099E+03  0.36735252100E+03  0.25500000000E-02 0.  1.
    5000001    1    1    2    0    0  0.75229655580E+02  0.21483653535E+03 -0.19419868261E+03  0.35934435619E+03  0.19900000000E+03 0.  0.
   -5000001    1    1    2    0    0 -0.75229655580E+02 -0.21483653535E+03  0.16172145805E+03  0.34288346124E+03  0.19900000000E+03 0.  0.
<mgrwt>
<rscale>  0 0.70147640E+03</rscale>
<asrwt>0</asrwt>
<pdfrwt beam="1">  1        2 0.52478931E-01 0.70147640E+03</pdfrwt>
<pdfrwt beam="2">  1       -2 0.47839328E-01 0.70147640E+03</pdfrwt>
<totfact> 0.39697917E+02</totfact>
</mgrwt>
</event>
<event>
 4    1  0.5069019E-005  0.4637032E+03  0.7818608E-02  0.1023713E+00
          2   -1    0    0  501    0  0.00000000000E+00  0.00000000000E+00  0.14425262630E+03  0.14425262632E+03  0.25500000000E-02 0.  1.
         -2   -1    0    0    0  501 -0.00000000000E+00 -0.00000000000E+00 -0.37264600503E+03  0.37264600504E+03  0.25500000000E-02 0. -1.
    5000001    1    1    2    0    0  0.47173410249E+02  0.21732864153E+02  0.51173605150E+01  0.20573000607E+03  0.19900000000E+03 0.  0.
   -5000001    1    1    2    0    0 -0.47173410249E+02 -0.21732864153E+02 -0.23351073925E+03  0.31116862529E+03  0.19900000000E+03 0.  0.
<mgrwt>
<rscale>  0 0.46370320E+03</rscale>
<asrwt>0</asrwt>
<pdfrwt beam="1">  1        2 0.20607518E-01 0.46370320E+03</pdfrwt>
<pdfrwt beam="2">  1       -2 0.53235143E-01 0.46370320E+03</pdfrwt>
<totfact> 0.91493155E+02</totfact>
</mgrwt>
</event>
<event>
 4    1  0.5069019E-005  0.5131722E+03  0.7818608E-02  0.1010397E+00
          2   -1    0    0  501    0  0.00000000000E+00  0.00000000000E+00  0.55736490137E+03  0.55736490137E+03  0.25500000000E-02 0.  1.
         -2   -1    0    0    0  501 -0.00000000000E+00 -0.00000000000E+00 -0.11812085737E+03  0.11812085740E+03  0.25500000000E-02 0. -1.
    5000001    1    1    2    0    0  0.13121659790E+03  0.32853260931E+02  0.33690001239E+03  0.41400452977E+03  0.19900000000E+03 0.  0.
   -5000001    1    1    2    0    0 -0.13121659790E+03 -0.32853260931E+02  0.10234403161E+03  0.26148122901E+03  0.19900000000E+03 0.  0.
<mgrwt>
<rscale>  0 0.51317217E+03</rscale>
<asrwt>0</asrwt>
<pdfrwt beam="1">  1        2 0.79623558E-01 0.51317217E+03</pdfrwt>
<pdfrwt beam="2">  1       -2 0.16874408E-01 0.51317217E+03</pdfrwt>
<totfact> 0.16919021E+03</totfact>
</mgrwt>
</event>
<event>
 4    1  0.5069019E-005  0.4393953E+03  0.7818608E-02  0.1030933E+00
          2   -1    0    0  501    0  0.00000000000E+00  0.00000000000E+00  0.86472488915E+03  0.86472488915E+03  0.25500000000E-02 0.  1.
         -2   -1    0    0    0  501 -0.00000000000E+00 -0.00000000000E+00 -0.55817814274E+02  0.55817814332E+02  0.25500000000E-02 0. -1.
    5000001    1    1    2    0    0 -0.28773751107E+02  0.85031006452E+02  0.35280147739E+03  0.41488321641E+03  0.19900000000E+03 0.  0.
   -5000001    1    1    2    0    0  0.28773751107E+02 -0.85031006452E+02  0.45610559749E+03  0.50565948708E+03  0.19900000000E+03 0.  0.
<mgrwt>
<rscale>  0 0.43939528E+03</rscale>
<asrwt>0</asrwt>
<pdfrwt beam="1">  1        2 0.12353211E+00 0.43939528E+03</pdfrwt>
<pdfrwt beam="2">  1       -2 0.79739744E-02 0.43939528E+03</pdfrwt>
<totfact> 0.33762465E+03</totfact>
</mgrwt>
</event>
<event>
 4    1  0.5069019E-005  0.6282327E+03  0.7818608E-02  0.9848504E-01
          2   -1    0    0  501    0  0.00000000000E+00  0.00000000000E+00  0.19368082990E+04  0.19368082990E+04  0.25500000000E-02 0.  1.
         -2   -1    0    0    0  501 -0.00000000000E+00 -0.00000000000E+00 -0.50944166107E+02  0.50944166171E+02  0.25500000000E-02 0. -1.
    5000001    1    1    2    0    0  0.17153429210E+03 -0.17139607801E+03  0.89118723332E+03  0.94478373915E+03  0.19900000000E+03 0.  0.
   -5000001    1    1    2    0    0 -0.17153429210E+03  0.17139607801E+03  0.99467689961E+03  0.10429687261E+04  0.19900000000E+03 0.  0.
<mgrwt>
<rscale>  0 0.62823271E+03</rscale>
<asrwt>0</asrwt>
<pdfrwt beam="1">  1        2 0.27668685E+00 0.62823271E+03</pdfrwt>
<pdfrwt beam="2">  1       -2 0.72777393E-02 0.62823271E+03</pdfrwt>
<totfact> 0.10141153E+03</totfact>
</mgrwt>
</event>
<event>
 4    1  0.5069019E-005  0.5225822E+03  0.7818608E-02  0.1008047E+00
          2   -1    0    0  501    0  0.00000000000E+00  0.00000000000E+00  0.11148842881E+04  0.11148842881E+04  0.25500000000E-02 0.  1.
         -2   -1    0    0    0  501 -0.00000000000E+00 -0.00000000000E+00 -0.61237772290E+02  0.61237772343E+02  0.25500000000E-02 0. -1.
    5000001    1    1    2    0    0  0.20005302504E+02  0.58937023697E+02  0.17241136505E+03  0.27055584209E+03  0.19900000000E+03 0.  0.
   -5000001    1    1    2    0    0 -0.20005302504E+02 -0.58937023697E+02  0.88123515074E+03  0.90556621834E+03  0.19900000000E+03 0.  0.
<mgrwt>
<rscale>  0 0.52258217E+03</rscale>
<asrwt>0</asrwt>
<pdfrwt beam="1">  1        2 0.15926918E+00 0.52258217E+03</pdfrwt>
<pdfrwt beam="2">  1       -2 0.87482533E-02 0.52258217E+03</pdfrwt>
<totfact> 0.20513072E+03</totfact>
</mgrwt>
</event>
<event>
 4    1  0.5069019E-005  0.4290296E+03  0.7818608E-02  0.1034167E+00
         -2   -1    0    0    0  501 -0.00000000000E+00  0.00000000000E+00  0.22854917565E+02  0.22854917707E+02  0.25500000000E-02 0. -1.
          2   -1    0    0  501    0  0.00000000000E+00 -0.00000000000E+00 -0.20134224343E+04  0.20134224343E+04  0.25500000000E-02 0.  1.
    5000001    1    1    2    0    0  0.54906613796E+02  0.56518590968E+02 -0.10634904643E+04  0.10848142952E+04  0.19900000000E+03 0.  0.
   -5000001    1    1    2    0    0 -0.54906613796E+02 -0.56518590968E+02 -0.92707705240E+03  0.95146305680E+03  0.19900000000E+03 0.  0.
<mgrwt>
<rscale>  0 0.42902962E+03</rscale>
<asrwt>0</asrwt>
<pdfrwt beam="1">  1        2 0.28763166E+00 0.42902962E+03</pdfrwt>
<pdfrwt beam="2">  1       -2 0.32649895E-02 0.42902962E+03</pdfrwt>
<totfact> 0.32338186E+03</totfact>
</mgrwt>
</event>
<event>
 4    1  0.5069019E-005  0.5941327E+03  0.7818608E-02  0.9917654E-01
          2   -1    0    0  501    0  0.00000000000E+00  0.00000000000E+00  0.68483899566E+03  0.68483899566E+03  0.25500000000E-02 0.  1.
         -2   -1    0    0    0  501 -0.00000000000E+00 -0.00000000000E+00 -0.12886009508E+03  0.12886009511E+03  0.25500000000E-02 0. -1.
    5000001    1    1    2    0    0 -0.71972478807E+02  0.18427616278E+02 -0.64298343630E+01  0.21251342903E+03  0.19900000000E+03 0.  0.
   -5000001    1    1    2    0    0  0.71972478807E+02 -0.18427616278E+02  0.56240873494E+03  0.60118566174E+03  0.19900000000E+03 0.  0.
<mgrwt>
<rscale>  0 0.59413271E+03</rscale>
<asrwt>0</asrwt>
<pdfrwt beam="1">  1        2 0.97834142E-01 0.59413271E+03</pdfrwt>
<pdfrwt beam="2">  1       -2 0.18408585E-01 0.59413271E+03</pdfrwt>
<totfact> 0.11423568E+03</totfact>
</mgrwt>
</event>
<event>
 4    1  0.5069019E-005  0.8065985E+03  0.7818608E-02  0.9550515E-01
          2   -1    0    0  501    0  0.00000000000E+00  0.00000000000E+00  0.29330825580E+04  0.29330825580E+04  0.25500000000E-02 0.  1.
         -2   -1    0    0    0  501 -0.00000000000E+00 -0.00000000000E+00 -0.55453699814E+02  0.55453699872E+02  0.25500000000E-02 0. -1.
    5000001    1    1    2    0    0  0.24959061955E+03 -0.23602909071E+03  0.11756714960E+04  0.12408906783E+04  0.19900000000E+03 0.  0.
   -5000001    1    1    2    0    0 -0.24959061955E+03  0.23602909071E+03  0.17019573622E+04  0.17476455796E+04  0.19900000000E+03 0.  0.
<mgrwt>
<rscale>  0 0.80659849E+03</rscale>
<asrwt>0</asrwt>
<pdfrwt beam="1">  1        2 0.41901195E+00 0.80659849E+03</pdfrwt>
<pdfrwt beam="2">  1       -2 0.79219541E-02 0.80659849E+03</pdfrwt>
<totfact> 0.26715899E+02</totfact>
</mgrwt>
</event>
<event>
 4    1  0.5069019E-005  0.7494550E+03  0.7818608E-02  0.9636206E-01
         -2   -1    0    0    0  501 -0.00000000000E+00  0.00000000000E+00  0.26660883293E+03  0.26660883295E+03  0.25500000000E-02 0. -1.
          2   -1    0    0  501    0  0.00000000000E+00 -0.00000000000E+00 -0.52669179599E+03  0.52669179600E+03  0.25500000000E-02 0.  1.
    5000001    1    1    2    0    0  0.30050131761E+03  0.97014583937E+02 -0.16525662941E+03  0.40819557193E+03  0.19900000000E+03 0.  0.
   -5000001    1    1    2    0    0 -0.30050131761E+03 -0.97014583937E+02 -0.94826333649E+02  0.38510505701E+03  0.19900000000E+03 0.  0.
<mgrwt>
<rscale>  0 0.74945496E+03</rscale>
<asrwt>0</asrwt>
<pdfrwt beam="1">  1        2 0.75241685E-01 0.74945496E+03</pdfrwt>
<pdfrwt beam="2">  1       -2 0.38086976E-01 0.74945496E+03</pdfrwt>
<totfact> 0.41378268E+02</totfact>
</mgrwt>
</event>
<event>
 4    1  0.5069019E-005  0.1270706E+04  0.7818608E-02  0.9053123E-01
         -2   -1    0    0    0  501 -0.00000000000E+00  0.00000000000E+00  0.41421553491E+03  0.41421553491E+03  0.25500000000E-02 0. -1.
          2   -1    0    0  501    0  0.00000000000E+00 -0.00000000000E+00 -0.97454973481E+03  0.97454973482E+03  0.25500000000E-02 0.  1.
    5000001    1    1    2    0    0 -0.45979808715E+03  0.12858101396E+03  0.12306310061E+03  0.53168871046E+03  0.19900000000E+03 0.  0.
   -5000001    1    1    2    0    0  0.45979808715E+03 -0.12858101396E+03 -0.68339730051E+03  0.85707655927E+03  0.19900000000E+03 0.  0.
<mgrwt>
<rscale>  0 0.12707063E+04</rscale>
<asrwt>0</asrwt>
<pdfrwt beam="1">  1        2 0.13922139E+00 0.12707063E+04</pdfrwt>
<pdfrwt beam="2">  1       -2 0.59173648E-01 0.12707063E+04</pdfrwt>
<totfact> 0.76366172E+01</totfact>
</mgrwt>
</event>
<event>
 4    1  0.5069019E-005  0.8696768E+03  0.7818608E-02  0.9464301E-01
         -2   -1    0    0    0  501 -0.00000000000E+00  0.00000000000E+00  0.21141654025E+03  0.21141654026E+03  0.25500000000E-02 0. -1.
          2   -1    0    0  501    0  0.00000000000E+00 -0.00000000000E+00 -0.89436912062E+03  0.89436912062E+03  0.25500000000E-02 0.  1.
    5000001    1    1    2    0    0 -0.50079645705E+02 -0.38337210791E+03 -0.34003711322E+03  0.55200396956E+03  0.19900000000E+03 0.  0.
   -5000001    1    1    2    0    0  0.50079645705E+02  0.38337210791E+03 -0.34291546715E+03  0.55378169133E+03  0.19900000000E+03 0.  0.
<mgrwt>
<rscale>  0 0.86967678E+03</rscale>
<asrwt>0</asrwt>
<pdfrwt beam="1">  1        2 0.12776701E+00 0.86967678E+03</pdfrwt>
<pdfrwt beam="2">  1       -2 0.30202364E-01 0.86967678E+03</pdfrwt>
<totfact> 0.33230242E+02</totfact>
</mgrwt>
</event>
<event>
 4    1  0.5069019E-005  0.5344168E+03  0.7818608E-02  0.1005167E+00
          2   -1    0    0  501    0  0.00000000000E+00  0.00000000000E+00  0.10835379428E+04  0.10835379428E+04  0.25500000000E-02 0.  1.
         -2   -1    0    0    0  501 -0.00000000000E+00 -0.00000000000E+00 -0.65895559976E+02  0.65895560025E+02  0.25500000000E-02 0. -1.
    5000001    1    1    2    0    0  0.17185348069E+02  0.17634311146E+03  0.46542418194E+03  0.53629553260E+03  0.19900000000E+03 0.  0.
   -5000001    1    1    2    0    0 -0.17185348069E+02 -0.17634311146E+03  0.55221820086E+03  0.61313797021E+03  0.19900000000E+03 0.  0.
<mgrwt>
<rscale>  0 0.53441684E+03</rscale>
<asrwt>0</asrwt>
<pdfrwt beam="1">  1        2 0.15479113E+00 0.53441684E+03</pdfrwt>
<pdfrwt beam="2">  1       -2 0.94136518E-02 0.53441684E+03</pdfrwt>
<totfact> 0.19013356E+03</totfact>
</mgrwt>
</event>
<event>
 4    1  0.5069019E-005  0.5698711E+03  0.7818608E-02  0.9969964E-01
          2   -1    0    0  501    0  0.00000000000E+00  0.00000000000E+00  0.19152501005E+03  0.19152501007E+03  0.25500000000E-02 0.  1.
         -2   -1    0    0    0  501 -0.00000000000E+00 -0.00000000000E+00 -0.42390426485E+03  0.42390426486E+03  0.25500000000E-02 0. -1.
    5000001    1    1    2    0    0  0.18767285696E+03  0.70673342603E+01 -0.30361399738E+02  0.27530685253E+03  0.19900000000E+03 0.  0.
   -5000001    1    1    2    0    0 -0.18767285696E+03 -0.70673342603E+01 -0.20201785506E+03  0.34012242240E+03  0.19900000000E+03 0.  0.
<mgrwt>
<rscale>  0 0.56987110E+03</rscale>
<asrwt>0</asrwt>
<pdfrwt beam="1">  1        2 0.27360716E-01 0.56987110E+03</pdfrwt>
<pdfrwt beam="2">  1       -2 0.60557752E-01 0.56987110E+03</pdfrwt>
<totfact> 0.50599688E+02</totfact>
</mgrwt>
</event>
<event>
 4    1  0.5069019E-005  0.7288470E+03  0.7818608E-02  0.9669133E-01
         -2   -1    0    0    0  501 -0.00000000000E+00  0.00000000000E+00  0.11761425125E+03  0.11761425128E+03  0.25500000000E-02 0. -1.
          2   -1    0    0  501    0  0.00000000000E+00 -0.00000000000E+00 -0.11291531462E+04  0.11291531462E+04  0.25500000000E-02 0.  1.
    5000001    1    1    2    0    0  0.13407846293E+03  0.22633910148E+03 -0.24078021244E+03  0.40839017346E+03  0.19900000000E+03 0.  0.
   -5000001    1    1    2    0    0 -0.13407846293E+03 -0.22633910148E+03 -0.77075868256E+03  0.83837722406E+03  0.19900000000E+03 0.  0.
<mgrwt>
<rscale>  0 0.72884704E+03</rscale>
<asrwt>0</asrwt>
<pdfrwt beam="1">  1        2 0.16130759E+00 0.72884704E+03</pdfrwt>
<pdfrwt beam="2">  1       -2 0.16802037E-01 0.72884704E+03</pdfrwt>
<totfact> 0.68150353E+02</totfact>
</mgrwt>
</event>
<event>
 4    1  0.5069019E-005  0.5308454E+03  0.7818608E-02  0.1006027E+00
          2   -1    0    0  501    0  0.00000000000E+00  0.00000000000E+00  0.28502045289E+04  0.28502045289E+04  0.25500000000E-02 0.  1.
         -2   -1    0    0    0  501 -0.00000000000E+00 -0.00000000000E+00 -0.24717250632E+02  0.24717250764E+02  0.25500000000E-02 0. -1.
    5000001    1    1    2    0    0  0.15199153449E+03  0.82220421483E+02  0.12426345441E+04  0.12702768337E+04  0.19900000000E+03 0.  0.
   -5000001    1    1    2    0    0 -0.15199153449E+03 -0.82220421483E+02  0.15828527342E+04  0.16046449459E+04  0.19900000000E+03 0.  0.
<mgrwt>
<rscale>  0 0.53084544E+03</rscale>
<asrwt>0</asrwt>
<pdfrwt beam="1">  1        2 0.40717185E+00 0.53084544E+03</pdfrwt>
<pdfrwt beam="2">  1       -2 0.35310378E-02 0.53084544E+03</pdfrwt>
<totfact> 0.10707693E+03</totfact>
</mgrwt>
</event>
<event>
 4    1  0.5069019E-005  0.1207172E+04  0.7818608E-02  0.9106602E-01
         -2   -1    0    0    0  501 -0.00000000000E+00  0.00000000000E+00  0.16797909101E+04  0.16797909101E+04  0.25500000000E-02 0. -1.
          2   -1    0    0  501    0  0.00000000000E+00 -0.00000000000E+00 -0.21688165741E+03  0.21688165742E+03  0.25500000000E-02 0.  1.
    5000001    1    1    2    0    0  0.77816666035E+02  0.38982182249E+03  0.89965953089E+02  0.45355414177E+03  0.19900000000E+03 0.  0.
   -5000001    1    1    2    0    0 -0.77816666035E+02 -0.38982182249E+03  0.13729432996E+04  0.14431184257E+04  0.19900000000E+03 0.  0.
<mgrwt>
<rscale>  0 0.12071716E+04</rscale>
<asrwt>0</asrwt>
<pdfrwt beam="1">  1        2 0.30983094E-01 0.12071716E+04</pdfrwt>
<pdfrwt beam="2">  1       -2 0.23997013E+00 0.12071716E+04</pdfrwt>
<totfact> 0.12587592E+01</totfact>
</mgrwt>
</event>
<event>
 4    1  0.5069019E-005  0.5959788E+03  0.7818608E-02  0.9913784E-01
         -2   -1    0    0    0  501 -0.00000000000E+00  0.00000000000E+00  0.39155260777E+02  0.39155260860E+02  0.25500000000E-02 0. -1.
          2   -1    0    0  501    0  0.00000000000E+00 -0.00000000000E+00 -0.22678352411E+04  0.22678352411E+04  0.25500000000E-02 0.  1.
    5000001    1    1    2    0    0 -0.10151379735E+03 -0.10520835188E+03 -0.17600175114E+04  0.17772553246E+04  0.19900000000E+03 0.  0.
   -5000001    1    1    2    0    0  0.10151379735E+03  0.10520835188E+03 -0.46866246887E+03  0.52973517732E+03  0.19900000000E+03 0.  0.
<mgrwt>
<rscale>  0 0.59597879E+03</rscale>
<asrwt>0</asrwt>
<pdfrwt beam="1">  1        2 0.32397638E+00 0.59597879E+03</pdfrwt>
<pdfrwt beam="2">  1       -2 0.55936101E-02 0.59597879E+03</pdfrwt>
<totfact> 0.10472185E+03</totfact>
</mgrwt>
</event>
<event>
 4    1  0.5069019E-005  0.7541592E+03  0.7818608E-02  0.9628848E-01
          2   -1    0    0  501    0  0.00000000000E+00  0.00000000000E+00  0.17394650669E+04  0.17394650669E+04  0.25500000000E-02 0. -1.
         -2   -1    0    0    0  501 -0.00000000000E+00 -0.00000000000E+00 -0.81742951418E+02  0.81742951458E+02  0.25500000000E-02 0.  1.
    5000001    1    1    2    0    0 -0.26793849677E+03  0.17192780377E+03  0.91382250734E+03  0.98793865330E+03  0.19900000000E+03 0.  0.
   -5000001    1    1    2    0    0  0.26793849677E+03 -0.17192780377E+03  0.74389960816E+03  0.83326936508E+03  0.19900000000E+03 0.  0.
<mgrwt>
<rscale>  0 0.75415916E+03</rscale>
<asrwt>0</asrwt>
<pdfrwt beam="1">  1        2 0.24849500E+00 0.75415916E+03</pdfrwt>
<pdfrwt beam="2">  1       -2 0.11677565E-01 0.75415916E+03</pdfrwt>
<totfact> 0.59054453E+02</totfact>
</mgrwt>
</event>
<event>
 4    1  0.5069019E-005  0.1395747E+04  0.7818608E-02  0.8956903E-01
          2   -1    0    0  501    0  0.00000000000E+00  0.00000000000E+00  0.46582382022E+03  0.46582382023E+03  0.25500000000E-02 0.  1.
         -2   -1    0    0    0  501 -0.00000000000E+00 -0.00000000000E+00 -0.10455182775E+04  0.10455182775E+04  0.25500000000E-02 0. -1.
    5000001    1    1    2    0    0 -0.11519082375E+03  0.65363435370E+03 -0.37992014631E+03  0.79021966046E+03  0.19900000000E+03 0.  0.
   -5000001    1    1    2    0    0  0.11519082375E+03 -0.65363435370E+03 -0.19977431096E+03  0.72112243727E+03  0.19900000000E+03 0.  0.
<mgrwt>
<rscale>  0 0.13957469E+04</rscale>
<asrwt>0</asrwt>
<pdfrwt beam="1">  1        2 0.66546260E-01 0.13957469E+04</pdfrwt>
<pdfrwt beam="2">  1       -2 0.14935975E+00 0.13957469E+04</pdfrwt>
<totfact> 0.21498735E+01</totfact>
</mgrwt>
</event>
<event>
 4    1  0.5069019E-005  0.5943970E+03  0.7818608E-02  0.9917099E-01
         -2   -1    0    0    0  501 -0.00000000000E+00  0.00000000000E+00  0.56772525389E+02  0.56772525446E+02  0.25500000000E-02 0. -1.
          2   -1    0    0  501    0  0.00000000000E+00 -0.00000000000E+00 -0.15558044634E+04  0.15558044634E+04  0.25500000000E-02 0.  1.
    5000001    1    1    2    0    0 -0.11810342617E+03  0.16424989380E+03 -0.98911070596E+03  0.10290128452E+04  0.19900000000E+03 0.  0.
   -5000001    1    1    2    0    0  0.11810342617E+03 -0.16424989380E+03 -0.50992123205E+03  0.58356414367E+03  0.19900000000E+03 0.  0.
<mgrwt>
<rscale>  0 0.59439700E+03</rscale>
<asrwt>0</asrwt>
<pdfrwt beam="1">  1        2 0.22225775E+00 0.59439700E+03</pdfrwt>
<pdfrwt beam="2">  1       -2 0.81103618E-02 0.59439700E+03</pdfrwt>
<totfact> 0.13351501E+03</totfact>
</mgrwt>
</event>
<event>
 4    1  0.5069019E-005  0.1078622E+04  0.7818608E-02  0.9226282E-01
         -2   -1    0    0    0  501 -0.00000000000E+00  0.00000000000E+00  0.34082802686E+03  0.34082802687E+03  0.25500000000E-02 0. -1.
          2   -1    0    0  501    0  0.00000000000E+00 -0.00000000000E+00 -0.85338218009E+03  0.85338218009E+03  0.25500000000E-02 0.  1.
    5000001    1    1    2    0    0  0.21663810483E+03 -0.28689749901E+03 -0.64301340733E+03  0.76309205565E+03  0.19900000000E+03 0.  0.
   -5000001    1    1    2    0    0 -0.21663810483E+03  0.28689749901E+03  0.13045925410E+03  0.43111815130E+03  0.19900000000E+03 0.  0.
<mgrwt>
<rscale>  0 0.10786224E+04</rscale>
<asrwt>0</asrwt>
<pdfrwt beam="1">  1        2 0.12191174E+00 0.10786224E+04</pdfrwt>
<pdfrwt beam="2">  1       -2 0.48689718E-01 0.10786224E+04</pdfrwt>
<totfact> 0.13864708E+02</totfact>
</mgrwt>
</event>
<event>
 4    1  0.5069019E-005  0.6418451E+03  0.7818608E-02  0.9822203E-01
          2   -1    0    0  501    0  0.00000000000E+00  0.00000000000E+00  0.91847625445E+03  0.91847625446E+03  0.25500000000E-02 0.  1.
         -2   -1    0    0    0  501 -0.00000000000E+00 -0.00000000000E+00 -0.11213277568E+03  0.11213277571E+03  0.25500000000E-02 0. -1.
    5000001    1    1    2    0    0 -0.22475867313E+03  0.74660595501E+02  0.54035906956E+03  0.62263921313E+03  0.19900000000E+03 0.  0.
   -5000001    1    1    2    0    0  0.22475867313E+03 -0.74660595501E+02  0.26598440921E+03  0.40796981703E+03  0.19900000000E+03 0.  0.
<mgrwt>
<rscale>  0 0.64184513E+03</rscale>
<asrwt>0</asrwt>
<pdfrwt beam="1">  1        2 0.13121089E+00 0.64184513E+03</pdfrwt>
<pdfrwt beam="2">  1       -2 0.16018968E-01 0.64184513E+03</pdfrwt>
<totfact> 0.99476990E+02</totfact>
</mgrwt>
</event>
<event>
 4    1  0.5069019E-005  0.8302941E+03  0.7818608E-02  0.9517174E-01
         -2   -1    0    0    0  501 -0.00000000000E+00  0.00000000000E+00  0.87701612340E+02  0.87701612377E+02  0.25500000000E-02 0. -1.
          2   -1    0    0  501    0  0.00000000000E+00 -0.00000000000E+00 -0.19651526762E+04  0.19651526762E+04  0.25500000000E-02 0.  1.
    5000001    1    1    2    0    0  0.29298485858E+03  0.20984767822E+03 -0.10711774566E+04  0.11475619020E+04  0.19900000000E+03 0.  0.
   -5000001    1    1    2    0    0 -0.29298485858E+03 -0.20984767822E+03 -0.80627360719E+03  0.90529238650E+03  0.19900000000E+03 0.  0.
<mgrwt>
<rscale>  0 0.83029406E+03</rscale>
<asrwt>0</asrwt>
<pdfrwt beam="1">  1        2 0.28073607E+00 0.83029406E+03</pdfrwt>
<pdfrwt beam="2">  1       -2 0.12528803E-01 0.83029406E+03</pdfrwt>
<totfact> 0.40164170E+02</totfact>
</mgrwt>
</event>
<event>
 4    1  0.5069019E-005  0.6145604E+03  0.7818608E-02  0.9875650E-01
          2   -1    0    0  501    0  0.00000000000E+00  0.00000000000E+00  0.14101623171E+04  0.14101623171E+04  0.25500000000E-02 0.  1.
         -2   -1    0    0    0  501 -0.00000000000E+00 -0.00000000000E+00 -0.66957631860E+02  0.66957631908E+02  0.25500000000E-02 0. -1.
    5000001    1    1    2    0    0 -0.17110701734E+03 -0.15969798871E+03  0.68662596993E+03  0.75222156415E+03  0.19900000000E+03 0.  0.
   -5000001    1    1    2    0    0  0.17110701734E+03  0.15969798871E+03  0.65657871531E+03  0.72489838487E+03  0.19900000000E+03 0.  0.
<mgrwt>
<rscale>  0 0.61456043E+03</rscale>
<asrwt>0</asrwt>
<pdfrwt beam="1">  1        2 0.20145178E+00 0.61456043E+03</pdfrwt>
<pdfrwt beam="2">  1       -2 0.95653748E-02 0.61456043E+03</pdfrwt>
<totfact> 0.12200095E+03</totfact>
</mgrwt>
</event>
<event>
 4    1  0.5069019E-005  0.7007270E+03  0.7818608E-02  0.9715990E-01
          2   -1    0    0  501    0  0.00000000000E+00  0.00000000000E+00  0.18160872171E+04  0.18160872171E+04  0.25500000000E-02 0.  1.
         -2   -1    0    0    0  501 -0.00000000000E+00 -0.00000000000E+00 -0.67592888222E+02  0.67592888270E+02  0.25500000000E-02 0. -1.
    5000001    1    1    2    0    0  0.16602443237E+02  0.26014221623E+03  0.54278286845E+03  0.63416390316E+03  0.19900000000E+03 0.  0.
   -5000001    1    1    2    0    0 -0.16602443237E+02 -0.26014221623E+03  0.12057114604E+04  0.12495162022E+04  0.19900000000E+03 0.  0.
<mgrwt>
<rscale>  0 0.70072699E+03</rscale>
<asrwt>0</asrwt>
<pdfrwt beam="1">  1        2 0.25944099E+00 0.70072699E+03</pdfrwt>
<pdfrwt beam="2">  1       -2 0.96561285E-02 0.70072699E+03</pdfrwt>
<totfact> 0.73876822E+02</totfact>
</mgrwt>
</event>
<event>
 4    1  0.5069019E-005  0.5847741E+03  0.7818608E-02  0.9937508E-01
          2   -1    0    0  501    0  0.00000000000E+00  0.00000000000E+00  0.73323775497E+03  0.73323775497E+03  0.25500000000E-02 0.  1.
         -2   -1    0    0    0  501 -0.00000000000E+00 -0.00000000000E+00 -0.11659274094E+03  0.11659274097E+03  0.25500000000E-02 0. -1.
    5000001    1    1    2    0    0 -0.15763646728E+03  0.10946704127E+03  0.17001868156E+03  0.32456068927E+03  0.19900000000E+03 0.  0.
   -5000001    1    1    2    0    0  0.15763646728E+03 -0.10946704127E+03  0.44662633247E+03  0.52526980667E+03  0.19900000000E+03 0.  0.
<mgrwt>
<rscale>  0 0.58477414E+03</rscale>
<asrwt>0</asrwt>
<pdfrwt beam="1">  1        2 0.10474826E+00 0.58477414E+03</pdfrwt>
<pdfrwt beam="2">  1       -2 0.16656105E-01 0.58477414E+03</pdfrwt>
<totfact> 0.12468862E+03</totfact>
</mgrwt>
</event>
<event>
 4    1  0.5069019E-005  0.6709941E+03  0.7818608E-02  0.9768164E-01
         -2   -1    0    0    0  501 -0.00000000000E+00  0.00000000000E+00  0.83513166953E+02  0.83513166992E+02  0.25500000000E-02 0. -1.
          2   -1    0    0  501    0  0.00000000000E+00 -0.00000000000E+00 -0.13477908458E+04  0.13477908458E+04  0.25500000000E-02 0.  1.
    5000001    1    1    2    0    0  0.58241627204E+02 -0.24901400754E+03 -0.81757488843E+03  0.87944855522E+03  0.19900000000E+03 0.  0.
   -5000001    1    1    2    0    0 -0.58241627204E+02  0.24901400754E+03 -0.44670279042E+03  0.55185545757E+03  0.19900000000E+03 0.  0.
<mgrwt>
<rscale>  0 0.67099413E+03</rscale>
<asrwt>0</asrwt>
<pdfrwt beam="1">  1        2 0.19254154E+00 0.67099413E+03</pdfrwt>
<pdfrwt beam="2">  1       -2 0.11930453E-01 0.67099413E+03</pdfrwt>
<totfact> 0.91665828E+02</totfact>
</mgrwt>
</event>
<event>
 4    1  0.5069019E-005  0.6132050E+03  0.7818608E-02  0.9878382E-01
          2   -1    0    0  501    0  0.00000000000E+00  0.00000000000E+00  0.51492108881E+03  0.51492108882E+03  0.25500000000E-02 0.  1.
         -2   -1    0    0    0  501 -0.00000000000E+00 -0.00000000000E+00 -0.18256215352E+03  0.18256215354E+03  0.25500000000E-02 0. -1.
    5000001    1    1    2    0    0  0.22400274039E+03 -0.10401494497E+02  0.23917685364E+03  0.38352573070E+03  0.19900000000E+03 0.  0.
   -5000001    1    1    2    0    0 -0.22400274039E+03  0.10401494497E+02  0.93182081649E+02  0.31395751166E+03  0.19900000000E+03 0.  0.
<mgrwt>
<rscale>  0 0.61320503E+03</rscale>
<asrwt>0</asrwt>
<pdfrwt beam="1">  1        2 0.73560156E-01 0.61320503E+03</pdfrwt>
<pdfrwt beam="2">  1       -2 0.26080307E-01 0.61320503E+03</pdfrwt>
<totfact> 0.86399941E+02</totfact>
</mgrwt>
</event>
<event>
 4    1  0.5069019E-005  0.5137487E+03  0.7818608E-02  0.1010251E+00
         -2   -1    0    0    0  501 -0.00000000000E+00  0.00000000000E+00  0.55807564360E+02  0.55807564418E+02  0.25500000000E-02 0.  1.
          2   -1    0    0  501    0  0.00000000000E+00 -0.00000000000E+00 -0.11823564080E+04  0.11823564080E+04  0.25500000000E-02 0. -1.
    5000001    1    1    2    0    0 -0.38747954307E+01  0.16012346819E+03 -0.49820767412E+03  0.55988072449E+03  0.19900000000E+03 0.  0.
   -5000001    1    1    2    0    0  0.38747954307E+01 -0.16012346819E+03 -0.62834116949E+03  0.67828324790E+03  0.19900000000E+03 0.  0.
<mgrwt>
<rscale>  0 0.51374870E+03</rscale>
<asrwt>0</asrwt>
<pdfrwt beam="1">  1        2 0.16890804E+00 0.51374870E+03</pdfrwt>
<pdfrwt beam="2">  1       -2 0.79725099E-02 0.51374870E+03</pdfrwt>
<totfact> 0.21778241E+03</totfact>
</mgrwt>
</event>
<event>
 4    1  0.5069019E-005  0.7339047E+03  0.7818608E-02  0.9660945E-01
          2   -1    0    0  501    0  0.00000000000E+00  0.00000000000E+00  0.31223188705E+03  0.31223188706E+03  0.25500000000E-02 0.  1.
         -2   -1    0    0    0  501 -0.00000000000E+00 -0.00000000000E+00 -0.43126292077E+03  0.43126292077E+03  0.25500000000E-02 0. -1.
    5000001    1    1    2    0    0  0.19522946433E+03 -0.23814206524E+03 -0.74773822349E+02  0.37419020763E+03  0.19900000000E+03 0.  0.
   -5000001    1    1    2    0    0 -0.19522946433E+03  0.23814206524E+03 -0.44257211366E+02  0.36930460021E+03  0.19900000000E+03 0.  0.
<mgrwt>
<rscale>  0 0.73390472E+03</rscale>
<asrwt>0</asrwt>
<pdfrwt beam="1">  1        2 0.44604556E-01 0.73390472E+03</pdfrwt>
<pdfrwt beam="2">  1       -2 0.61608988E-01 0.73390472E+03</pdfrwt>
<totfact> 0.28166475E+02</totfact>
</mgrwt>
</event>
<event>
 4    1  0.5069019E-005  0.8482365E+03  0.7818608E-02  0.9492707E-01
         -2   -1    0    0    0  501 -0.00000000000E+00  0.00000000000E+00  0.54878741419E+03  0.54878741420E+03  0.25500000000E-02 0. -1.
          2   -1    0    0  501    0  0.00000000000E+00 -0.00000000000E+00 -0.32777041968E+03  0.32777041969E+03  0.25500000000E-02 0.  1.
    5000001    1    1    2    0    0 -0.31483539351E+03 -0.20217091777E+03  0.93189569603E+02  0.43391208889E+03  0.19900000000E+03 0.  0.
   -5000001    1    1    2    0    0  0.31483539351E+03  0.20217091777E+03  0.12782742491E+03  0.44264574499E+03  0.19900000000E+03 0.  0.
<mgrwt>
<rscale>  0 0.84823648E+03</rscale>
<asrwt>0</asrwt>
<pdfrwt beam="1">  1        2 0.46824346E-01 0.84823648E+03</pdfrwt>
<pdfrwt beam="2">  1       -2 0.78398201E-01 0.84823648E+03</pdfrwt>
<totfact> 0.15721512E+02</totfact>
</mgrwt>
</event>
<event>
 4    1  0.5069019E-005  0.5062542E+03  0.7818608E-02  0.1012159E+00
          2   -1    0    0  501    0  0.00000000000E+00  0.00000000000E+00  0.63179821222E+03  0.63179821222E+03  0.25500000000E-02 0.  1.
         -2   -1    0    0    0  501 -0.00000000000E+00 -0.00000000000E+00 -0.10141424311E+03  0.10141424315E+03  0.25500000000E-02 0. -1.
    5000001    1    1    2    0    0  0.12038592223E+03 -0.99105414829E+02  0.24700524026E+03  0.35345048060E+03  0.19900000000E+03 0.  0.
   -5000001    1    1    2    0    0 -0.12038592223E+03  0.99105414829E+02  0.28337872884E+03  0.37976197477E+03  0.19900000000E+03 0.  0.
<mgrwt>
<rscale>  0 0.50625423E+03</rscale>
<asrwt>0</asrwt>
<pdfrwt beam="1">  1        2 0.90256891E-01 0.50625423E+03</pdfrwt>
<pdfrwt beam="2">  1       -2 0.14487748E-01 0.50625423E+03</pdfrwt>
<totfact> 0.18897170E+03</totfact>
</mgrwt>
</event>
<event>
 4    1  0.5069019E-005  0.4543701E+03  0.7818608E-02  0.1026427E+00
          2   -1    0    0  501    0  0.00000000000E+00  0.00000000000E+00  0.77577572537E+03  0.77577572537E+03  0.25500000000E-02 0.  1.
         -2   -1    0    0    0  501 -0.00000000000E+00 -0.00000000000E+00 -0.66530893114E+02  0.66530893163E+02  0.25500000000E-02 0. -1.
    5000001    1    1    2    0    0 -0.10164446757E+03 -0.50200887645E+01  0.27920135917E+03  0.35764675036E+03  0.19900000000E+03 0.  0.
   -5000001    1    1    2    0    0  0.10164446757E+03  0.50200887645E+01  0.43004347308E+03  0.48465986818E+03  0.19900000000E+03 0.  0.
<mgrwt>
<rscale>  0 0.45437012E+03</rscale>
<asrwt>0</asrwt>
<pdfrwt beam="1">  1        2 0.11082510E+00 0.45437012E+03</pdfrwt>
<pdfrwt beam="2">  1       -2 0.95044132E-02 0.45437012E+03</pdfrwt>
<totfact> 0.29324449E+03</totfact>
</mgrwt>
</event>
<event>
 4    1  0.5069019E-005  0.5924786E+03  0.7818608E-02  0.9921135E-01
         -2   -1    0    0    0  501 -0.00000000000E+00  0.00000000000E+00  0.31840764280E+02  0.31840764382E+02  0.25500000000E-02 0. -1.
          2   -1    0    0  501    0  0.00000000000E+00 -0.00000000000E+00 -0.27561436194E+04  0.27561436194E+04  0.25500000000E-02 0.  1.
    5000001    1    1    2    0    0 -0.65088513874E+02 -0.16145327659E+03 -0.19908953759E+04  0.20083747342E+04  0.19900000000E+03 0.  0.
   -5000001    1    1    2    0    0  0.65088513874E+02  0.16145327659E+03 -0.73340747924E+03  0.77960964961E+03  0.19900000000E+03 0.  0.
<mgrwt>
<rscale>  0 0.59247859E+03</rscale>
<asrwt>0</asrwt>
<pdfrwt beam="1">  1        2 0.39373465E+00 0.59247859E+03</pdfrwt>
<pdfrwt beam="2">  1       -2 0.45486824E-02 0.59247859E+03</pdfrwt>
<totfact> 0.80982038E+02</totfact>
</mgrwt>
</event>
<event>
 4    1  0.5069019E-005  0.5153867E+03  0.7818608E-02  0.1009839E+00
         -2   -1    0    0    0  501 -0.00000000000E+00  0.00000000000E+00  0.15500239532E+03  0.15500239534E+03  0.25500000000E-02 0. -1.
          2   -1    0    0  501    0  0.00000000000E+00 -0.00000000000E+00 -0.42841830889E+03  0.42841830890E+03  0.25500000000E-02 0.  1.
    5000001    1    1    2    0    0 -0.16253622643E+03 -0.13502406760E+02 -0.15289699215E+03  0.29929722701E+03  0.19900000000E+03 0.  0.
   -5000001    1    1    2    0    0  0.16253622643E+03  0.13502406760E+02 -0.12051892142E+03  0.28412347722E+03  0.19900000000E+03 0.  0.
<mgrwt>
<rscale>  0 0.51538671E+03</rscale>
<asrwt>0</asrwt>
<pdfrwt beam="1">  1        2 0.61202615E-01 0.51538671E+03</pdfrwt>
<pdfrwt beam="2">  1       -2 0.22143200E-01 0.51538671E+03</pdfrwt>
<totfact> 0.14239363E+03</totfact>
</mgrwt>
</event>
<event>
 4    1  0.5069019E-005  0.4744564E+03  0.7818608E-02  0.1020670E+00
          2   -1    0    0  501    0  0.00000000000E+00  0.00000000000E+00  0.42431649464E+03  0.42431649465E+03  0.25500000000E-02 0.  1.
         -2   -1    0    0    0  501 -0.00000000000E+00 -0.00000000000E+00 -0.13263027500E+03  0.13263027502E+03  0.25500000000E-02 0. -1.
    5000001    1    1    2    0    0 -0.45994659151E+02  0.98413278447E+02  0.63878122270E+02  0.23554637877E+03  0.19900000000E+03 0.  0.
   -5000001    1    1    2    0    0  0.45994659151E+02 -0.98413278447E+02  0.22780809737E+03  0.32140039090E+03  0.19900000000E+03 0.  0.
<mgrwt>
<rscale>  0 0.47445638E+03</rscale>
<asrwt>0</asrwt>
<pdfrwt beam="1">  1        2 0.60616642E-01 0.47445638E+03</pdfrwt>
<pdfrwt beam="2">  1       -2 0.18947182E-01 0.47445638E+03</pdfrwt>
<totfact> 0.18869313E+03</totfact>
</mgrwt>
</event>
<event>
 4    1  0.5069019E-005  0.4206945E+03  0.7818608E-02  0.1036841E+00
         -2   -1    0    0    0  501 -0.00000000000E+00  0.00000000000E+00  0.11601166066E+03  0.11601166069E+03  0.25500000000E-02 0. -1.
          2   -1    0    0  501    0  0.00000000000E+00 -0.00000000000E+00 -0.38139241944E+03  0.38139241945E+03  0.25500000000E-02 0.  1.
    5000001    1    1    2    0    0 -0.40717629619E+02 -0.50004196924E+02 -0.10660850736E+03  0.23478653904E+03  0.19900000000E+03 0.  0.
   -5000001    1    1    2    0    0  0.40717629619E+02  0.50004196924E+02 -0.15877225142E+03  0.26261754110E+03  0.19900000000E+03 0.  0.
<mgrwt>
<rscale>  0 0.42069451E+03</rscale>
<asrwt>0</asrwt>
<pdfrwt beam="1">  1        2 0.54484631E-01 0.42069451E+03</pdfrwt>
<pdfrwt beam="2">  1       -2 0.16573095E-01 0.42069451E+03</pdfrwt>
<totfact> 0.26626124E+03</totfact>
</mgrwt>
</event>
<event>
 4    1  0.5069019E-005  0.1339977E+04  0.7818608E-02  0.8998451E-01
         -2   -1    0    0    0  501 -0.00000000000E+00  0.00000000000E+00  0.26711788432E+03  0.26711788434E+03  0.25500000000E-02 0. -1.
          2   -1    0    0  501    0  0.00000000000E+00 -0.00000000000E+00 -0.16804727826E+04  0.16804727826E+04  0.25500000000E-02 0.  1.
    5000001    1    1    2    0    0  0.22291156421E+03  0.73487088263E+02 -0.15716866100E+04  0.16015273078E+04  0.19900000000E+03 0.  0.
   -5000001    1    1    2    0    0 -0.22291156421E+03 -0.73487088263E+02  0.15833171172E+03  0.34606335914E+03  0.19900000000E+03 0.  0.
<mgrwt>
<rscale>  0 0.13399766E+04</rscale>
<asrwt>0</asrwt>
<pdfrwt beam="1">  1        2 0.24006754E+00 0.13399766E+04</pdfrwt>
<pdfrwt beam="2">  1       -2 0.38159699E-01 0.13399766E+04</pdfrwt>
<totfact> 0.74438337E+01</totfact>
</mgrwt>
</event>
<event>
 4    1  0.5069019E-005  0.6610363E+03  0.7818608E-02  0.9786288E-01
         -2   -1    0    0    0  501 -0.00000000000E+00  0.00000000000E+00  0.75772694582E+02  0.75772694625E+02  0.25500000000E-02 0. -1.
          2   -1    0    0  501    0  0.00000000000E+00 -0.00000000000E+00 -0.14417099179E+04  0.14417099179E+04  0.25500000000E-02 0.  1.
    5000001    1    1    2    0    0  0.15542193061E+01 -0.23124120382E+03 -0.39108869671E+03  0.49601036142E+03  0.19900000000E+03 0.  0.
   -5000001    1    1    2    0    0 -0.15542193061E+01  0.23124120382E+03 -0.97484852659E+03  0.10214722511E+04  0.19900000000E+03 0.  0.
<mgrwt>
<rscale>  0 0.66103629E+03</rscale>
<asrwt>0</asrwt>
<pdfrwt beam="1">  1        2 0.20595854E+00 0.66103629E+03</pdfrwt>
<pdfrwt beam="2">  1       -2 0.10824672E-01 0.66103629E+03</pdfrwt>
<totfact> 0.95852157E+02</totfact>
</mgrwt>
</event>
<event>
 4    1  0.5069019E-005  0.5682616E+03  0.7818608E-02  0.9973533E-01
         -2   -1    0    0    0  501 -0.00000000000E+00  0.00000000000E+00  0.80501053709E+02  0.80501053749E+02  0.25500000000E-02 0. -1.
          2   -1    0    0  501    0  0.00000000000E+00 -0.00000000000E+00 -0.10028479524E+04  0.10028479524E+04  0.25500000000E-02 0.  1.
    5000001    1    1    2    0    0  0.17529204745E+03 -0.10189827512E+03 -0.45291694317E+03  0.53464503905E+03  0.19900000000E+03 0.  0.
   -5000001    1    1    2    0    0 -0.17529204745E+03  0.10189827512E+03 -0.46942995552E+03  0.54870396710E+03  0.19900000000E+03 0.  0.
<mgrwt>
<rscale>  0 0.56826162E+03</rscale>
<asrwt>0</asrwt>
<pdfrwt beam="1">  1        2 0.14326399E+00 0.56826162E+03</pdfrwt>
<pdfrwt beam="2">  1       -2 0.11500151E-01 0.56826162E+03</pdfrwt>
<totfact> 0.15336546E+03</totfact>
</mgrwt>
</event>
<event>
 4    1  0.5069019E-005  0.6435232E+03  0.7818608E-02  0.9819009E-01
         -2   -1    0    0    0  501 -0.00000000000E+00  0.00000000000E+00  0.10157362914E+03  0.10157362917E+03  0.25500000000E-02 0. -1.
          2   -1    0    0  501    0  0.00000000000E+00 -0.00000000000E+00 -0.10192656678E+04  0.10192656678E+04  0.25500000000E-02 0.  1.
    5000001    1    1    2    0    0 -0.63332534960E+02 -0.20808850826E+03 -0.68337081518E+03  0.74425029949E+03  0.19900000000E+03 0.  0.
   -5000001    1    1    2    0    0  0.63332534960E+02  0.20808850826E+03 -0.23432122348E+03  0.37658899749E+03  0.19900000000E+03 0.  0.
<mgrwt>
<rscale>  0 0.64352316E+03</rscale>
<asrwt>0</asrwt>
<pdfrwt beam="1">  1        2 0.14560938E+00 0.64352316E+03</pdfrwt>
<pdfrwt beam="2">  1       -2 0.14510519E-01 0.64352316E+03</pdfrwt>
<totfact> 0.10176455E+03</totfact>
</mgrwt>
</event>
<event>
 4    1  0.5069019E-005  0.5128576E+03  0.7818608E-02  0.1010476E+00
          2   -1    0    0  501    0  0.00000000000E+00  0.00000000000E+00  0.11526735090E+03  0.11526735093E+03  0.25500000000E-02 0.  1.
         -2   -1    0    0    0  501 -0.00000000000E+00 -0.00000000000E+00 -0.57046268349E+03  0.57046268350E+03  0.25500000000E-02 0. -1.
    5000001    1    1    2    0    0  0.87721472414E+02 -0.32505695532E+02 -0.51209670486E+02  0.22577667576E+03  0.19900000000E+03 0.  0.
   -5000001    1    1    2    0    0 -0.87721472414E+02  0.32505695532E+02 -0.40398566210E+03  0.45995335867E+03  0.19900000000E+03 0.  0.
<mgrwt>
<rscale>  0 0.51285757E+03</rscale>
<asrwt>0</asrwt>
<pdfrwt beam="1">  1        2 0.16466765E-01 0.51285757E+03</pdfrwt>
<pdfrwt beam="2">  1       -2 0.81494667E-01 0.51285757E+03</pdfrwt>
<totfact> 0.47913416E+02</totfact>
</mgrwt>
</event>
<event>
 4    1  0.5069019E-005  0.4523622E+03  0.7818608E-02  0.1027020E+00
          2   -1    0    0  501    0  0.00000000000E+00  0.00000000000E+00  0.28789538268E+03  0.28789538269E+03  0.25500000000E-02 0.  1.
         -2   -1    0    0    0  501 -0.00000000000E+00 -0.00000000000E+00 -0.17769607856E+03  0.17769607858E+03  0.25500000000E-02 0. -1.
    5000001    1    1    2    0    0 -0.10629945988E+03 -0.95675709366E+01  0.68351234096E+02  0.23593220379E+03  0.19900000000E+03 0.  0.
   -5000001    1    1    2    0    0  0.10629945988E+03  0.95675709366E+01  0.41848070025E+02  0.22965925748E+03  0.19900000000E+03 0.  0.
<mgrwt>
<rscale>  0 0.45236216E+03</rscale>
<asrwt>0</asrwt>
<pdfrwt beam="1">  1        2 0.41127912E-01 0.45236216E+03</pdfrwt>
<pdfrwt beam="2">  1       -2 0.25385154E-01 0.45236216E+03</pdfrwt>
<totfact> 0.17290004E+03</totfact>
</mgrwt>
</event>
<event>
 4    1  0.5069019E-005  0.5945718E+03  0.7818608E-02  0.9916732E-01
          2   -1    0    0  501    0  0.00000000000E+00  0.00000000000E+00  0.10830847326E+03  0.10830847329E+03  0.25500000000E-02 0.  1.
         -2   -1    0    0    0  501 -0.00000000000E+00 -0.00000000000E+00 -0.81599261330E+03  0.81599261331E+03  0.25500000000E-02 0. -1.
    5000001    1    1    2    0    0  0.19267558637E+03  0.27671401944E+02 -0.51605657914E+03  0.58634885601E+03  0.19900000000E+03 0.  0.
   -5000001    1    1    2    0    0 -0.19267558637E+03 -0.27671401944E+02 -0.19162756090E+03  0.33795223060E+03  0.19900000000E+03 0.  0.
<mgrwt>
<rscale>  0 0.59457183E+03</rscale>
<asrwt>0</asrwt>
<pdfrwt beam="1">  1        2 0.15472639E-01 0.59457183E+03</pdfrwt>
<pdfrwt beam="2">  1       -2 0.11657037E+00 0.59457183E+03</pdfrwt>
<totfact> 0.22310689E+02</totfact>
</mgrwt>
</event>
<event>
 4    1  0.5069019E-005  0.4483416E+03  0.7818608E-02  0.1028218E+00
         -2   -1    0    0    0  501 -0.00000000000E+00  0.00000000000E+00  0.11522437039E+03  0.11522437042E+03  0.25500000000E-02 0.  1.
          2   -1    0    0  501    0  0.00000000000E+00 -0.00000000000E+00 -0.43612769925E+03  0.43612769926E+03  0.25500000000E-02 0. -1.
    5000001    1    1    2    0    0  0.90584071625E+02 -0.49195121203E+02 -0.15419249526E+03  0.27203301193E+03  0.19900000000E+03 0.  0.
   -5000001    1    1    2    0    0 -0.90584071625E+02  0.49195121203E+02 -0.16671083360E+03  0.27931905775E+03  0.19900000000E+03 0.  0.
<mgrwt>
<rscale>  0 0.44834156E+03</rscale>
<asrwt>0</asrwt>
<pdfrwt beam="1">  1        2 0.62303956E-01 0.44834156E+03</pdfrwt>
<pdfrwt beam="2">  1       -2 0.16460625E-01 0.44834156E+03</pdfrwt>
<totfact> 0.23252403E+03</totfact>
</mgrwt>
</event>
<event>
 4    1  0.5069019E-005  0.4469006E+03  0.7818608E-02  0.1028650E+00
          2   -1    0    0  501    0  0.00000000000E+00  0.00000000000E+00  0.10427034630E+03  0.10427034633E+03  0.25500000000E-02 0.  1.
         -2   -1    0    0    0  501 -0.00000000000E+00 -0.00000000000E+00 -0.47885181779E+03  0.47885181779E+03  0.25500000000E-02 0. -1.
    5000001    1    1    2    0    0  0.33600829462E+02  0.95019799386E+02 -0.20436670038E+03  0.30253020715E+03  0.19900000000E+03 0.  0.
   -5000001    1    1    2    0    0 -0.33600829462E+02 -0.95019799386E+02 -0.17021477110E+03  0.28059195697E+03  0.19900000000E+03 0.  0.
<mgrwt>
<rscale>  0 0.44690064E+03</rscale>
<asrwt>0</asrwt>
<pdfrwt beam="1">  1        2 0.14895764E-01 0.44690064E+03</pdfrwt>
<pdfrwt beam="2">  1       -2 0.68407401E-01 0.44690064E+03</pdfrwt>
<totfact> 0.79370975E+02</totfact>
</mgrwt>
</event>
<event>
 4    1  0.5069019E-005  0.6083310E+03  0.7818608E-02  0.9888271E-01
         -2   -1    0    0    0  501 -0.00000000000E+00  0.00000000000E+00  0.78977343045E+02  0.78977343086E+02  0.25500000000E-02 0. -1.
          2   -1    0    0  501    0  0.00000000000E+00 -0.00000000000E+00 -0.11714330070E+04  0.11714330070E+04  0.25500000000E-02 0.  1.
    5000001    1    1    2    0    0 -0.16009735372E+03  0.63359779534E+02 -0.85978097689E+03  0.89914957185E+03  0.19900000000E+03 0.  0.
   -5000001    1    1    2    0    0  0.16009735372E+03 -0.63359779534E+02 -0.23267468707E+03  0.35126077825E+03  0.19900000000E+03 0.  0.
<mgrwt>
<rscale>  0 0.60833105E+03</rscale>
<asrwt>0</asrwt>
<pdfrwt beam="1">  1        2 0.16734756E+00 0.60833105E+03</pdfrwt>
<pdfrwt beam="2">  1       -2 0.11282478E-01 0.60833105E+03</pdfrwt>
<totfact> 0.12597413E+03</totfact>
</mgrwt>
</event>
<event>
 4    1  0.5069019E-005  0.8707288E+03  0.7818608E-02  0.9462930E-01
         -2   -1    0    0    0  501 -0.00000000000E+00  0.00000000000E+00  0.12951091831E+03  0.12951091834E+03  0.25500000000E-02 0.  1.
          2   -1    0    0  501    0  0.00000000000E+00 -0.00000000000E+00 -0.14635225822E+04  0.14635225822E+04  0.25500000000E-02 0. -1.
    5000001    1    1    2    0    0  0.29082307764E+03  0.14015287774E+03 -0.27580806873E+03  0.46892641470E+03  0.19900000000E+03 0.  0.
   -5000001    1    1    2    0    0 -0.29082307764E+03 -0.14015287774E+03 -0.10582035952E+04  0.11241070858E+04  0.19900000000E+03 0.  0.
<mgrwt>
<rscale>  0 0.87072878E+03</rscale>
<asrwt>0</asrwt>
<pdfrwt beam="1">  1        2 0.20907464E+00 0.87072878E+03</pdfrwt>
<pdfrwt beam="2">  1       -2 0.18501561E-01 0.87072878E+03</pdfrwt>
<totfact> 0.37508452E+02</totfact>
</mgrwt>
</event>
<event>
 4    1  0.5069019E-005  0.6985785E+03  0.7818608E-02  0.9719666E-01
         -2   -1    0    0    0  501 -0.00000000000E+00  0.00000000000E+00  0.16955965277E+03  0.16955965279E+03  0.25500000000E-02 0. -1.
          2   -1    0    0  501    0  0.00000000000E+00 -0.00000000000E+00 -0.71952830527E+03  0.71952830527E+03  0.25500000000E-02 0.  1.
    5000001    1    1    2    0    0 -0.15367131862E+03 -0.11348587466E+03 -0.54767730919E+03  0.61322536878E+03  0.19900000000E+03 0.  0.
   -5000001    1    1    2    0    0  0.15367131862E+03  0.11348587466E+03 -0.22913433079E+01  0.27586258929E+03  0.19900000000E+03 0.  0.
<mgrwt>
<rscale>  0 0.69857847E+03</rscale>
<asrwt>0</asrwt>
<pdfrwt beam="1">  1        2 0.10278976E+00 0.69857847E+03</pdfrwt>
<pdfrwt beam="2">  1       -2 0.24222808E-01 0.69857847E+03</pdfrwt>
<totfact> 0.66234405E+02</totfact>
</mgrwt>
</event>
<event>
 4    1  0.5069019E-005  0.5167420E+03  0.7818608E-02  0.1009499E+00
         -2   -1    0    0    0  501 -0.00000000000E+00  0.00000000000E+00  0.38055264088E+02  0.38055264174E+02  0.25500000000E-02 0. -1.
          2   -1    0    0  501    0  0.00000000000E+00 -0.00000000000E+00 -0.17541747071E+04  0.17541747071E+04  0.25500000000E-02 0.  1.
    5000001    1    1    2    0    0 -0.12909360806E+03  0.92420252222E+02 -0.10111351244E+04  0.10426897441E+04  0.19900000000E+03 0.  0.
   -5000001    1    1    2    0    0  0.12909360806E+03 -0.92420252222E+02 -0.70498431866E+03  0.74954022722E+03  0.19900000000E+03 0.  0.
<mgrwt>
<rscale>  0 0.51674203E+03</rscale>
<asrwt>0</asrwt>
<pdfrwt beam="1">  1        2 0.25059634E+00 0.51674203E+03</pdfrwt>
<pdfrwt beam="2">  1       -2 0.54364674E-02 0.51674203E+03</pdfrwt>
<totfact> 0.19901447E+03</totfact>
</mgrwt>
</event>
<event>
 4    1  0.5069019E-005  0.6045644E+03  0.7818608E-02  0.9895981E-01
         -2   -1    0    0    0  501 -0.00000000000E+00  0.00000000000E+00  0.24573614838E+03  0.24573614840E+03  0.25500000000E-02 0. -1.
          2   -1    0    0  501    0  0.00000000000E+00 -0.00000000000E+00 -0.37183993688E+03  0.37183993688E+03  0.25500000000E-02 0.  1.
    5000001    1    1    2    0    0 -0.21475853453E+03 -0.71554127079E+02 -0.86619918240E+02  0.31360043286E+03  0.19900000000E+03 0.  0.
   -5000001    1    1    2    0    0  0.21475853453E+03  0.71554127079E+02 -0.39483870251E+02  0.30397565242E+03  0.19900000000E+03 0.  0.
<mgrwt>
<rscale>  0 0.60456435E+03</rscale>
<asrwt>0</asrwt>
<pdfrwt beam="1">  1        2 0.53119991E-01 0.60456435E+03</pdfrwt>
<pdfrwt beam="2">  1       -2 0.35105164E-01 0.60456435E+03</pdfrwt>
<totfact> 0.71836678E+02</totfact>
</mgrwt>
</event>
<event>
 4    1  0.5069019E-005  0.5603626E+03  0.7818608E-02  0.9991235E-01
          2   -1    0    0  501    0  0.00000000000E+00  0.00000000000E+00  0.75049722511E+03  0.75049722511E+03  0.25500000000E-02 0.  1.
         -2   -1    0    0    0  501 -0.00000000000E+00 -0.00000000000E+00 -0.10459938885E+03  0.10459938888E+03  0.25500000000E-02 0. -1.
    5000001    1    1    2    0    0  0.23630626466E+02  0.18945059103E+03  0.39849012070E+03  0.48460840815E+03  0.19900000000E+03 0.  0.
   -5000001    1    1    2    0    0 -0.23630626466E+02 -0.18945059103E+03  0.24740771557E+03  0.37048820585E+03  0.19900000000E+03 0.  0.
<mgrwt>
<rscale>  0 0.56036257E+03</rscale>
<asrwt>0</asrwt>
<pdfrwt beam="1">  1        2 0.10721389E+00 0.56036257E+03</pdfrwt>
<pdfrwt beam="2">  1       -2 0.14942770E-01 0.56036257E+03</pdfrwt>
<totfact> 0.14557358E+03</totfact>
</mgrwt>
</event>
<event>
 4    1  0.5069019E-005  0.1099196E+04  0.7818608E-02  0.9205976E-01
          2   -1    0    0  501    0  0.00000000000E+00  0.00000000000E+00  0.11775340419E+04  0.11775340419E+04  0.25500000000E-02 0.  1.
         -2   -1    0    0    0  501 -0.00000000000E+00 -0.00000000000E+00 -0.25651728543E+03  0.25651728544E+03  0.25500000000E-02 0. -1.
    5000001    1    1    2    0    0  0.39907628368E+02 -0.46005257209E+03  0.17107931878E+03  0.53114039688E+03  0.19900000000E+03 0.  0.
   -5000001    1    1    2    0    0 -0.39907628368E+02  0.46005257209E+03  0.74993743766E+03  0.90291093043E+03  0.19900000000E+03 0.  0.
<mgrwt>
<rscale>  0 0.10991958E+04</rscale>
<asrwt>0</asrwt>
<pdfrwt beam="1">  1        2 0.16821915E+00 0.10991958E+04</pdfrwt>
<pdfrwt beam="2">  1       -2 0.36645326E-01 0.10991958E+04</pdfrwt>
<totfact> 0.15305519E+02</totfact>
</mgrwt>
</event>
<event>
 4    1  0.5069019E-005  0.5057265E+03  0.7818608E-02  0.1012295E+00
         -2   -1    0    0    0  501 -0.00000000000E+00  0.00000000000E+00  0.35490158887E+03  0.35490158888E+03  0.25500000000E-02 0. -1.
          2   -1    0    0  501    0  0.00000000000E+00 -0.00000000000E+00 -0.18016214840E+03  0.18016214842E+03  0.25500000000E-02 0.  1.
    5000001    1    1    2    0    0  0.40054575030E+02  0.14824553699E+03  0.58246094342E+02  0.25802076607E+03  0.19900000000E+03 0.  0.
   -5000001    1    1    2    0    0 -0.40054575030E+02 -0.14824553699E+03  0.11649334613E+03  0.27704297123E+03  0.19900000000E+03 0.  0.
<mgrwt>
<rscale>  0 0.50572654E+03</rscale>
<asrwt>0</asrwt>
<pdfrwt beam="1">  1        2 0.25737450E-01 0.50572654E+03</pdfrwt>
<pdfrwt beam="2">  1       -2 0.50700226E-01 0.50572654E+03</pdfrwt>
<totfact> 0.78310110E+02</totfact>
</mgrwt>
</event>
<event>
 4    1  0.5069019E-005  0.8437524E+03  0.7818608E-02  0.9498761E-01
         -2   -1    0    0    0  501 -0.00000000000E+00  0.00000000000E+00  0.97539364829E+02  0.97539364862E+02  0.25500000000E-02 0. -1.
          2   -1    0    0  501    0  0.00000000000E+00 -0.00000000000E+00 -0.18246942195E+04  0.18246942195E+04  0.25500000000E-02 0.  1.
    5000001    1    1    2    0    0 -0.36092783721E+03  0.77377454320E+02 -0.75862348700E+03  0.86681414914E+03  0.19900000000E+03 0.  0.
   -5000001    1    1    2    0    0  0.36092783721E+03 -0.77377454320E+02 -0.96853136771E+03  0.10554194353E+04  0.19900000000E+03 0.  0.
<mgrwt>
<rscale>  0 0.84375237E+03</rscale>
<asrwt>0</asrwt>
<pdfrwt beam="1">  1        2 0.26067058E+00 0.84375237E+03</pdfrwt>
<pdfrwt beam="2">  1       -2 0.13934196E-01 0.84375237E+03</pdfrwt>
<totfact> 0.39602484E+02</totfact>
</mgrwt>
</event>
<event>
 4    1  0.5069019E-005  0.6785172E+03  0.7818608E-02  0.9754693E-01
          2   -1    0    0  501    0  0.00000000000E+00  0.00000000000E+00  0.56353907073E+03  0.56353907074E+03  0.25500000000E-02 0.  1.
         -2   -1    0    0    0  501 -0.00000000000E+00 -0.00000000000E+00 -0.20423852901E+03  0.20423852903E+03  0.25500000000E-02 0. -1.
    5000001    1    1    2    0    0 -0.27453595659E+03  0.92429075499E+01  0.18680397674E+03  0.38723655371E+03  0.19900000000E+03 0.  0.
   -5000001    1    1    2    0    0  0.27453595659E+03 -0.92429075499E+01  0.17249656498E+03  0.38054104606E+03  0.19900000000E+03 0.  0.
<mgrwt>
<rscale>  0 0.67851718E+03</rscale>
<asrwt>0</asrwt>
<pdfrwt beam="1">  1        2 0.80505582E-01 0.67851718E+03</pdfrwt>
<pdfrwt beam="2">  1       -2 0.29176933E-01 0.67851718E+03</pdfrwt>
<totfact> 0.63355317E+02</totfact>
</mgrwt>
</event>
<event>
 4    1  0.5069019E-005  0.1015800E+04  0.7818608E-02  0.9291383E-01
         -2   -1    0    0    0  501 -0.00000000000E+00  0.00000000000E+00  0.10280296869E+03  0.10280296872E+03  0.25500000000E-02 0. -1.
          2   -1    0    0  501    0  0.00000000000E+00 -0.00000000000E+00 -0.25092905948E+04  0.25092905948E+04  0.25500000000E-02 0.  1.
    5000001    1    1    2    0    0 -0.10196957705E+03 -0.27167390100E+03 -0.26138213652E+03  0.43832194152E+03  0.19900000000E+03 0.  0.
   -5000001    1    1    2    0    0  0.10196957705E+03  0.27167390100E+03 -0.21451054896E+04  0.21737716220E+04  0.19900000000E+03 0.  0.
<mgrwt>
<rscale>  0 0.10158002E+04</rscale>
<asrwt>0</asrwt>
<pdfrwt beam="1">  1        2 0.35847005E+00 0.10158002E+04</pdfrwt>
<pdfrwt beam="2">  1       -2 0.14686140E-01 0.10158002E+04</pdfrwt>
<totfact> 0.15970300E+02</totfact>
</mgrwt>
</event>
<event>
 4    1  0.5069019E-005  0.6092513E+03  0.7818608E-02  0.9886396E-01
         -2   -1    0    0    0  501 -0.00000000000E+00  0.00000000000E+00  0.85824304092E+02  0.85824304130E+02  0.25500000000E-02 0. -1.
          2   -1    0    0  501    0  0.00000000000E+00 -0.00000000000E+00 -0.10812414587E+04  0.10812414587E+04  0.25500000000E-02 0.  1.
    5000001    1    1    2    0    0  0.20804033731E+03 -0.21593036760E+02 -0.31150581157E+03  0.42471627214E+03  0.19900000000E+03 0.  0.
   -5000001    1    1    2    0    0 -0.20804033731E+03  0.21593036760E+02 -0.68391134302E+03  0.74234949067E+03  0.19900000000E+03 0.  0.
<mgrwt>
<rscale>  0 0.60925133E+03</rscale>
<asrwt>0</asrwt>
<pdfrwt beam="1">  1        2 0.15446306E+00 0.60925133E+03</pdfrwt>
<pdfrwt beam="2">  1       -2 0.12260616E-01 0.60925133E+03</pdfrwt>
<totfact> 0.12384569E+03</totfact>
</mgrwt>
</event>
<event>
 4    1  0.5069019E-005  0.9011981E+03  0.7818608E-02  0.9424085E-01
         -2   -1    0    0    0  501 -0.00000000000E+00  0.00000000000E+00  0.28312671700E+03  0.28312671701E+03  0.25500000000E-02 0. -1.
          2   -1    0    0  501    0  0.00000000000E+00 -0.00000000000E+00 -0.71713300652E+03  0.71713300652E+03  0.25500000000E-02 0.  1.
    5000001    1    1    2    0    0 -0.24659737310E+03 -0.23960390826E+03 -0.45302336884E+03  0.60253752579E+03  0.19900000000E+03 0.  0.
   -5000001    1    1    2    0    0  0.24659737310E+03  0.23960390826E+03  0.19017079317E+02  0.39772219774E+03  0.19900000000E+03 0.  0.
<mgrwt>
<rscale>  0 0.90119812E+03</rscale>
<asrwt>0</asrwt>
<pdfrwt beam="1">  1        2 0.10244757E+00 0.90119812E+03</pdfrwt>
<pdfrwt beam="2">  1       -2 0.40446674E-01 0.90119812E+03</pdfrwt>
<totfact> 0.25308942E+02</totfact>
</mgrwt>
</event>
<event>
 4    1  0.5069019E-005  0.5535643E+03  0.7818608E-02  0.1000672E+00
         -2   -1    0    0    0  501 -0.00000000000E+00  0.00000000000E+00  0.55076953526E+02  0.55076953585E+02  0.25500000000E-02 0. -1.
          2   -1    0    0  501    0  0.00000000000E+00 -0.00000000000E+00 -0.13909329677E+04  0.13909329677E+04  0.25500000000E-02 0.  1.
    5000001    1    1    2    0    0 -0.13237783580E+02 -0.18710203148E+03 -0.55633738995E+03  0.61991507527E+03  0.19900000000E+03 0.  0.
   -5000001    1    1    2    0    0  0.13237783580E+02  0.18710203148E+03 -0.77951862427E+03  0.82609484606E+03  0.19900000000E+03 0.  0.
<mgrwt>
<rscale>  0 0.55356427E+03</rscale>
<asrwt>0</asrwt>
<pdfrwt beam="1">  1        2 0.19870469E+00 0.55356427E+03</pdfrwt>
<pdfrwt beam="2">  1       -2 0.78681371E-02 0.55356427E+03</pdfrwt>
<totfact> 0.17111714E+03</totfact>
</mgrwt>
</event>
<event>
 4    1  0.5069019E-005  0.9312054E+03  0.7818608E-02  0.9387392E-01
          2   -1    0    0  501    0  0.00000000000E+00  0.00000000000E+00  0.14666456082E+04  0.14666456082E+04  0.25500000000E-02 0.  1.
         -2   -1    0    0    0  501 -0.00000000000E+00 -0.00000000000E+00 -0.14781068856E+03  0.14781068858E+03  0.25500000000E-02 0. -1.
    5000001    1    1    2    0    0  0.41046297864E+03 -0.76153010553E+02  0.75287419582E+03  0.88357212076E+03  0.19900000000E+03 0.  0.
   -5000001    1    1    2    0    0 -0.41046297864E+03  0.76153010553E+02  0.56596072386E+03  0.73088417605E+03  0.19900000000E+03 0.  0.
<mgrwt>
<rscale>  0 0.93120545E+03</rscale>
<asrwt>0</asrwt>
<pdfrwt beam="1">  1        2 0.20952081E+00 0.93120545E+03</pdfrwt>
<pdfrwt beam="2">  1       -2 0.21115812E-01 0.93120545E+03</pdfrwt>
<totfact> 0.29548023E+02</totfact>
</mgrwt>
</event>
<event>
 4    1  0.5069019E-005  0.7200584E+03  0.7818608E-02  0.9683532E-01
         -2   -1    0    0    0  501 -0.00000000000E+00  0.00000000000E+00  0.12638857247E+03  0.12638857250E+03  0.25500000000E-02 0. -1.
          2   -1    0    0  501    0  0.00000000000E+00 -0.00000000000E+00 -0.10255753713E+04  0.10255753713E+04  0.25500000000E-02 0.  1.
    5000001    1    1    2    0    0  0.19802181909E+03 -0.21781471221E+03 -0.54238459488E+03  0.64841185866E+03  0.19900000000E+03 0.  0.
   -5000001    1    1    2    0    0 -0.19802181909E+03  0.21781471221E+03 -0.35680220391E+03  0.50355208510E+03  0.19900000000E+03 0.  0.
<mgrwt>
<rscale>  0 0.72005835E+03</rscale>
<asrwt>0</asrwt>
<pdfrwt beam="1">  1        2 0.14651076E+00 0.72005835E+03</pdfrwt>
<pdfrwt beam="2">  1       -2 0.18055511E-01 0.72005835E+03</pdfrwt>
<totfact> 0.69375066E+02</totfact>
</mgrwt>
</event>
<event>
 4    1  0.5069019E-005  0.4985313E+03  0.7818608E-02  0.1014163E+00
         -2   -1    0    0    0  501 -0.00000000000E+00  0.00000000000E+00  0.13231099885E+03  0.13231099887E+03  0.25500000000E-02 0. -1.
          2   -1    0    0  501    0  0.00000000000E+00 -0.00000000000E+00 -0.46960094861E+03  0.46960094862E+03  0.25500000000E-02 0.  1.
    5000001    1    1    2    0    0 -0.90757771885E+02  0.11795258286E+03 -0.19226089283E+03  0.31418949040E+03  0.19900000000E+03 0.  0.
   -5000001    1    1    2    0    0  0.90757771885E+02 -0.11795258286E+03 -0.14502905693E+03  0.28772245709E+03  0.19900000000E+03 0.  0.
<mgrwt>
<rscale>  0 0.49853133E+03</rscale>
<asrwt>0</asrwt>
<pdfrwt beam="1">  1        2 0.67085849E-01 0.49853133E+03</pdfrwt>
<pdfrwt beam="2">  1       -2 0.18901571E-01 0.49853133E+03</pdfrwt>
<totfact> 0.16928454E+03</totfact>
</mgrwt>
</event>
<event>
 4    1  0.5069019E-005  0.7127105E+03  0.7818608E-02  0.9695739E-01
          2   -1    0    0  501    0  0.00000000000E+00  0.00000000000E+00  0.29660093262E+04  0.29660093262E+04  0.25500000000E-02 0.  1.
         -2   -1    0    0    0  501 -0.00000000000E+00 -0.00000000000E+00 -0.42814784115E+02  0.42814784191E+02  0.25500000000E-02 0. -1.
    5000001    1    1    2    0    0  0.27194221738E+03 -0.81962924794E+02  0.18076078657E+04  0.18405753684E+04  0.19900000000E+03 0.  0.
   -5000001    1    1    2    0    0 -0.27194221738E+03  0.81962924794E+02  0.11155866764E+04  0.11682487420E+04  0.19900000000E+03 0.  0.
<mgrwt>
<rscale>  0 0.71271046E+03</rscale>
<asrwt>0</asrwt>
<pdfrwt beam="1">  1        2 0.42371575E+00 0.71271046E+03</pdfrwt>
<pdfrwt beam="2">  1       -2 0.61163958E-02 0.71271046E+03</pdfrwt>
<totfact> 0.38992050E+02</totfact>
</mgrwt>
</event>
<event>
 4    1  0.5069019E-005  0.1198479E+04  0.7818608E-02  0.9114189E-01
         -2   -1    0    0    0  501 -0.00000000000E+00  0.00000000000E+00  0.52564661567E+03  0.52564661568E+03  0.25500000000E-02 0.  1.
          2   -1    0    0  501    0  0.00000000000E+00 -0.00000000000E+00 -0.68313619781E+03  0.68313619781E+03  0.25500000000E-02 0. -1.
    5000001    1    1    2    0    0 -0.24819510567E+03  0.46099675387E+03  0.13608499143E+03  0.57640171968E+03  0.19900000000E+03 0.  0.
   -5000001    1    1    2    0    0  0.24819510567E+03 -0.46099675387E+03 -0.29357457357E+03  0.63238109381E+03  0.19900000000E+03 0.  0.
<mgrwt>
<rscale>  0 0.11984794E+04</rscale>
<asrwt>0</asrwt>
<pdfrwt beam="1">  1        2 0.97590885E-01 0.11984794E+04</pdfrwt>
<pdfrwt beam="2">  1       -2 0.75092374E-01 0.11984794E+04</pdfrwt>
<totfact> 0.72986644E+01</totfact>
</mgrwt>
</event>
<event>
 4    1  0.5069019E-005  0.7522479E+03  0.7818608E-02  0.9631830E-01
          2   -1    0    0  501    0  0.00000000000E+00  0.00000000000E+00  0.13894702306E+03  0.13894702308E+03  0.25500000000E-02 0. -1.
         -2   -1    0    0    0  501 -0.00000000000E+00 -0.00000000000E+00 -0.10181523337E+04  0.10181523337E+04  0.25500000000E-02 0.  1.
    5000001    1    1    2    0    0 -0.92043445773E+02 -0.29942780223E+03 -0.34554355753E+03  0.50708022523E+03  0.19900000000E+03 0.  0.
   -5000001    1    1    2    0    0  0.92043445773E+02  0.29942780223E+03 -0.53366175311E+03  0.65001913156E+03  0.19900000000E+03 0.  0.
<mgrwt>
<rscale>  0 0.75224793E+03</rscale>
<asrwt>0</asrwt>
<pdfrwt beam="1">  1        2 0.19849575E-01 0.75224793E+03</pdfrwt>
<pdfrwt beam="2">  1       -2 0.14545033E+00 0.75224793E+03</pdfrwt>
<totfact> 0.94173746E+01</totfact>
</mgrwt>
</event>
<event>
 4    1  0.5069019E-005  0.2289485E+04  0.7818608E-02  0.8482079E-01
          2   -1    0    0  501    0  0.00000000000E+00  0.00000000000E+00  0.34107651327E+04  0.34107651327E+04  0.25500000000E-02 0.  1.
         -2   -1    0    0    0  501 -0.00000000000E+00 -0.00000000000E+00 -0.38420571657E+03  0.38420571658E+03  0.25500000000E-02 0. -1.
    5000001    1    1    2    0    0  0.71822392986E+03  0.74729390517E+03  0.22481265696E+04  0.24835393830E+04  0.19900000000E+03 0.  0.
   -5000001    1    1    2    0    0 -0.71822392986E+03 -0.74729390517E+03  0.77843284656E+03  0.13114314663E+04  0.19900000000E+03 0.  0.
<mgrwt>
<rscale>  0 0.22894851E+04</rscale>
<asrwt>0</asrwt>
<pdfrwt beam="1">  1        2 0.48725214E+00 0.22894851E+04</pdfrwt>
<pdfrwt beam="2">  1       -2 0.54886534E-01 0.22894851E+04</pdfrwt>
<totfact> 0.38800836E+00</totfact>
</mgrwt>
</event>
<event>
 4    1  0.5069019E-005  0.1220921E+04  0.7818608E-02  0.9094739E-01
         -2   -1    0    0    0  501 -0.00000000000E+00  0.00000000000E+00  0.16756920510E+03  0.16756920512E+03  0.25500000000E-02 0. -1.
          2   -1    0    0  501    0  0.00000000000E+00 -0.00000000000E+00 -0.22239291837E+04  0.22239291837E+04  0.25500000000E-02 0.  1.
    5000001    1    1    2    0    0 -0.42460099061E+03  0.25565437630E+03 -0.16073121626E+04  0.16937232800E+04  0.19900000000E+03 0.  0.
   -5000001    1    1    2    0    0  0.42460099061E+03 -0.25565437630E+03 -0.44904781598E+03  0.69777510874E+03  0.19900000000E+03 0.  0.
<mgrwt>
<rscale>  0 0.12209210E+04</rscale>
<asrwt>0</asrwt>
<pdfrwt beam="1">  1        2 0.31770415E+00 0.12209210E+04</pdfrwt>
<pdfrwt beam="2">  1       -2 0.23938459E-01 0.12209210E+04</pdfrwt>
<totfact> 0.94173542E+01</totfact>
</mgrwt>
</event>
<event>
 4    1  0.5069019E-005  0.8072704E+03  0.7818608E-02  0.9549553E-01
         -2   -1    0    0    0  501 -0.00000000000E+00  0.00000000000E+00  0.55792234820E+02  0.55792234878E+02  0.25500000000E-02 0. -1.
          2   -1    0    0  501    0  0.00000000000E+00 -0.00000000000E+00 -0.29201441123E+04  0.29201441123E+04  0.25500000000E-02 0.  1.
    5000001    1    1    2    0    0  0.64597992817E+02 -0.33400114532E+03 -0.11109981197E+04  0.11788331043E+04  0.19900000000E+03 0.  0.
   -5000001    1    1    2    0    0 -0.64597992817E+02  0.33400114532E+03 -0.17533537578E+04  0.17971032429E+04  0.19900000000E+03 0.  0.
<mgrwt>
<rscale>  0 0.80727038E+03</rscale>
<asrwt>0</asrwt>
<pdfrwt beam="1">  1        2 0.41716335E+00 0.80727038E+03</pdfrwt>
<pdfrwt beam="2">  1       -2 0.79703211E-02 0.80727038E+03</pdfrwt>
<totfact> 0.26886504E+02</totfact>
</mgrwt>
</event>
<event>
 4    1  0.5069019E-005  0.4184355E+03  0.7818608E-02  0.1037577E+00
          2   -1    0    0  501    0  0.00000000000E+00  0.00000000000E+00  0.17395769836E+04  0.17395769836E+04  0.25500000000E-02 0.  1.
         -2   -1    0    0    0  501 -0.00000000000E+00 -0.00000000000E+00 -0.25162477093E+02  0.25162477222E+02  0.25500000000E-02 0. -1.
    5000001    1    1    2    0    0 -0.48734969275E+02 -0.21691954162E+02  0.70366420776E+03  0.73320526143E+03  0.19900000000E+03 0.  0.
   -5000001    1    1    2    0    0  0.48734969275E+02  0.21691954162E+02  0.10107502988E+04  0.10315341994E+04  0.19900000000E+03 0.  0.
<mgrwt>
<rscale>  0 0.41843550E+03</rscale>
<asrwt>0</asrwt>
<pdfrwt beam="1">  1        2 0.24851106E+00 0.41843550E+03</pdfrwt>
<pdfrwt beam="2">  1       -2 0.35946387E-02 0.41843550E+03</pdfrwt>
<totfact> 0.38258737E+03</totfact>
</mgrwt>
</event>
<event>
 4    1  0.5069019E-005  0.4613706E+03  0.7818608E-02  0.1024384E+00
          2   -1    0    0  501    0  0.00000000000E+00  0.00000000000E+00  0.38326797981E+04  0.38326797981E+04  0.25500000000E-02 0.  1.
         -2   -1    0    0    0  501 -0.00000000000E+00 -0.00000000000E+00 -0.13884724953E+02  0.13884725187E+02  0.25500000000E-02 0. -1.
    5000001    1    1    2    0    0 -0.15323816562E+02  0.57063013709E+02  0.10705313016E+04  0.10904720421E+04  0.19900000000E+03 0.  0.
   -5000001    1    1    2    0    0  0.15323816562E+02 -0.57063013709E+02  0.27482637716E+04  0.27560924812E+04  0.19900000000E+03 0.  0.
<mgrwt>
<rscale>  0 0.46137059E+03</rscale>
<asrwt>0</asrwt>
<pdfrwt beam="1">  1        2 0.54752546E+00 0.46137059E+03</pdfrwt>
<pdfrwt beam="2">  1       -2 0.19835330E-02 0.46137059E+03</pdfrwt>
<totfact> 0.69978538E+02</totfact>
</mgrwt>
</event>
<event>
 4    1  0.5069019E-005  0.8540261E+03  0.7818608E-02  0.9484949E-01
         -2   -1    0    0    0  501 -0.00000000000E+00  0.00000000000E+00  0.14413696819E+03  0.14413696821E+03  0.25500000000E-02 0. -1.
          2   -1    0    0  501    0  0.00000000000E+00 -0.00000000000E+00 -0.12650477483E+04  0.12650477483E+04  0.25500000000E-02 0.  1.
    5000001    1    1    2    0    0 -0.26759650088E+03  0.19606891070E+03 -0.26212839003E+03  0.46729348153E+03  0.19900000000E+03 0.  0.
   -5000001    1    1    2    0    0  0.26759650088E+03 -0.19606891070E+03 -0.85878239007E+03  0.94189123497E+03  0.19900000000E+03 0.  0.
<mgrwt>
<rscale>  0 0.85402611E+03</rscale>
<asrwt>0</asrwt>
<pdfrwt beam="1">  1        2 0.18072110E+00 0.85402611E+03</pdfrwt>
<pdfrwt beam="2">  1       -2 0.20590996E-01 0.85402611E+03</pdfrwt>
<totfact> 0.39897054E+02</totfact>
</mgrwt>
</event>
<event>
 4    1  0.5069019E-005  0.7321093E+03  0.7818608E-02  0.9663844E-01
          2   -1    0    0  501    0  0.00000000000E+00  0.00000000000E+00  0.33732576808E+03  0.33732576809E+03  0.25500000000E-02 0.  1.
         -2   -1    0    0    0  501 -0.00000000000E+00 -0.00000000000E+00 -0.39723028000E+03  0.39723028001E+03  0.25500000000E-02 0. -1.
    5000001    1    1    2    0    0  0.10508707204E+03  0.28833052892E+03 -0.15164522533E+02  0.36607205487E+03  0.19900000000E+03 0.  0.
   -5000001    1    1    2    0    0 -0.10508707204E+03 -0.28833052892E+03 -0.44739989394E+02  0.36848399323E+03  0.19900000000E+03 0.  0.
<mgrwt>
<rscale>  0 0.73210931E+03</rscale>
<asrwt>0</asrwt>
<pdfrwt beam="1">  1        2 0.48189395E-01 0.73210931E+03</pdfrwt>
<pdfrwt beam="2">  1       -2 0.56747183E-01 0.73210931E+03</pdfrwt>
<totfact> 0.30730741E+02</totfact>
</mgrwt>
</event>
<event>
 4    1  0.5069019E-005  0.4907659E+03  0.7818608E-02  0.1016218E+00
          2   -1    0    0  501    0  0.00000000000E+00  0.00000000000E+00  0.43894383389E+03  0.43894383390E+03  0.25500000000E-02 0.  1.
         -2   -1    0    0    0  501 -0.00000000000E+00 -0.00000000000E+00 -0.13717654496E+03  0.13717654498E+03  0.25500000000E-02 0. -1.
    5000001    1    1    2    0    0  0.98613712788E+02 -0.31287799314E+02  0.26773570889E+03  0.34926637478E+03  0.19900000000E+03 0.  0.
   -5000001    1    1    2    0    0 -0.98613712788E+02  0.31287799314E+02  0.34031580044E+02  0.22685400410E+03  0.19900000000E+03 0.  0.
<mgrwt>
<rscale>  0 0.49076593E+03</rscale>
<asrwt>0</asrwt>
<pdfrwt beam="1">  1        2 0.62706263E-01 0.49076593E+03</pdfrwt>
<pdfrwt beam="2">  1       -2 0.19596649E-01 0.49076593E+03</pdfrwt>
<totfact> 0.17149900E+03</totfact>
</mgrwt>
</event>
<event>
 4    1  0.5069019E-005  0.4881846E+03  0.7818608E-02  0.1016910E+00
         -2   -1    0    0    0  501 -0.00000000000E+00  0.00000000000E+00  0.14251783443E+03  0.14251783445E+03  0.25500000000E-02 0. -1.
          2   -1    0    0  501    0  0.00000000000E+00 -0.00000000000E+00 -0.41806029486E+03  0.41806029487E+03  0.25500000000E-02 0.  1.
    5000001    1    1    2    0    0  0.96295391239E+02 -0.79919530316E+02 -0.62296825046E+02  0.24319092933E+03  0.19900000000E+03 0.  0.
   -5000001    1    1    2    0    0 -0.96295391239E+02  0.79919530316E+02 -0.21324563539E+03  0.31738719998E+03  0.19900000000E+03 0.  0.
<mgrwt>
<rscale>  0 0.48818459E+03</rscale>
<asrwt>0</asrwt>
<pdfrwt beam="1">  1        2 0.59722899E-01 0.48818459E+03</pdfrwt>
<pdfrwt beam="2">  1       -2 0.20359691E-01 0.48818459E+03</pdfrwt>
<totfact> 0.16942626E+03</totfact>
</mgrwt>
</event>
<event>
 4    1  0.5069019E-005  0.6850353E+03  0.7818608E-02  0.9743172E-01
         -2   -1    0    0    0  501 -0.00000000000E+00  0.00000000000E+00  0.10389679335E+03  0.10389679338E+03  0.25500000000E-02 0. -1.
          2   -1    0    0  501    0  0.00000000000E+00 -0.00000000000E+00 -0.11291814706E+04  0.11291814706E+04  0.25500000000E-02 0.  1.
    5000001    1    1    2    0    0 -0.10607158109E+02  0.26579569535E+03 -0.36249992643E+03  0.49169813924E+03  0.19900000000E+03 0.  0.
   -5000001    1    1    2    0    0  0.10607158109E+02 -0.26579569535E+03 -0.66278475085E+03  0.74138012479E+03  0.19900000000E+03 0.  0.
<mgrwt>
<rscale>  0 0.68503528E+03</rscale>
<asrwt>0</asrwt>
<pdfrwt beam="1">  1        2 0.16131163E+00 0.68503528E+03</pdfrwt>
<pdfrwt beam="2">  1       -2 0.14842400E-01 0.68503528E+03</pdfrwt>
<totfact> 0.84254833E+02</totfact>
</mgrwt>
</event>
<event>
 4    1  0.5069019E-005  0.5490277E+03  0.7818608E-02  0.1001719E+00
         -2   -1    0    0    0  501 -0.00000000000E+00  0.00000000000E+00  0.18223262686E+03  0.18223262687E+03  0.25500000000E-02 0. -1.
          2   -1    0    0  501    0  0.00000000000E+00 -0.00000000000E+00 -0.41352560726E+03  0.41352560727E+03  0.25500000000E-02 0.  1.
    5000001    1    1    2    0    0 -0.18614212811E+03  0.18428955226E+02 -0.85568255016E+02  0.28620175491E+03  0.19900000000E+03 0.  0.
   -5000001    1    1    2    0    0  0.18614212811E+03 -0.18428955226E+02 -0.14572472539E+03  0.30955647924E+03  0.19900000000E+03 0.  0.
<mgrwt>
<rscale>  0 0.54902771E+03</rscale>
<asrwt>0</asrwt>
<pdfrwt beam="1">  1        2 0.59075086E-01 0.54902771E+03</pdfrwt>
<pdfrwt beam="2">  1       -2 0.26033233E-01 0.54902771E+03</pdfrwt>
<totfact> 0.11101594E+03</totfact>
</mgrwt>
</event>
<event>
 4    1  0.5069019E-005  0.6143692E+03  0.7818608E-02  0.9876035E-01
         -2   -1    0    0    0  501 -0.00000000000E+00  0.00000000000E+00  0.10318017401E+03  0.10318017404E+03  0.25500000000E-02 0. -1.
          2   -1    0    0  501    0  0.00000000000E+00 -0.00000000000E+00 -0.91453974991E+03  0.91453974991E+03  0.25500000000E-02 0.  1.
    5000001    1    1    2    0    0 -0.21630851839E+03 -0.16378497593E+02 -0.26028471990E+03  0.39294626315E+03  0.19900000000E+03 0.  0.
   -5000001    1    1    2    0    0  0.21630851839E+03  0.16378497593E+02 -0.55107485600E+03  0.62477366080E+03  0.19900000000E+03 0.  0.
<mgrwt>
<rscale>  0 0.61436917E+03</rscale>
<asrwt>0</asrwt>
<pdfrwt beam="1">  1        2 0.13064853E+00 0.61436917E+03</pdfrwt>
<pdfrwt beam="2">  1       -2 0.14740025E-01 0.61436917E+03</pdfrwt>
<totfact> 0.11522902E+03</totfact>
</mgrwt>
</event>
<event>
 4    1  0.5069019E-005  0.4622497E+03  0.7818608E-02  0.1024131E+00
         -2   -1    0    0    0  501 -0.00000000000E+00  0.00000000000E+00  0.39350755816E+03  0.39350755817E+03  0.25500000000E-02 0. -1.
          2   -1    0    0  501    0  0.00000000000E+00 -0.00000000000E+00 -0.13575009667E+03  0.13575009669E+03  0.25500000000E-02 0.  1.
    5000001    1    1    2    0    0 -0.97259890669E+02  0.60518040169E+02  0.98677596875E+02  0.24992036260E+03  0.19900000000E+03 0.  0.
   -5000001    1    1    2    0    0  0.97259890669E+02 -0.60518040169E+02  0.15907986461E+03  0.27933729225E+03  0.19900000000E+03 0.  0.
<mgrwt>
<rscale>  0 0.46224967E+03</rscale>
<asrwt>0</asrwt>
<pdfrwt beam="1">  1        2 0.19392871E-01 0.46224967E+03</pdfrwt>
<pdfrwt beam="2">  1       -2 0.56215365E-01 0.46224967E+03</pdfrwt>
<totfact> 0.87798487E+02</totfact>
</mgrwt>
</event>
<event>
 4    1  0.5069019E-005  0.7755617E+03  0.7818608E-02  0.9596080E-01
          2   -1    0    0  501    0  0.00000000000E+00  0.00000000000E+00  0.13518012405E+04  0.13518012405E+04  0.25500000000E-02 0.  1.
         -2   -1    0    0    0  501 -0.00000000000E+00 -0.00000000000E+00 -0.11123972800E+03  0.11123972803E+03  0.25500000000E-02 0. -1.
    5000001    1    1    2    0    0  0.12249264548E+03  0.20714980424E+03  0.10539848025E+04  0.10992726930E+04  0.19900000000E+03 0.  0.
   -5000001    1    1    2    0    0 -0.12249264548E+03 -0.20714980424E+03  0.18657671000E+03  0.36376827557E+03  0.19900000000E+03 0.  0.
<mgrwt>
<rscale>  0 0.77556174E+03</rscale>
<asrwt>0</asrwt>
<pdfrwt beam="1">  1        2 0.19311444E+00 0.77556174E+03</pdfrwt>
<pdfrwt beam="2">  1       -2 0.15891392E-01 0.77556174E+03</pdfrwt>
<totfact> 0.56178583E+02</totfact>
</mgrwt>
</event>
<event>
 4    1  0.5069019E-005  0.9737795E+03  0.7818608E-02  0.9337780E-01
          2   -1    0    0  501    0  0.00000000000E+00  0.00000000000E+00  0.12082528185E+04  0.12082528185E+04  0.25500000000E-02 0.  1.
         -2   -1    0    0    0  501 -0.00000000000E+00 -0.00000000000E+00 -0.19620200747E+03  0.19620200748E+03  0.25500000000E-02 0. -1.
    5000001    1    1    2    0    0  0.35405934918E+03 -0.26831102005E+03  0.52127550039E+03  0.71321663856E+03  0.19900000000E+03 0.  0.
   -5000001    1    1    2    0    0 -0.35405934918E+03  0.26831102005E+03  0.49077531066E+03  0.69123818743E+03  0.19900000000E+03 0.  0.
<mgrwt>
<rscale>  0 0.97377950E+03</rscale>
<asrwt>0</asrwt>
<pdfrwt beam="1">  1        2 0.17260754E+00 0.97377950E+03</pdfrwt>
<pdfrwt beam="2">  1       -2 0.28028859E-01 0.97377950E+03</pdfrwt>
<totfact> 0.24511923E+02</totfact>
</mgrwt>
</event>
<event>
 4    1  0.5069019E-005  0.6367257E+03  0.7818608E-02  0.9832011E-01
          2   -1    0    0  501    0  0.00000000000E+00  0.00000000000E+00  0.53145000734E+03  0.53145000735E+03  0.25500000000E-02 0.  1.
         -2   -1    0    0    0  501 -0.00000000000E+00 -0.00000000000E+00 -0.19071387757E+03  0.19071387759E+03  0.25500000000E-02 0. -1.
    5000001    1    1    2    0    0  0.21632335451E+03 -0.57496073201E+02  0.47937674948E+02  0.30331602796E+03  0.19900000000E+03 0.  0.
   -5000001    1    1    2    0    0 -0.21632335451E+03  0.57496073201E+02  0.29279845483E+03  0.41884785697E+03  0.19900000000E+03 0.  0.
<mgrwt>
<rscale>  0 0.63672566E+03</rscale>
<asrwt>0</asrwt>
<pdfrwt beam="1">  1        2 0.75921430E-01 0.63672566E+03</pdfrwt>
<pdfrwt beam="2">  1       -2 0.27244839E-01 0.63672566E+03</pdfrwt>
<totfact> 0.76944637E+02</totfact>
</mgrwt>
</event>
<event>
 4    1  0.5069019E-005  0.4928428E+03  0.7818608E-02  0.1015664E+00
         -2   -1    0    0    0  501 -0.00000000000E+00  0.00000000000E+00  0.17315085488E+03  0.17315085490E+03  0.25500000000E-02 0.  1.
          2   -1    0    0  501    0  0.00000000000E+00 -0.00000000000E+00 -0.35069707762E+03  0.35069707762E+03  0.25500000000E-02 0. -1.
    5000001    1    1    2    0    0 -0.20648491972E+02 -0.36762263614E+02  0.59061988459E+02  0.21181865529E+03  0.19900000000E+03 0.  0.
   -5000001    1    1    2    0    0  0.20648491972E+02  0.36762263614E+02 -0.23660821120E+03  0.31202927724E+03  0.19900000000E+03 0.  0.
<mgrwt>
<rscale>  0 0.49284277E+03</rscale>
<asrwt>0</asrwt>
<pdfrwt beam="1">  1        2 0.50099583E-01 0.49284277E+03</pdfrwt>
<pdfrwt beam="2">  1       -2 0.24735836E-01 0.49284277E+03</pdfrwt>
<totfact> 0.14596107E+03</totfact>
</mgrwt>
</event>
<event>
 4    1  0.5069019E-005  0.5394852E+03  0.7818608E-02  0.1003957E+00
          2   -1    0    0  501    0  0.00000000000E+00  0.00000000000E+00  0.22635853745E+03  0.22635853747E+03  0.25500000000E-02 0.  1.
         -2   -1    0    0    0  501 -0.00000000000E+00 -0.00000000000E+00 -0.32144167222E+03  0.32144167223E+03  0.25500000000E-02 0. -1.
    5000001    1    1    2    0    0  0.35935336260E+02 -0.16061293614E+03  0.31583813992E+02  0.26016610262E+03  0.19900000000E+03 0.  0.
   -5000001    1    1    2    0    0 -0.35935336260E+02  0.16061293614E+03 -0.12666694875E+03  0.28763410707E+03  0.19900000000E+03 0.  0.
<mgrwt>
<rscale>  0 0.53948519E+03</rscale>
<asrwt>0</asrwt>
<pdfrwt beam="1">  1        2 0.32336934E-01 0.53948519E+03</pdfrwt>
<pdfrwt beam="2">  1       -2 0.45920239E-01 0.53948519E+03</pdfrwt>
<totfact> 0.73897334E+02</totfact>
</mgrwt>
</event>
<event>
 4    1  0.5069019E-005  0.6082879E+03  0.7818608E-02  0.9888359E-01
         -2   -1    0    0    0  501 -0.00000000000E+00  0.00000000000E+00  0.61047858516E+03  0.61047858517E+03  0.25500000000E-02 0. -1.
          2   -1    0    0  501    0  0.00000000000E+00 -0.00000000000E+00 -0.15152625254E+03  0.15152625256E+03  0.25500000000E-02 0.  1.
    5000001    1    1    2    0    0  0.16537685001E+03  0.95076210548E+02  0.68497354423E+02  0.28404555250E+03  0.19900000000E+03 0.  0.
   -5000001    1    1    2    0    0 -0.16537685001E+03 -0.95076210548E+02  0.39045497820E+03  0.47795928523E+03  0.19900000000E+03 0.  0.
<mgrwt>
<rscale>  0 0.60828787E+03</rscale>
<asrwt>0</asrwt>
<pdfrwt beam="1">  1        2 0.21646607E-01 0.60828787E+03</pdfrwt>
<pdfrwt beam="2">  1       -2 0.87211227E-01 0.60828787E+03</pdfrwt>
<totfact> 0.29740186E+02</totfact>
</mgrwt>
</event>
<event>
 4    1  0.5069019E-005  0.9092920E+03  0.7818608E-02  0.9414040E-01
          2   -1    0    0  501    0  0.00000000000E+00  0.00000000000E+00  0.36750197071E+04  0.36750197071E+04  0.25500000000E-02 0.  1.
         -2   -1    0    0    0  501 -0.00000000000E+00 -0.00000000000E+00 -0.56245410414E+02  0.56245410472E+02  0.25500000000E-02 0. -1.
    5000001    1    1    2    0    0  0.38938077145E+03  0.21048531618E+02  0.23126550793E+04  0.23537278818E+04  0.19900000000E+03 0.  0.
   -5000001    1    1    2    0    0 -0.38938077145E+03 -0.21048531618E+02  0.13061192174E+04  0.13775372357E+04  0.19900000000E+03 0.  0.
<mgrwt>
<rscale>  0 0.90929201E+03</rscale>
<asrwt>0</asrwt>
<pdfrwt beam="1">  1        2 0.52500284E+00 0.90929201E+03</pdfrwt>
<pdfrwt beam="2">  1       -2 0.80350583E-02 0.90929201E+03</pdfrwt>
<totfact> 0.96005479E+01</totfact>
</mgrwt>
</event>
<event>
 4    1  0.5069019E-005  0.4410767E+03  0.7818608E-02  0.1030417E+00
         -2   -1    0    0    0  501 -0.00000000000E+00  0.00000000000E+00  0.21283785576E+03  0.21283785577E+03  0.25500000000E-02 0. -1.
          2   -1    0    0  501    0  0.00000000000E+00 -0.00000000000E+00 -0.22851747571E+03  0.22851747572E+03  0.25500000000E-02 0.  1.
    5000001    1    1    2    0    0 -0.47709996286E+02 -0.24607690929E+02 -0.86339266146E+02  0.22346644284E+03  0.19900000000E+03 0.  0.
   -5000001    1    1    2    0    0  0.47709996286E+02  0.24607690929E+02  0.70659646195E+02  0.21788888865E+03  0.19900000000E+03 0.  0.
<mgrwt>
<rscale>  0 0.44107673E+03</rscale>
<asrwt>0</asrwt>
<pdfrwt beam="1">  1        2 0.32645354E-01 0.44107673E+03</pdfrwt>
<pdfrwt beam="2">  1       -2 0.30405408E-01 0.44107673E+03</pdfrwt>
<totfact> 0.16069202E+03</totfact>
</mgrwt>
</event>
<event>
 4    1  0.5069019E-005  0.6866585E+03  0.7818608E-02  0.9740324E-01
          2   -1    0    0  501    0  0.00000000000E+00  0.00000000000E+00  0.83256097652E+03  0.83256097652E+03  0.25500000000E-02 0.  1.
         -2   -1    0    0    0  501 -0.00000000000E+00 -0.00000000000E+00 -0.14158120539E+03  0.14158120541E+03  0.25500000000E-02 0. -1.
    5000001    1    1    2    0    0  0.21605013379E+03 -0.48290311634E+02  0.10280030518E+03  0.31492620922E+03  0.19900000000E+03 0.  0.
   -5000001    1    1    2    0    0 -0.21605013379E+03  0.48290311634E+02  0.58817946595E+03  0.65921597271E+03  0.19900000000E+03 0.  0.
<mgrwt>
<rscale>  0 0.68665854E+03</rscale>
<asrwt>0</asrwt>
<pdfrwt beam="1">  1        2 0.11893728E+00 0.68665854E+03</pdfrwt>
<pdfrwt beam="2">  1       -2 0.20225886E-01 0.68665854E+03</pdfrwt>
<totfact> 0.75751555E+02</totfact>
</mgrwt>
</event>
<event>
 4    1  0.5069019E-005  0.1180040E+04  0.7818608E-02  0.9130509E-01
         -2   -1    0    0    0  501 -0.00000000000E+00  0.00000000000E+00  0.22621902095E+03  0.22621902096E+03  0.25500000000E-02 0. -1.
          2   -1    0    0  501    0  0.00000000000E+00 -0.00000000000E+00 -0.15388784723E+04  0.15388784723E+04  0.25500000000E-02 0.  1.
    5000001    1    1    2    0    0 -0.33585576778E+02 -0.46007601761E+03 -0.19353982690E+03  0.53838331841E+03  0.19900000000E+03 0.  0.
   -5000001    1    1    2    0    0  0.33585576778E+02  0.46007601761E+03 -0.11191196245E+04  0.12267141749E+04  0.19900000000E+03 0.  0.
<mgrwt>
<rscale>  0 0.11800400E+04</rscale>
<asrwt>0</asrwt>
<pdfrwt beam="1">  1        2 0.21983978E+00 0.11800400E+04</pdfrwt>
<pdfrwt beam="2">  1       -2 0.32317004E-01 0.11800400E+04</pdfrwt>
<totfact> 0.12266431E+02</totfact>
</mgrwt>
</event>
<event>
 4    1  0.5069019E-005  0.6513227E+03  0.7818608E-02  0.9804300E-01
          2   -1    0    0  501    0  0.00000000000E+00  0.00000000000E+00  0.18508234571E+03  0.18508234573E+03  0.25500000000E-02 0.  1.
         -2   -1    0    0    0  501 -0.00000000000E+00 -0.00000000000E+00 -0.57301689730E+03  0.57301689731E+03  0.25500000000E-02 0. -1.
    5000001    1    1    2    0    0  0.99761414950E+02 -0.17928177810E+03 -0.12303374483E+02  0.28608856827E+03  0.19900000000E+03 0.  0.
   -5000001    1    1    2    0    0 -0.99761414950E+02  0.17928177810E+03 -0.37563117711E+03  0.47201067476E+03  0.19900000000E+03 0.  0.
<mgrwt>
<rscale>  0 0.65132269E+03</rscale>
<asrwt>0</asrwt>
<pdfrwt beam="1">  1        2 0.26440335E-01 0.65132269E+03</pdfrwt>
<pdfrwt beam="2">  1       -2 0.81859556E-01 0.65132269E+03</pdfrwt>
<totfact> 0.27244167E+02</totfact>
</mgrwt>
</event>
<event>
 4    1  0.5069019E-005  0.4449124E+03  0.7818608E-02  0.1029250E+00
         -2   -1    0    0    0  501 -0.00000000000E+00  0.00000000000E+00  0.51925595724E+02  0.51925595787E+02  0.25500000000E-02 0.  1.
          2   -1    0    0  501    0  0.00000000000E+00 -0.00000000000E+00 -0.95303192377E+03  0.95303192378E+03  0.25500000000E-02 0. -1.
    5000001    1    1    2    0    0  0.27624336545E+02 -0.93504649903E+02 -0.40654892455E+03  0.46302186943E+03  0.19900000000E+03 0.  0.
   -5000001    1    1    2    0    0 -0.27624336545E+02  0.93504649903E+02 -0.49455740350E+03  0.54193565013E+03  0.19900000000E+03 0.  0.
<mgrwt>
<rscale>  0 0.44491235E+03</rscale>
<asrwt>0</asrwt>
<pdfrwt beam="1">  1        2 0.13614741E+00 0.44491235E+03</pdfrwt>
<pdfrwt beam="2">  1       -2 0.74179428E-02 0.44491235E+03</pdfrwt>
<totfact> 0.33262467E+03</totfact>
</mgrwt>
</event>
<event>
 4    1  0.5069019E-005  0.6429919E+03  0.7818608E-02  0.9820019E-01
         -2   -1    0    0    0  501 -0.00000000000E+00  0.00000000000E+00  0.10937475199E+03  0.10937475202E+03  0.25500000000E-02 0. -1.
          2   -1    0    0  501    0  0.00000000000E+00 -0.00000000000E+00 -0.94500461878E+03  0.94500461878E+03  0.25500000000E-02 0.  1.
    5000001    1    1    2    0    0  0.10534450444E+03  0.22551825932E+03 -0.34819194875E+03  0.47201121075E+03  0.19900000000E+03 0.  0.
   -5000001    1    1    2    0    0 -0.10534450444E+03 -0.22551825932E+03 -0.48743791804E+03  0.58236816005E+03  0.19900000000E+03 0.  0.
<mgrwt>
<rscale>  0 0.64299190E+03</rscale>
<asrwt>0</asrwt>
<pdfrwt beam="1">  1        2 0.13500065E+00 0.64299190E+03</pdfrwt>
<pdfrwt beam="2">  1       -2 0.15624965E-01 0.64299190E+03</pdfrwt>
<totfact> 0.99819314E+02</totfact>
</mgrwt>
</event>
<event>
 4    1  0.5069019E-005  0.6151059E+03  0.7818608E-02  0.9874552E-01
          2   -1    0    0  501    0  0.00000000000E+00  0.00000000000E+00  0.22671214603E+04  0.22671214603E+04  0.25500000000E-02 0.  1.
         -2   -1    0    0    0  501 -0.00000000000E+00 -0.00000000000E+00 -0.41721994799E+02  0.41721994877E+02  0.25500000000E-02 0. -1.
    5000001    1    1    2    0    0 -0.10788235952E+03  0.20448290044E+03  0.96559186392E+03  0.10126304892E+04  0.19900000000E+03 0.  0.
   -5000001    1    1    2    0    0  0.10788235952E+03 -0.20448290044E+03  0.12598076015E+04  0.12962129659E+04  0.19900000000E+03 0.  0.
<mgrwt>
<rscale>  0 0.61510594E+03</rscale>
<asrwt>0</asrwt>
<pdfrwt beam="1">  1        2 0.32387455E+00 0.61510594E+03</pdfrwt>
<pdfrwt beam="2">  1       -2 0.59602839E-02 0.61510594E+03</pdfrwt>
<totfact> 0.94791178E+02</totfact>
</mgrwt>
</event>
<event>
 4    1  0.5069019E-005  0.7477412E+03  0.7818608E-02  0.9638901E-01
         -2   -1    0    0    0  501 -0.00000000000E+00  0.00000000000E+00  0.13818090553E+04  0.13818090553E+04  0.25500000000E-02 0. -1.
          2   -1    0    0  501    0  0.00000000000E+00 -0.00000000000E+00 -0.10115668481E+03  0.10115668484E+03  0.25500000000E-02 0.  1.
    5000001    1    1    2    0    0  0.54028903425E+01 -0.26788068673E+03  0.30616605954E+03  0.45291048735E+03  0.19900000000E+03 0.  0.
   -5000001    1    1    2    0    0 -0.54028903425E+01  0.26788068673E+03  0.97448631092E+03  0.10300552528E+04  0.19900000000E+03 0.  0.
<mgrwt>
<rscale>  0 0.74774119E+03</rscale>
<asrwt>0</asrwt>
<pdfrwt beam="1">  1        2 0.14450956E-01 0.74774119E+03</pdfrwt>
<pdfrwt beam="2">  1       -2 0.19740128E+00 0.74774119E+03</pdfrwt>
<totfact> 0.59069698E+01</totfact>
</mgrwt>
</event>
<event>
 4    1  0.5069019E-005  0.5461206E+03  0.7818608E-02  0.1002396E+00
          2   -1    0    0  501    0  0.00000000000E+00  0.00000000000E+00  0.26499716324E+04  0.26499716324E+04  0.25500000000E-02 0.  1.
         -2   -1    0    0    0  501 -0.00000000000E+00 -0.00000000000E+00 -0.28136879119E+02  0.28136879235E+02  0.25500000000E-02 0. -1.
    5000001    1    1    2    0    0 -0.55006884929E+02 -0.17639478319E+03  0.14513477388E+04  0.14765338248E+04  0.19900000000E+03 0.  0.
   -5000001    1    1    2    0    0  0.55006884929E+02  0.17639478319E+03  0.11704870145E+04  0.12015746869E+04  0.19900000000E+03 0.  0.
<mgrwt>
<rscale>  0 0.54612062E+03</rscale>
<asrwt>0</asrwt>
<pdfrwt beam="1">  1        2 0.37856737E+00 0.54612062E+03</pdfrwt>
<pdfrwt beam="2">  1       -2 0.40195542E-02 0.54612062E+03</pdfrwt>
<totfact> 0.11173030E+03</totfact>
</mgrwt>
</event>
<event>
 4    1  0.5069019E-005  0.4491668E+03  0.7818608E-02  0.1027971E+00
          2   -1    0    0  501    0  0.00000000000E+00  0.00000000000E+00  0.42954308424E+03  0.42954308425E+03  0.25500000000E-02 0.  1.
         -2   -1    0    0    0  501 -0.00000000000E+00 -0.00000000000E+00 -0.11742175903E+03  0.11742175905E+03  0.25500000000E-02 0. -1.
    5000001    1    1    2    0    0  0.64847284729E+02 -0.71684568796E+02  0.20311079344E+03  0.30033122074E+03  0.19900000000E+03 0.  0.
   -5000001    1    1    2    0    0 -0.64847284729E+02  0.71684568796E+02  0.10901053178E+03  0.24663362256E+03  0.19900000000E+03 0.  0.
<mgrwt>
<rscale>  0 0.44916680E+03</rscale>
<asrwt>0</asrwt>
<pdfrwt beam="1">  1        2 0.61363298E-01 0.44916680E+03</pdfrwt>
<pdfrwt beam="2">  1       -2 0.16774537E-01 0.44916680E+03</pdfrwt>
<totfact> 0.22904356E+03</totfact>
</mgrwt>
</event>
<event>
 4    1  0.5069019E-005  0.4451938E+03  0.7818608E-02  0.1029165E+00
          2   -1    0    0  501    0  0.00000000000E+00  0.00000000000E+00  0.53622785248E+03  0.53622785248E+03  0.25500000000E-02 0.  1.
         -2   -1    0    0    0  501 -0.00000000000E+00 -0.00000000000E+00 -0.92403572292E+02  0.92403572328E+02  0.25500000000E-02 0. -1.
    5000001    1    1    2    0    0  0.84118742437E+02  0.34133504662E+02  0.28025708595E+03  0.35550821818E+03  0.19900000000E+03 0.  0.
   -5000001    1    1    2    0    0 -0.84118742437E+02 -0.34133504662E+02  0.16356719424E+03  0.27312320663E+03  0.19900000000E+03 0.  0.
<mgrwt>
<rscale>  0 0.44519375E+03</rscale>
<asrwt>0</asrwt>
<pdfrwt beam="1">  1        2 0.76603981E-01 0.44519375E+03</pdfrwt>
<pdfrwt beam="2">  1       -2 0.13200510E-01 0.44519375E+03</pdfrwt>
<totfact> 0.26653132E+03</totfact>
</mgrwt>
</event>
<event>
 4    1  0.5069019E-005  0.1382118E+04  0.7818608E-02  0.8966865E-01
          2   -1    0    0  501    0  0.00000000000E+00  0.00000000000E+00  0.44211730782E+03  0.44211730783E+03  0.25500000000E-02 0. -1.
         -2   -1    0    0    0  501 -0.00000000000E+00 -0.00000000000E+00 -0.10801715984E+04  0.10801715984E+04  0.25500000000E-02 0.  1.
    5000001    1    1    2    0    0  0.38056634501E+03  0.42374875684E+03 -0.69020287546E+03  0.91671956517E+03  0.19900000000E+03 0.  0.
   -5000001    1    1    2    0    0 -0.38056634501E+03 -0.42374875684E+03  0.52148584925E+02  0.60556934102E+03  0.19900000000E+03 0.  0.
<mgrwt>
<rscale>  0 0.13821180E+04</rscale>
<asrwt>0</asrwt>
<pdfrwt beam="1">  1        2 0.63159616E-01 0.13821180E+04</pdfrwt>
<pdfrwt beam="2">  1       -2 0.15431023E+00 0.13821180E+04</pdfrwt>
<totfact> 0.20931525E+01</totfact>
</mgrwt>
</event>
<event>
 4    1  0.5069019E-005  0.5214069E+03  0.7818608E-02  0.1008338E+00
         -2   -1    0    0    0  501 -0.00000000000E+00  0.00000000000E+00  0.34419224513E+02  0.34419224608E+02  0.25500000000E-02 0. -1.
          2   -1    0    0  501    0  0.00000000000E+00 -0.00000000000E+00 -0.19746603158E+04  0.19746603158E+04  0.25500000000E-02 0.  1.
    5000001    1    1    2    0    0  0.97970348629E+01  0.11837533804E+03 -0.51004623282E+03  0.56022929428E+03  0.19900000000E+03 0.  0.
   -5000001    1    1    2    0    0 -0.97970348629E+01 -0.11837533804E+03 -0.14301948585E+04  0.14488502462E+04  0.19900000000E+03 0.  0.
<mgrwt>
<rscale>  0 0.52140685E+03</rscale>
<asrwt>0</asrwt>
<pdfrwt beam="1">  1        2 0.28209426E+00 0.52140685E+03</pdfrwt>
<pdfrwt beam="2">  1       -2 0.49170333E-02 0.52140685E+03</pdfrwt>
<totfact> 0.18023761E+03</totfact>
</mgrwt>
</event>
<event>
 4    1  0.5069019E-005  0.8536831E+03  0.7818608E-02  0.9485407E-01
         -2   -1    0    0    0  501 -0.00000000000E+00  0.00000000000E+00  0.87867154805E+02  0.87867154842E+02  0.25500000000E-02 0. -1.
          2   -1    0    0  501    0  0.00000000000E+00 -0.00000000000E+00 -0.20735130885E+04  0.20735130885E+04  0.25500000000E-02 0.  1.
    5000001    1    1    2    0    0 -0.17789053102E+02 -0.37700857308E+03 -0.10228634230E+04  0.11082880928E+04  0.19900000000E+03 0.  0.
   -5000001    1    1    2    0    0  0.17789053102E+02  0.37700857308E+03 -0.96278251071E+03  0.10530921505E+04  0.19900000000E+03 0.  0.
<mgrwt>
<rscale>  0 0.85368307E+03</rscale>
<asrwt>0</asrwt>
<pdfrwt beam="1">  1        2 0.29621612E+00 0.85368307E+03</pdfrwt>
<pdfrwt beam="2">  1       -2 0.12552452E-01 0.85368307E+03</pdfrwt>
<totfact> 0.35219460E+02</totfact>
</mgrwt>
</event>
<event>
 4    1  0.5069019E-005  0.5202490E+03  0.7818608E-02  0.1008625E+00
          2   -1    0    0  501    0  0.00000000000E+00  0.00000000000E+00  0.20308747925E+03  0.20308747927E+03  0.25500000000E-02 0.  1.
         -2   -1    0    0    0  501 -0.00000000000E+00 -0.00000000000E+00 -0.33318031143E+03  0.33318031144E+03  0.25500000000E-02 0. -1.
    5000001    1    1    2    0    0 -0.16032444905E+03  0.48132389183E+02 -0.58279706080E+02  0.26649236386E+03  0.19900000000E+03 0.  0.
   -5000001    1    1    2    0    0  0.16032444905E+03 -0.48132389183E+02 -0.71813126091E+02  0.26977542685E+03  0.19900000000E+03 0.  0.
<mgrwt>
<rscale>  0 0.52024898E+03</rscale>
<asrwt>0</asrwt>
<pdfrwt beam="1">  1        2 0.29012497E-01 0.52024898E+03</pdfrwt>
<pdfrwt beam="2">  1       -2 0.47597188E-01 0.52024898E+03</pdfrwt>
<totfact> 0.77678389E+02</totfact>
</mgrwt>
</event>
<event>
 4    1  0.5069019E-005  0.6615957E+03  0.7818608E-02  0.9785261E-01
          2   -1    0    0  501    0  0.00000000000E+00  0.00000000000E+00  0.20395365327E+04  0.20395365327E+04  0.25500000000E-02 0.  1.
         -2   -1    0    0    0  501 -0.00000000000E+00 -0.00000000000E+00 -0.53652986928E+02  0.53652986988E+02  0.25500000000E-02 0. -1.
    5000001    1    1    2    0    0 -0.24591291170E+03  0.77426169507E+02  0.80959523972E+03  0.87264736523E+03  0.19900000000E+03 0.  0.
   -5000001    1    1    2    0    0  0.24591291170E+03 -0.77426169507E+02  0.11762883061E+04  0.12205421545E+04  0.19900000000E+03 0.  0.
<mgrwt>
<rscale>  0 0.66159573E+03</rscale>
<asrwt>0</asrwt>
<pdfrwt beam="1">  1        2 0.29136237E+00 0.66159573E+03</pdfrwt>
<pdfrwt beam="2">  1       -2 0.76647121E-02 0.66159573E+03</pdfrwt>
<totfact> 0.82753415E+02</totfact>
</mgrwt>
</event>
<event>
 4    1  0.5069019E-005  0.7471587E+03  0.7818608E-02  0.9639819E-01
          2   -1    0    0  501    0  0.00000000000E+00  0.00000000000E+00  0.68333087025E+03  0.68333087025E+03  0.25500000000E-02 0.  1.
         -2   -1    0    0    0  501 -0.00000000000E+00 -0.00000000000E+00 -0.20423710909E+03  0.20423710910E+03  0.25500000000E-02 0. -1.
    5000001    1    1    2    0    0  0.22129408852E+03 -0.21421860480E+03  0.15471346747E+03  0.39799238846E+03  0.19900000000E+03 0.  0.
   -5000001    1    1    2    0    0 -0.22129408852E+03  0.21421860480E+03  0.32438029369E+03  0.48957559089E+03  0.19900000000E+03 0.  0.
<mgrwt>
<rscale>  0 0.74715868E+03</rscale>
<asrwt>0</asrwt>
<pdfrwt beam="1">  1        2 0.97618697E-01 0.74715868E+03</pdfrwt>
<pdfrwt beam="2">  1       -2 0.29176730E-01 0.74715868E+03</pdfrwt>
<totfact> 0.50248120E+02</totfact>
</mgrwt>
</event>
<event>
 4    1  0.5069019E-005  0.5288466E+03  0.7818608E-02  0.1006512E+00
          2   -1    0    0  501    0  0.00000000000E+00  0.00000000000E+00  0.93801279615E+03  0.93801279615E+03  0.25500000000E-02 0.  1.
         -2   -1    0    0    0  501 -0.00000000000E+00 -0.00000000000E+00 -0.74540225306E+02  0.74540225350E+02  0.25500000000E-02 0. -1.
    5000001    1    1    2    0    0  0.21564514702E+02  0.17080301495E+03  0.38180895512E+03  0.46370009318E+03  0.19900000000E+03 0.  0.
   -5000001    1    1    2    0    0 -0.21564514702E+02 -0.17080301495E+03  0.48166361572E+03  0.54885292832E+03  0.19900000000E+03 0.  0.
<mgrwt>
<rscale>  0 0.52884661E+03</rscale>
<asrwt>0</asrwt>
<pdfrwt beam="1">  1        2 0.13400182E+00 0.52884661E+03</pdfrwt>
<pdfrwt beam="2">  1       -2 0.10648605E-01 0.52884661E+03</pdfrwt>
<totfact> 0.19073885E+03</totfact>
</mgrwt>
</event>
<event>
 4    1  0.5069019E-005  0.1064142E+04  0.7818608E-02  0.9240864E-01
          2   -1    0    0  501    0  0.00000000000E+00  0.00000000000E+00  0.31939091166E+03  0.31939091167E+03  0.25500000000E-02 0.  1.
         -2   -1    0    0    0  501 -0.00000000000E+00 -0.00000000000E+00 -0.88637239471E+03  0.88637239471E+03  0.25500000000E-02 0. -1.
    5000001    1    1    2    0    0  0.34846800878E+03  0.28619789953E+03 -0.51055806765E+03  0.70965465635E+03  0.19900000000E+03 0.  0.
   -5000001    1    1    2    0    0 -0.34846800878E+03 -0.28619789953E+03 -0.56423415401E+02  0.49610865004E+03  0.19900000000E+03 0.  0.
<mgrwt>
<rscale>  0 0.10641415E+04</rscale>
<asrwt>0</asrwt>
<pdfrwt beam="1">  1        2 0.45627274E-01 0.10641415E+04</pdfrwt>
<pdfrwt beam="2">  1       -2 0.12662463E+00 0.10641415E+04</pdfrwt>
<totfact> 0.51366727E+01</totfact>
</mgrwt>
</event>
<event>
 4    1  0.5069019E-005  0.4513716E+03  0.7818608E-02  0.1027314E+00
         -2   -1    0    0    0  501 -0.00000000000E+00  0.00000000000E+00  0.11097642497E+04  0.11097642497E+04  0.25500000000E-02 0. -1.
          2   -1    0    0  501    0  0.00000000000E+00 -0.00000000000E+00 -0.45896314982E+02  0.45896315053E+02  0.25500000000E-02 0.  1.
    5000001    1    1    2    0    0 -0.80963391859E+02 -0.43819448356E+02  0.66880691430E+03  0.70383158745E+03  0.19900000000E+03 0.  0.
   -5000001    1    1    2    0    0  0.80963391859E+02  0.43819448356E+02  0.39506102038E+03  0.45182897727E+03  0.19900000000E+03 0.  0.
<mgrwt>
<rscale>  0 0.45137164E+03</rscale>
<asrwt>0</asrwt>
<pdfrwt beam="1">  1        2 0.65566165E-02 0.45137164E+03</pdfrwt>
<pdfrwt beam="2">  1       -2 0.15853775E+00 0.45137164E+03</pdfrwt>
<totfact> 0.30236629E+02</totfact>
</mgrwt>
</event>
<event>
 4    1  0.5069019E-005  0.4756100E+03  0.7818608E-02  0.1020349E+00
         -2   -1    0    0    0  501 -0.00000000000E+00  0.00000000000E+00  0.18950451806E+02  0.18950451978E+02  0.25500000000E-02 0. -1.
          2   -1    0    0  501    0  0.00000000000E+00 -0.00000000000E+00 -0.29841625855E+04  0.29841625855E+04  0.25500000000E-02 0.  1.
    5000001    1    1    2    0    0 -0.56287490102E+02  0.11627902617E+03 -0.13805699151E+04  0.14008081182E+04  0.19900000000E+03 0.  0.
   -5000001    1    1    2    0    0  0.56287490102E+02 -0.11627902617E+03 -0.15846422185E+04  0.16023049193E+04  0.19900000000E+03 0.  0.
<mgrwt>
<rscale>  0 0.47561005E+03</rscale>
<asrwt>0</asrwt>
<pdfrwt beam="1">  1        2 0.42630864E+00 0.47561005E+03</pdfrwt>
<pdfrwt beam="2">  1       -2 0.27072093E-02 0.47561005E+03</pdfrwt>
<totfact> 0.13646534E+03</totfact>
</mgrwt>
</event>
<event>
 4    1  0.5069019E-005  0.5923522E+03  0.7818608E-02  0.9921401E-01
         -2   -1    0    0    0  501 -0.00000000000E+00  0.00000000000E+00  0.80286525941E+02  0.80286525981E+02  0.25500000000E-02 0. -1.
          2   -1    0    0  501    0  0.00000000000E+00 -0.00000000000E+00 -0.10925901765E+04  0.10925901765E+04  0.25500000000E-02 0.  1.
    5000001    1    1    2    0    0 -0.94091551269E+02  0.58479125147E+02 -0.88103348872E+03  0.90999672326E+03  0.19900000000E+03 0.  0.
   -5000001    1    1    2    0    0  0.94091551269E+02 -0.58479125147E+02 -0.13127016188E+03  0.26287997926E+03  0.19900000000E+03 0.  0.
<mgrwt>
<rscale>  0 0.59235216E+03</rscale>
<asrwt>0</asrwt>
<pdfrwt beam="1">  1        2 0.15608430E+00 0.59235216E+03</pdfrwt>
<pdfrwt beam="2">  1       -2 0.11469504E-01 0.59235216E+03</pdfrwt>
<totfact> 0.13616018E+03</totfact>
</mgrwt>
</event>
<event>
 4    1  0.5069019E-005  0.7888720E+03  0.7818608E-02  0.9576266E-01
          2   -1    0    0  501    0  0.00000000000E+00  0.00000000000E+00  0.15474604835E+04  0.15474604835E+04  0.25500000000E-02 0.  1.
         -2   -1    0    0    0  501 -0.00000000000E+00 -0.00000000000E+00 -0.10053874763E+03  0.10053874766E+03  0.25500000000E-02 0. -1.
    5000001    1    1    2    0    0 -0.20574118877E+02  0.33876247462E+03  0.66454237924E+03  0.77226995435E+03  0.19900000000E+03 0.  0.
   -5000001    1    1    2    0    0  0.20574118877E+02 -0.33876247462E+03  0.78237935660E+03  0.87572927678E+03  0.19900000000E+03 0.  0.
<mgrwt>
<rscale>  0 0.78887195E+03</rscale>
<asrwt>0</asrwt>
<pdfrwt beam="1">  1        2 0.22106581E+00 0.78887195E+03</pdfrwt>
<pdfrwt beam="2">  1       -2 0.14362677E-01 0.78887195E+03</pdfrwt>
<totfact> 0.52450327E+02</totfact>
</mgrwt>
</event>
<event>
 4    1  0.5069019E-005  0.4715141E+03  0.7818608E-02  0.1021494E+00
          2   -1    0    0  501    0  0.00000000000E+00  0.00000000000E+00  0.64502128310E+02  0.64502128360E+02  0.25500000000E-02 0.  1.
         -2   -1    0    0    0  501 -0.00000000000E+00 -0.00000000000E+00 -0.86169832153E+03  0.86169832153E+03  0.25500000000E-02 0. -1.
    5000001    1    1    2    0    0 -0.78949994232E+02 -0.88360042978E+02 -0.48511206669E+03  0.53756424363E+03  0.19900000000E+03 0.  0.
   -5000001    1    1    2    0    0  0.78949994232E+02  0.88360042978E+02 -0.31208412652E+03  0.38863620626E+03  0.19900000000E+03 0.  0.
<mgrwt>
<rscale>  0 0.47151405E+03</rscale>
<asrwt>0</asrwt>
<pdfrwt beam="1">  1        2 0.92145903E-02 0.47151405E+03</pdfrwt>
<pdfrwt beam="2">  1       -2 0.12309975E+00 0.47151405E+03</pdfrwt>
<totfact> 0.37211984E+02</totfact>
</mgrwt>
</event>
<event>
 4    1  0.5069019E-005  0.4587171E+03  0.7818608E-02  0.1025154E+00
          2   -1    0    0  501    0  0.00000000000E+00  0.00000000000E+00  0.10878781343E+04  0.10878781343E+04  0.25500000000E-02 0.  1.
         -2   -1    0    0    0  501 -0.00000000000E+00 -0.00000000000E+00 -0.48355913977E+02  0.48355914044E+02  0.25500000000E-02 0. -1.
    5000001    1    1    2    0    0  0.99025511524E+02 -0.19040615021E+02  0.38785757489E+03  0.44744060539E+03  0.19900000000E+03 0.  0.
   -5000001    1    1    2    0    0 -0.99025511524E+02  0.19040615021E+02  0.65166464544E+03  0.68879344296E+03  0.19900000000E+03 0.  0.
<mgrwt>
<rscale>  0 0.45871709E+03</rscale>
<asrwt>0</asrwt>
<pdfrwt beam="1">  1        2 0.15541114E+00 0.45871709E+03</pdfrwt>
<pdfrwt beam="2">  1       -2 0.69079889E-02 0.45871709E+03</pdfrwt>
<totfact> 0.30910604E+03</totfact>
</mgrwt>
</event>
<event>
 4    1  0.5069019E-005  0.9332677E+03  0.7818608E-02  0.9384925E-01
          2   -1    0    0  501    0  0.00000000000E+00  0.00000000000E+00  0.10824388146E+04  0.10824388146E+04  0.25500000000E-02 0. -1.
         -2   -1    0    0    0  501 -0.00000000000E+00 -0.00000000000E+00 -0.20116346861E+03  0.20116346863E+03  0.25500000000E-02 0.  1.
    5000001    1    1    2    0    0 -0.20362825432E+03 -0.36554904352E+03  0.51666520447E+03  0.69399892124E+03  0.19900000000E+03 0.  0.
   -5000001    1    1    2    0    0  0.20362825432E+03  0.36554904352E+03  0.36461014154E+03  0.58960336200E+03  0.19900000000E+03 0.  0.
<mgrwt>
<rscale>  0 0.93326769E+03</rscale>
<asrwt>0</asrwt>
<pdfrwt beam="1">  1        2 0.15463412E+00 0.93326769E+03</pdfrwt>
<pdfrwt beam="2">  1       -2 0.28737638E-01 0.93326769E+03</pdfrwt>
<totfact> 0.27749725E+02</totfact>
</mgrwt>
</event>
<event>
 4    1  0.5069019E-005  0.1223744E+04  0.7818608E-02  0.9092324E-01
         -2   -1    0    0    0  501 -0.00000000000E+00  0.00000000000E+00  0.44733999467E+03  0.44733999468E+03  0.25500000000E-02 0. -1.
          2   -1    0    0  501    0  0.00000000000E+00 -0.00000000000E+00 -0.83691841470E+03  0.83691841470E+03  0.25500000000E-02 0.  1.
    5000001    1    1    2    0    0  0.55357905293E+03 -0.12665665113E+03 -0.78425988131E+02  0.60683054532E+03  0.19900000000E+03 0.  0.
   -5000001    1    1    2    0    0 -0.55357905293E+03  0.12665665113E+03 -0.31115243190E+03  0.67742786406E+03  0.19900000000E+03 0.  0.
<mgrwt>
<rscale>  0 0.12237436E+04</rscale>
<asrwt>0</asrwt>
<pdfrwt beam="1">  1        2 0.11955977E+00 0.12237436E+04</pdfrwt>
<pdfrwt beam="2">  1       -2 0.63905714E-01 0.12237436E+04</pdfrwt>
<totfact> 0.80022053E+01</totfact>
</mgrwt>
</event>
<event>
 4    1  0.5069019E-005  0.5706663E+03  0.7818608E-02  0.9968205E-01
         -2   -1    0    0    0  501 -0.00000000000E+00  0.00000000000E+00  0.34934983932E+03  0.34934983933E+03  0.25500000000E-02 0. -1.
          2   -1    0    0  501    0  0.00000000000E+00 -0.00000000000E+00 -0.23304724291E+03  0.23304724292E+03  0.25500000000E-02 0.  1.
    5000001    1    1    2    0    0  0.15069164624E+03 -0.13804011789E+03  0.50865178661E+02  0.28974352934E+03  0.19900000000E+03 0.  0.
   -5000001    1    1    2    0    0 -0.15069164624E+03  0.13804011789E+03  0.65437417752E+02  0.29265355292E+03  0.19900000000E+03 0.  0.
<mgrwt>
<rscale>  0 0.57066634E+03</rscale>
<asrwt>0</asrwt>
<pdfrwt beam="1">  1        2 0.33292463E-01 0.57066634E+03</pdfrwt>
<pdfrwt beam="2">  1       -2 0.49907120E-01 0.57066634E+03</pdfrwt>
<totfact> 0.60516636E+02</totfact>
</mgrwt>
</event>
<event>
 4    1  0.5069019E-005  0.4649947E+03  0.7818608E-02  0.1023342E+00
         -2   -1    0    0    0  501 -0.00000000000E+00  0.00000000000E+00  0.43664425704E+02  0.43664425778E+02  0.25500000000E-02 0. -1.
          2   -1    0    0  501    0  0.00000000000E+00 -0.00000000000E+00 -0.12379648873E+04  0.12379648873E+04  0.25500000000E-02 0.  1.
    5000001    1    1    2    0    0 -0.46424900834E+02  0.71889739722E+02 -0.36440647581E+03  0.42392981224E+03  0.19900000000E+03 0.  0.
   -5000001    1    1    2    0    0  0.46424900834E+02 -0.71889739722E+02 -0.82989398577E+03  0.85769950082E+03  0.19900000000E+03 0.  0.
<mgrwt>
<rscale>  0 0.46499473E+03</rscale>
<asrwt>0</asrwt>
<pdfrwt beam="1">  1        2 0.17685210E+00 0.46499473E+03</pdfrwt>
<pdfrwt beam="2">  1       -2 0.62377759E-02 0.46499473E+03</pdfrwt>
<totfact> 0.29855817E+03</totfact>
</mgrwt>
</event>
<event>
 4    1  0.5069019E-005  0.6145489E+03  0.7818608E-02  0.9875673E-01
         -2   -1    0    0    0  501 -0.00000000000E+00  0.00000000000E+00  0.18140873527E+03  0.18140873529E+03  0.25500000000E-02 0. -1.
          2   -1    0    0  501    0  0.00000000000E+00 -0.00000000000E+00 -0.52046879931E+03  0.52046879932E+03  0.25500000000E-02 0.  1.
    5000001    1    1    2    0    0 -0.16667380128E+03  0.11671051859E+03 -0.37247767686E+02  0.28703640428E+03  0.19900000000E+03 0.  0.
   -5000001    1    1    2    0    0  0.16667380128E+03 -0.11671051859E+03 -0.30181229635E+03  0.41484113033E+03  0.19900000000E+03 0.  0.
<mgrwt>
<rscale>  0 0.61454890E+03</rscale>
<asrwt>0</asrwt>
<pdfrwt beam="1">  1        2 0.74352684E-01 0.61454890E+03</pdfrwt>
<pdfrwt beam="2">  1       -2 0.25915534E-01 0.61454890E+03</pdfrwt>
<totfact> 0.86327262E+02</totfact>
</mgrwt>
</event>
<event>
 4    1  0.5069019E-005  0.5815168E+03  0.7818608E-02  0.9944513E-01
          2   -1    0    0  501    0  0.00000000000E+00  0.00000000000E+00  0.67534620430E+03  0.67534620431E+03  0.25500000000E-02 0.  1.
         -2   -1    0    0    0  501 -0.00000000000E+00 -0.00000000000E+00 -0.12518091251E+03  0.12518091253E+03  0.25500000000E-02 0. -1.
    5000001    1    1    2    0    0  0.20630491195E+03  0.31949199917E+01  0.20810012292E+03  0.35422956592E+03  0.19900000000E+03 0.  0.
   -5000001    1    1    2    0    0 -0.20630491195E+03 -0.31949199917E+01  0.34206516887E+03  0.44629755093E+03  0.19900000000E+03 0.  0.
<mgrwt>
<rscale>  0 0.58151682E+03</rscale>
<asrwt>0</asrwt>
<pdfrwt beam="1">  1        2 0.96478031E-01 0.58151682E+03</pdfrwt>
<pdfrwt beam="2">  1       -2 0.17882987E-01 0.58151682E+03</pdfrwt>
<totfact> 0.12213590E+03</totfact>
</mgrwt>
</event>
<event>
 4    1  0.5069019E-005  0.6751865E+03  0.7818608E-02  0.9760633E-01
         -2   -1    0    0    0  501 -0.00000000000E+00  0.00000000000E+00  0.68680883975E+02  0.68680884022E+02  0.25500000000E-02 0. -1.
          2   -1    0    0  501    0  0.00000000000E+00 -0.00000000000E+00 -0.16594023028E+04  0.16594023028E+04  0.25500000000E-02 0.  1.
    5000001    1    1    2    0    0  0.21642848501E+03  0.13021657105E+03 -0.10585026801E+04  0.11062669516E+04  0.19900000000E+03 0.  0.
   -5000001    1    1    2    0    0 -0.21642848501E+03 -0.13021657105E+03 -0.53221873876E+03  0.62181623523E+03  0.19900000000E+03 0.  0.
<mgrwt>
<rscale>  0 0.67518654E+03</rscale>
<asrwt>0</asrwt>
<pdfrwt beam="1">  1        2 0.23705745E+00 0.67518654E+03</pdfrwt>
<pdfrwt beam="2">  1       -2 0.98115559E-02 0.67518654E+03</pdfrwt>
<totfact> 0.86635183E+02</totfact>
</mgrwt>
</event>
<event>
 4    1  0.5069019E-005  0.5478167E+03  0.7818608E-02  0.1002001E+00
          2   -1    0    0  501    0  0.00000000000E+00  0.00000000000E+00  0.19846502956E+03  0.19846502958E+03  0.25500000000E-02 0.  1.
         -2   -1    0    0    0  501 -0.00000000000E+00 -0.00000000000E+00 -0.37803028176E+03  0.37803028177E+03  0.25500000000E-02 0. -1.
    5000001    1    1    2    0    0 -0.14076464706E+03  0.10400832051E+03 -0.16931567879E+02  0.26555619855E+03  0.19900000000E+03 0.  0.
   -5000001    1    1    2    0    0  0.14076464706E+03 -0.10400832051E+03 -0.16263368432E+03  0.31093911280E+03  0.19900000000E+03 0.  0.
<mgrwt>
<rscale>  0 0.54781673E+03</rscale>
<asrwt>0</asrwt>
<pdfrwt beam="1">  1        2 0.28352147E-01 0.54781673E+03</pdfrwt>
<pdfrwt beam="2">  1       -2 0.54004326E-01 0.54781673E+03</pdfrwt>
<totfact> 0.61694190E+02</totfact>
</mgrwt>
</event>
<event>
 4    1  0.5069019E-005  0.7858165E+03  0.7818608E-02  0.9580777E-01
         -2   -1    0    0    0  501 -0.00000000000E+00  0.00000000000E+00  0.55007649215E+02  0.55007649274E+02  0.25500000000E-02 0. -1.
          2   -1    0    0  501    0  0.00000000000E+00 -0.00000000000E+00 -0.28064623417E+04  0.28064623417E+04  0.25500000000E-02 0.  1.
    5000001    1    1    2    0    0  0.12258269753E+03  0.30872389121E+03 -0.16183367087E+04  0.16640167251E+04  0.19900000000E+03 0.  0.
   -5000001    1    1    2    0    0 -0.12258269753E+03 -0.30872389121E+03 -0.11331179838E+04  0.11974532659E+04  0.19900000000E+03 0.  0.
<mgrwt>
<rscale>  0 0.78581651E+03</rscale>
<asrwt>0</asrwt>
<pdfrwt beam="1">  1        2 0.40092310E+00 0.78581651E+03</pdfrwt>
<pdfrwt beam="2">  1       -2 0.78582374E-02 0.78581651E+03</pdfrwt>
<totfact> 0.31726901E+02</totfact>
</mgrwt>
</event>
<event>
 4    1  0.5069019E-005  0.5958827E+03  0.7818608E-02  0.9913985E-01
          2   -1    0    0  501    0  0.00000000000E+00  0.00000000000E+00  0.18830002768E+04  0.18830002768E+04  0.25500000000E-02 0. -1.
         -2   -1    0    0    0  501 -0.00000000000E+00 -0.00000000000E+00 -0.47142344442E+02  0.47142344511E+02  0.25500000000E-02 0.  1.
    5000001    1    1    2    0    0  0.20387632265E+03  0.69103374522E+02  0.10901587079E+04  0.11288878774E+04  0.19900000000E+03 0.  0.
   -5000001    1    1    2    0    0 -0.20387632265E+03 -0.69103374522E+02  0.74569922450E+03  0.80125474396E+03  0.19900000000E+03 0.  0.
<mgrwt>
<rscale>  0 0.59588270E+03</rscale>
<asrwt>0</asrwt>
<pdfrwt beam="1">  1        2 0.26900000E+00 0.59588270E+03</pdfrwt>
<pdfrwt beam="2">  1       -2 0.67346216E-02 0.59588270E+03</pdfrwt>
<totfact> 0.12221919E+03</totfact>
</mgrwt>
</event>
<event>
 4    1  0.5069019E-005  0.5470147E+03  0.7818608E-02  0.1002187E+00
         -2   -1    0    0    0  501 -0.00000000000E+00  0.00000000000E+00  0.10518271287E+03  0.10518271290E+03  0.25500000000E-02 0. -1.
          2   -1    0    0  501    0  0.00000000000E+00 -0.00000000000E+00 -0.71120319745E+03  0.71120319746E+03  0.25500000000E-02 0.  1.
    5000001    1    1    2    0    0 -0.11099256454E+03 -0.12772264337E+02 -0.52798169319E+03  0.57519400941E+03  0.19900000000E+03 0.  0.
   -5000001    1    1    2    0    0  0.11099256454E+03  0.12772264337E+02 -0.78038791393E+02  0.24119190095E+03  0.19900000000E+03 0.  0.
<mgrwt>
<rscale>  0 0.54701474E+03</rscale>
<asrwt>0</asrwt>
<pdfrwt beam="1">  1        2 0.10160045E+00 0.54701474E+03</pdfrwt>
<pdfrwt beam="2">  1       -2 0.15026102E-01 0.54701474E+03</pdfrwt>
<totfact> 0.15414708E+03</totfact>
</mgrwt>
</event>
<event>
 4    1  0.5069019E-005  0.5374697E+03  0.7818608E-02  0.1004437E+00
          2   -1    0    0  501    0  0.00000000000E+00  0.00000000000E+00  0.19606869775E+04  0.19606869775E+04  0.25500000000E-02 0.  1.
         -2   -1    0    0    0  501 -0.00000000000E+00 -0.00000000000E+00 -0.36833220677E+02  0.36833220765E+02  0.25500000000E-02 0. -1.
    5000001    1    1    2    0    0  0.20430018218E+02 -0.14457045868E+03  0.13569887765E+04  0.13792525304E+04  0.19900000000E+03 0.  0.
   -5000001    1    1    2    0    0 -0.20430018218E+02  0.14457045868E+03  0.56686498033E+03  0.61826766783E+03  0.19900000000E+03 0.  0.
<mgrwt>
<rscale>  0 0.53746969E+03</rscale>
<asrwt>0</asrwt>
<pdfrwt beam="1">  1        2 0.28009821E+00 0.53746969E+03</pdfrwt>
<pdfrwt beam="2">  1       -2 0.52618874E-02 0.53746969E+03</pdfrwt>
<totfact> 0.16479411E+03</totfact>
</mgrwt>
</event>
<event>
 4    1  0.5069019E-005  0.6068893E+03  0.7818608E-02  0.9891215E-01
         -2   -1    0    0    0  501 -0.00000000000E+00  0.00000000000E+00  0.18118362675E+03  0.18118362677E+03  0.25500000000E-02 0. -1.
          2   -1    0    0  501    0  0.00000000000E+00 -0.00000000000E+00 -0.50820627515E+03  0.50820627515E+03  0.25500000000E-02 0.  1.
    5000001    1    1    2    0    0  0.18311143269E+03 -0.13496013132E+03 -0.13274386145E+03  0.33009993423E+03  0.19900000000E+03 0.  0.
   -5000001    1    1    2    0    0 -0.18311143269E+03  0.13496013132E+03 -0.19427878695E+03  0.35928996769E+03  0.19900000000E+03 0.  0.
<mgrwt>
<rscale>  0 0.60688930E+03</rscale>
<asrwt>0</asrwt>
<pdfrwt beam="1">  1        2 0.72600896E-01 0.60688930E+03</pdfrwt>
<pdfrwt beam="2">  1       -2 0.25883375E-01 0.60688930E+03</pdfrwt>
<totfact> 0.88923013E+02</totfact>
</mgrwt>
</event>
<event>
 4    1  0.5069019E-005  0.4692400E+03  0.7818608E-02  0.1022135E+00
          2   -1    0    0  501    0  0.00000000000E+00  0.00000000000E+00  0.24160086083E+03  0.24160086084E+03  0.25500000000E-02 0.  1.
         -2   -1    0    0    0  501 -0.00000000000E+00 -0.00000000000E+00 -0.22784080699E+03  0.22784080701E+03  0.25500000000E-02 0. -1.
    5000001    1    1    2    0    0 -0.62163680794E+02  0.99653685599E+02  0.47522049413E+02  0.23591211381E+03  0.19900000000E+03 0.  0.
   -5000001    1    1    2    0    0  0.62163680794E+02 -0.99653685599E+02 -0.33761995577E+02  0.23352955404E+03  0.19900000000E+03 0.  0.
<mgrwt>
<rscale>  0 0.46923996E+03</rscale>
<asrwt>0</asrwt>
<pdfrwt beam="1">  1        2 0.34514409E-01 0.46923996E+03</pdfrwt>
<pdfrwt beam="2">  1       -2 0.32548687E-01 0.46923996E+03</pdfrwt>
<totfact> 0.13325214E+03</totfact>
</mgrwt>
</event>
<event>
 4    1  0.5069019E-005  0.7210512E+03  0.7818608E-02  0.9681894E-01
          2   -1    0    0  501    0  0.00000000000E+00  0.00000000000E+00  0.93958711224E+03  0.93958711225E+03  0.25500000000E-02 0.  1.
         -2   -1    0    0    0  501 -0.00000000000E+00 -0.00000000000E+00 -0.13833599876E+03  0.13833599878E+03  0.25500000000E-02 0. -1.
    5000001    1    1    2    0    0  0.17146300652E+03  0.20040684176E+03  0.18494423142E+03  0.37863945062E+03  0.19900000000E+03 0.  0.
   -5000001    1    1    2    0    0 -0.17146300652E+03 -0.20040684176E+03  0.61630688207E+03  0.69928366041E+03  0.19900000000E+03 0.  0.
<mgrwt>
<rscale>  0 0.72105124E+03</rscale>
<asrwt>0</asrwt>
<pdfrwt beam="1">  1        2 0.13422673E+00 0.72105124E+03</pdfrwt>
<pdfrwt beam="2">  1       -2 0.19762285E-01 0.72105124E+03</pdfrwt>
<totfact> 0.67046001E+02</totfact>
</mgrwt>
</event>
<event>
 4    1  0.5069019E-005  0.4457087E+03  0.7818608E-02  0.1029010E+00
          2   -1    0    0  501    0  0.00000000000E+00  0.00000000000E+00  0.37314738145E+04  0.37314738145E+04  0.25500000000E-02 0.  1.
         -2   -1    0    0    0  501 -0.00000000000E+00 -0.00000000000E+00 -0.13309499973E+02  0.13309500217E+02  0.25500000000E-02 0. -1.
    5000001    1    1    2    0    0 -0.52468224772E+02 -0.30290137684E+02  0.11873194544E+04  0.12054040376E+04  0.19900000000E+03 0.  0.
   -5000001    1    1    2    0    0  0.52468224772E+02  0.30290137684E+02  0.25308448601E+04  0.25393792771E+04  0.19900000000E+03 0.  0.
<mgrwt>
<rscale>  0 0.44570865E+03</rscale>
<asrwt>0</asrwt>
<pdfrwt beam="1">  1        2 0.53306819E+00 0.44570865E+03</pdfrwt>
<pdfrwt beam="2">  1       -2 0.19013554E-02 0.44570865E+03</pdfrwt>
<totfact> 0.86446249E+02</totfact>
</mgrwt>
</event>
<event>
 4    1  0.5069019E-005  0.8064745E+03  0.7818608E-02  0.9550693E-01
          2   -1    0    0  501    0  0.00000000000E+00  0.00000000000E+00  0.16704209011E+03  0.16704209013E+03  0.25500000000E-02 0.  1.
         -2   -1    0    0    0  501 -0.00000000000E+00 -0.00000000000E+00 -0.97340907885E+03  0.97340907886E+03  0.25500000000E-02 0. -1.
    5000001    1    1    2    0    0  0.21718087868E+02  0.32573424462E+03 -0.22195091564E+03  0.44208334329E+03  0.19900000000E+03 0.  0.
   -5000001    1    1    2    0    0 -0.21718087868E+02 -0.32573424462E+03 -0.58441607310E+03  0.69836782569E+03  0.19900000000E+03 0.  0.
<mgrwt>
<rscale>  0 0.80647452E+03</rscale>
<asrwt>0</asrwt>
<pdfrwt beam="1">  1        2 0.23863156E-01 0.80647452E+03</pdfrwt>
<pdfrwt beam="2">  1       -2 0.13905844E+00 0.80647452E+03</pdfrwt>
<totfact> 0.85184099E+01</totfact>
</mgrwt>
</event>
<event>
 4    1  0.5069019E-005  0.4780178E+03  0.7818608E-02  0.1019681E+00
          2   -1    0    0  501    0  0.00000000000E+00  0.00000000000E+00  0.15098391584E+04  0.15098391584E+04  0.25500000000E-02 0.  1.
         -2   -1    0    0    0  501 -0.00000000000E+00 -0.00000000000E+00 -0.37835317424E+02  0.37835317510E+02  0.25500000000E-02 0. -1.
    5000001    1    1    2    0    0  0.44927563667E+02 -0.57933480298E+02  0.10928753821E+04  0.11132620423E+04  0.19900000000E+03 0.  0.
   -5000001    1    1    2    0    0 -0.44927563667E+02  0.57933480298E+02  0.37912845893E+03  0.43441243362E+03  0.19900000000E+03 0.  0.
<mgrwt>
<rscale>  0 0.47801776E+03</rscale>
<asrwt>0</asrwt>
<pdfrwt beam="1">  1        2 0.21569130E+00 0.47801776E+03</pdfrwt>
<pdfrwt beam="2">  1       -2 0.54050456E-02 0.47801776E+03</pdfrwt>
<totfact> 0.26764735E+03</totfact>
</mgrwt>
</event>
<event>
 4    1  0.5069019E-005  0.9634183E+03  0.7818608E-02  0.9349603E-01
          2   -1    0    0  501    0  0.00000000000E+00  0.00000000000E+00  0.34452106915E+03  0.34452106916E+03  0.25500000000E-02 0. -1.
         -2   -1    0    0    0  501 -0.00000000000E+00 -0.00000000000E+00 -0.67352545930E+03  0.67352545931E+03  0.25500000000E-02 0.  1.
    5000001    1    1    2    0    0  0.42668128979E+03 -0.10189892733E+03 -0.16613817278E+03  0.50955196683E+03  0.19900000000E+03 0.  0.
   -5000001    1    1    2    0    0 -0.42668128979E+03  0.10189892733E+03 -0.16286621737E+03  0.50849456163E+03  0.19900000000E+03 0.  0.
<mgrwt>
<rscale>  0 0.96341831E+03</rscale>
<asrwt>0</asrwt>
<pdfrwt beam="1">  1        2 0.49217296E-01 0.96341831E+03</pdfrwt>
<pdfrwt beam="2">  1       -2 0.96217922E-01 0.96341831E+03</pdfrwt>
<totfact> 0.92540122E+01</totfact>
</mgrwt>
</event>
<event>
 4    1  0.5069019E-005  0.6265645E+03  0.7818608E-02  0.9851776E-01
          2   -1    0    0  501    0  0.00000000000E+00  0.00000000000E+00  0.15712635567E+04  0.15712635567E+04  0.25500000000E-02 0.  1.
         -2   -1    0    0    0  501 -0.00000000000E+00 -0.00000000000E+00 -0.62462964760E+02  0.62462964812E+02  0.25500000000E-02 0. -1.
    5000001    1    1    2    0    0 -0.22207657085E+03  0.76937571335E+02  0.90435360575E+03  0.95535011249E+03  0.19900000000E+03 0.  0.
   -5000001    1    1    2    0    0  0.22207657085E+03 -0.76937571335E+02  0.60444698617E+03  0.67837640901E+03  0.19900000000E+03 0.  0.
<mgrwt>
<rscale>  0 0.62656454E+03</rscale>
<asrwt>0</asrwt>
<pdfrwt beam="1">  1        2 0.22446624E+00 0.62656454E+03</pdfrwt>
<pdfrwt beam="2">  1       -2 0.89232798E-02 0.62656454E+03</pdfrwt>
<totfact> 0.11234754E+03</totfact>
</mgrwt>
</event>
<event>
 4    1  0.5069019E-005  0.1036460E+04  0.7818608E-02  0.9269436E-01
          2   -1    0    0  501    0  0.00000000000E+00  0.00000000000E+00  0.10155914351E+04  0.10155914351E+04  0.25500000000E-02 0.  1.
         -2   -1    0    0    0  501 -0.00000000000E+00 -0.00000000000E+00 -0.26443911272E+03  0.26443911273E+03  0.25500000000E-02 0. -1.
    5000001    1    1    2    0    0 -0.11990957928E+03 -0.40673823943E+03  0.64936489948E+03  0.80068100720E+03  0.19900000000E+03 0.  0.
   -5000001    1    1    2    0    0  0.11990957928E+03  0.40673823943E+03  0.10178742286E+03  0.47934954060E+03  0.19900000000E+03 0.  0.
<mgrwt>
<rscale>  0 0.10364595E+04</rscale>
<asrwt>0</asrwt>
<pdfrwt beam="1">  1        2 0.14508449E+00 0.10364595E+04</pdfrwt>
<pdfrwt beam="2">  1       -2 0.37777016E-01 0.10364595E+04</pdfrwt>
<totfact> 0.18067404E+02</totfact>
</mgrwt>
</event>
<event>
 4    1  0.5069019E-005  0.5309694E+03  0.7818608E-02  0.1005997E+00
          2   -1    0    0  501    0  0.00000000000E+00  0.00000000000E+00  0.24435430853E+03  0.24435430855E+03  0.25500000000E-02 0.  1.
         -2   -1    0    0    0  501 -0.00000000000E+00 -0.00000000000E+00 -0.28844230685E+03  0.28844230687E+03  0.25500000000E-02 0. -1.
    5000001    1    1    2    0    0  0.17420038373E+03  0.19471244228E+02 -0.95022909989E+01  0.26536050305E+03  0.19900000000E+03 0.  0.
   -5000001    1    1    2    0    0 -0.17420038373E+03 -0.19471244228E+02 -0.34585707322E+02  0.26743611236E+03  0.19900000000E+03 0.  0.
<mgrwt>
<rscale>  0 0.53096938E+03</rscale>
<asrwt>0</asrwt>
<pdfrwt beam="1">  1        2 0.34907759E-01 0.53096938E+03</pdfrwt>
<pdfrwt beam="2">  1       -2 0.41206044E-01 0.53096938E+03</pdfrwt>
<totfact> 0.84000292E+02</totfact>
</mgrwt>
</event>
<event>
 4    1  0.5069019E-005  0.7578733E+03  0.7818608E-02  0.9623079E-01
         -2   -1    0    0    0  501 -0.00000000000E+00  0.00000000000E+00  0.77946273750E+02  0.77946273792E+02  0.25500000000E-02 0. -1.
          2   -1    0    0  501    0  0.00000000000E+00 -0.00000000000E+00 -0.18422043954E+04  0.18422043954E+04  0.25500000000E-02 0.  1.
    5000001    1    1    2    0    0 -0.29285089662E+03  0.13144289948E+03 -0.96034665777E+03  0.10319426276E+04  0.19900000000E+03 0.  0.
   -5000001    1    1    2    0    0  0.29285089662E+03 -0.13144289948E+03 -0.80391146390E+03  0.88820804166E+03  0.19900000000E+03 0.  0.
<mgrwt>
<rscale>  0 0.75787326E+03</rscale>
<asrwt>0</asrwt>
<pdfrwt beam="1">  1        2 0.26317203E+00 0.75787326E+03</pdfrwt>
<pdfrwt beam="2">  1       -2 0.11135183E-01 0.75787326E+03</pdfrwt>
<totfact> 0.56601643E+02</totfact>
</mgrwt>
</event>
<event>
 4    1  0.5069019E-005  0.5528338E+03  0.7818608E-02  0.1000840E+00
          2   -1    0    0  501    0  0.00000000000E+00  0.00000000000E+00  0.47007215978E+03  0.47007215978E+03  0.25500000000E-02 0.  1.
         -2   -1    0    0    0  501 -0.00000000000E+00 -0.00000000000E+00 -0.16254163358E+03  0.16254163360E+03  0.25500000000E-02 0. -1.
    5000001    1    1    2    0    0  0.70957320624E+02  0.17418073120E+03  0.19705937986E+03  0.33735332763E+03  0.19900000000E+03 0.  0.
   -5000001    1    1    2    0    0 -0.70957320624E+02 -0.17418073120E+03  0.11047114634E+03  0.29526046576E+03  0.19900000000E+03 0.  0.
<mgrwt>
<rscale>  0 0.55283378E+03</rscale>
<asrwt>0</asrwt>
<pdfrwt beam="1">  1        2 0.67153168E-01 0.55283378E+03</pdfrwt>
<pdfrwt beam="2">  1       -2 0.23220233E-01 0.55283378E+03</pdfrwt>
<totfact> 0.11802551E+03</totfact>
</mgrwt>
</event>
<event>
 4    1  0.5069019E-005  0.7412493E+03  0.7818608E-02  0.9649180E-01
         -2   -1    0    0    0  501 -0.00000000000E+00  0.00000000000E+00  0.13451395653E+03  0.13451395655E+03  0.25500000000E-02 0. -1.
          2   -1    0    0  501    0  0.00000000000E+00 -0.00000000000E+00 -0.10211774084E+04  0.10211774084E+04  0.25500000000E-02 0.  1.
    5000001    1    1    2    0    0 -0.30425534394E+03 -0.71274925104E+02 -0.42696591968E+03  0.56528959466E+03  0.19900000000E+03 0.  0.
   -5000001    1    1    2    0    0  0.30425534394E+03  0.71274925104E+02 -0.45969753220E+03  0.59040177031E+03  0.19900000000E+03 0.  0.
<mgrwt>
<rscale>  0 0.74124925E+03</rscale>
<asrwt>0</asrwt>
<pdfrwt beam="1">  1        2 0.14588248E+00 0.74124925E+03</pdfrwt>
<pdfrwt beam="2">  1       -2 0.19216280E-01 0.74124925E+03</pdfrwt>
<totfact> 0.62613728E+02</totfact>
</mgrwt>
</event>
<event>
 4    1  0.5069019E-005  0.4754273E+03  0.7818608E-02  0.1020399E+00
         -2   -1    0    0    0  501 -0.00000000000E+00  0.00000000000E+00  0.29760583451E+02  0.29760583560E+02  0.25500000000E-02 0. -1.
          2   -1    0    0  501    0  0.00000000000E+00 -0.00000000000E+00 -0.18987457745E+04  0.18987457745E+04  0.25500000000E-02 0.  1.
    5000001    1    1    2    0    0 -0.12129055252E+03  0.44331638053E+02 -0.99602242919E+03  0.10238839640E+04  0.19900000000E+03 0.  0.
   -5000001    1    1    2    0    0  0.12129055252E+03 -0.44331638053E+02 -0.87296276183E+03  0.90462239405E+03  0.19900000000E+03 0.  0.
<mgrwt>
<rscale>  0 0.47542731E+03</rscale>
<asrwt>0</asrwt>
<pdfrwt beam="1">  1        2 0.27124932E+00 0.47542731E+03</pdfrwt>
<pdfrwt beam="2">  1       -2 0.42515131E-02 0.47542731E+03</pdfrwt>
<totfact> 0.24642092E+03</totfact>
</mgrwt>
</event>
<event>
 4    1  0.5069019E-005  0.1190354E+04  0.7818608E-02  0.9121342E-01
         -2   -1    0    0    0  501 -0.00000000000E+00  0.00000000000E+00  0.56475643331E+03  0.56475643332E+03  0.25500000000E-02 0. -1.
          2   -1    0    0  501    0  0.00000000000E+00 -0.00000000000E+00 -0.62723631863E+03  0.62723631863E+03  0.25500000000E-02 0.  1.
    5000001    1    1    2    0    0  0.49348805305E+03 -0.13096708702E+03 -0.26383519088E+03  0.60818816524E+03  0.19900000000E+03 0.  0.
   -5000001    1    1    2    0    0 -0.49348805305E+03  0.13096708702E+03  0.20135530556E+03  0.58380458671E+03  0.19900000000E+03 0.  0.
<mgrwt>
<rscale>  0 0.11903541E+04</rscale>
<asrwt>0</asrwt>
<pdfrwt beam="1">  1        2 0.89605188E-01 0.11903541E+04</pdfrwt>
<pdfrwt beam="2">  1       -2 0.80679491E-01 0.11903541E+04</pdfrwt>
<totfact> 0.68995565E+01</totfact>
</mgrwt>
</event>
<event>
 4    1  0.5069019E-005  0.5623567E+03  0.7818608E-02  0.9986736E-01
          2   -1    0    0  501    0  0.00000000000E+00  0.00000000000E+00  0.12465518463E+03  0.12465518466E+03  0.25500000000E-02 0.  1.
         -2   -1    0    0    0  501 -0.00000000000E+00 -0.00000000000E+00 -0.63423963358E+03  0.63423963358E+03  0.25500000000E-02 0. -1.
    5000001    1    1    2    0    0  0.17718850976E+03 -0.68056308896E+02 -0.17572511826E+03  0.32635524565E+03  0.19900000000E+03 0.  0.
   -5000001    1    1    2    0    0 -0.17718850976E+03  0.68056308896E+02 -0.33385933069E+03  0.43253957259E+03  0.19900000000E+03 0.  0.
<mgrwt>
<rscale>  0 0.56235668E+03</rscale>
<asrwt>0</asrwt>
<pdfrwt beam="1">  1        2 0.17807884E-01 0.56235668E+03</pdfrwt>
<pdfrwt beam="2">  1       -2 0.90605660E-01 0.56235668E+03</pdfrwt>
<totfact> 0.34296729E+02</totfact>
</mgrwt>
</event>
<event>
 4    1  0.5069019E-005  0.5289891E+03  0.7818608E-02  0.1006478E+00
         -2   -1    0    0    0  501 -0.00000000000E+00  0.00000000000E+00  0.63731725948E+02  0.63731725999E+02  0.25500000000E-02 0. -1.
          2   -1    0    0  501    0  0.00000000000E+00 -0.00000000000E+00 -0.10976850081E+04  0.10976850081E+04  0.25500000000E-02 0.  1.
    5000001    1    1    2    0    0 -0.88981956553E+02 -0.13093972561E+03 -0.35723906684E+03  0.43850171176E+03  0.19900000000E+03 0.  0.
   -5000001    1    1    2    0    0  0.88981956553E+02  0.13093972561E+03 -0.67671421535E+03  0.72291502238E+03  0.19900000000E+03 0.  0.
<mgrwt>
<rscale>  0 0.52898907E+03</rscale>
<asrwt>0</asrwt>
<pdfrwt beam="1">  1        2 0.15681213E+00 0.52898907E+03</pdfrwt>
<pdfrwt beam="2">  1       -2 0.91045329E-02 0.52898907E+03</pdfrwt>
<totfact> 0.19686175E+03</totfact>
</mgrwt>
</event>
<event>
 4    1  0.5069019E-005  0.4558164E+03  0.7818608E-02  0.1026002E+00
          2   -1    0    0  501    0  0.00000000000E+00  0.00000000000E+00  0.51352925652E+03  0.51352925653E+03  0.25500000000E-02 0.  1.
         -2   -1    0    0    0  501 -0.00000000000E+00 -0.00000000000E+00 -0.10114741019E+03  0.10114741022E+03  0.25500000000E-02 0. -1.
    5000001    1    1    2    0    0  0.63296778556E+02 -0.47952622787E+02  0.31095279252E+03  0.37762226547E+03  0.19900000000E+03 0.  0.
   -5000001    1    1    2    0    0 -0.63296778556E+02  0.47952622787E+02  0.10142905382E+03  0.23705440128E+03  0.19900000000E+03 0.  0.
<mgrwt>
<rscale>  0 0.45581643E+03</rscale>
<asrwt>0</asrwt>
<pdfrwt beam="1">  1        2 0.73361323E-01 0.45581643E+03</pdfrwt>
<pdfrwt beam="2">  1       -2 0.14449630E-01 0.45581643E+03</pdfrwt>
<totfact> 0.24102986E+03</totfact>
</mgrwt>
</event>
<event>
 4    1  0.5069019E-005  0.6448615E+03  0.7818608E-02  0.9816469E-01
          2   -1    0    0  501    0  0.00000000000E+00  0.00000000000E+00  0.41826216580E+03  0.41826216580E+03  0.25500000000E-02 0.  1.
         -2   -1    0    0    0  501 -0.00000000000E+00 -0.00000000000E+00 -0.24855605485E+03  0.24855605486E+03  0.25500000000E-02 0. -1.
    5000001    1    1    2    0    0 -0.24811878657E+03  0.18643226635E+02  0.13603681309E+03  0.34643544371E+03  0.19900000000E+03 0.  0.
   -5000001    1    1    2    0    0  0.24811878657E+03 -0.18643226635E+02  0.33669297862E+02  0.32038277695E+03  0.19900000000E+03 0.  0.
<mgrwt>
<rscale>  0 0.64486152E+03</rscale>
<asrwt>0</asrwt>
<pdfrwt beam="1">  1        2 0.59751737E-01 0.64486152E+03</pdfrwt>
<pdfrwt beam="2">  1       -2 0.35508008E-01 0.64486152E+03</pdfrwt>
<totfact> 0.61629965E+02</totfact>
</mgrwt>
</event>
<event>
 4    1  0.5069019E-005  0.6799241E+03  0.7818608E-02  0.9752194E-01
         -2   -1    0    0    0  501 -0.00000000000E+00  0.00000000000E+00  0.20156142078E+03  0.20156142079E+03  0.25500000000E-02 0. -1.
          2   -1    0    0  501    0  0.00000000000E+00 -0.00000000000E+00 -0.57339442190E+03  0.57339442191E+03  0.25500000000E-02 0.  1.
    5000001    1    1    2    0    0  0.19332286711E+03 -0.18445060526E+03 -0.26302952582E+03  0.42447766511E+03  0.19900000000E+03 0.  0.
   -5000001    1    1    2    0    0 -0.19332286711E+03  0.18445060526E+03 -0.10880347530E+03  0.35047817759E+03  0.19900000000E+03 0.  0.
<mgrwt>
<rscale>  0 0.67992410E+03</rscale>
<asrwt>0</asrwt>
<pdfrwt beam="1">  1        2 0.81913488E-01 0.67992410E+03</pdfrwt>
<pdfrwt beam="2">  1       -2 0.28794489E-01 0.67992410E+03</pdfrwt>
<totfact> 0.63609936E+02</totfact>
</mgrwt>
</event>
<event>
 4    1  0.5069019E-005  0.9008197E+03  0.7818608E-02  0.9424557E-01
         -2   -1    0    0    0  501 -0.00000000000E+00  0.00000000000E+00  0.16128837889E+03  0.16128837891E+03  0.25500000000E-02 0. -1.
          2   -1    0    0  501    0  0.00000000000E+00 -0.00000000000E+00 -0.12578032665E+04  0.12578032665E+04  0.25500000000E-02 0.  1.
    5000001    1    1    2    0    0 -0.35249042409E+03 -0.19011342260E+03 -0.46378316323E+03  0.64427357156E+03  0.19900000000E+03 0.  0.
   -5000001    1    1    2    0    0  0.35249042409E+03  0.19011342260E+03 -0.63273172438E+03  0.77481807385E+03  0.19900000000E+03 0.  0.
<mgrwt>
<rscale>  0 0.90081974E+03</rscale>
<asrwt>0</asrwt>
<pdfrwt beam="1">  1        2 0.17968618E+00 0.90081974E+03</pdfrwt>
<pdfrwt beam="2">  1       -2 0.23041198E-01 0.90081974E+03</pdfrwt>
<totfact> 0.32916514E+02</totfact>
</mgrwt>
</event>
<event>
 4    1  0.5069019E-005  0.5795295E+03  0.7818608E-02  0.9948810E-01
          2   -1    0    0  501    0  0.00000000000E+00  0.00000000000E+00  0.27514277358E+03  0.27514277359E+03  0.25500000000E-02 0.  1.
         -2   -1    0    0    0  501 -0.00000000000E+00 -0.00000000000E+00 -0.30516375801E+03  0.30516375802E+03  0.25500000000E-02 0. -1.
    5000001    1    1    2    0    0 -0.17004458362E+03  0.12414617626E+03 -0.20948813320E+02  0.29046047283E+03  0.19900000000E+03 0.  0.
   -5000001    1    1    2    0    0  0.17004458362E+03 -0.12414617626E+03 -0.90721711122E+01  0.28984605878E+03  0.19900000000E+03 0.  0.
<mgrwt>
<rscale>  0 0.57952947E+03</rscale>
<asrwt>0</asrwt>
<pdfrwt beam="1">  1        2 0.39306111E-01 0.57952947E+03</pdfrwt>
<pdfrwt beam="2">  1       -2 0.43594822E-01 0.57952947E+03</pdfrwt>
<totfact> 0.65929872E+02</totfact>
</mgrwt>
</event>
<event>
 4    1  0.5069019E-005  0.4107226E+03  0.7818608E-02  0.1040129E+00
          2   -1    0    0  501    0  0.00000000000E+00  0.00000000000E+00  0.12989280501E+04  0.12989280501E+04  0.25500000000E-02 0.  1.
         -2   -1    0    0    0  501 -0.00000000000E+00 -0.00000000000E+00 -0.32467736874E+02  0.32467736974E+02  0.25500000000E-02 0. -1.
    5000001    1    1    2    0    0 -0.21659222239E+01 -0.49613479462E+02  0.59984556920E+03  0.63394155523E+03  0.19900000000E+03 0.  0.
   -5000001    1    1    2    0    0  0.21659222239E+01  0.49613479462E+02  0.66661474406E+03  0.69745423187E+03  0.19900000000E+03 0.  0.
<mgrwt>
<rscale>  0 0.41072255E+03</rscale>
<asrwt>0</asrwt>
<pdfrwt beam="1">  1        2 0.18556113E+00 0.41072255E+03</pdfrwt>
<pdfrwt beam="2">  1       -2 0.46382487E-02 0.41072255E+03</pdfrwt>
<totfact> 0.43719117E+03</totfact>
</mgrwt>
</event>
<event>
 4    1  0.5069019E-005  0.7856280E+03  0.7818608E-02  0.9581056E-01
         -2   -1    0    0    0  501 -0.00000000000E+00  0.00000000000E+00  0.84884889891E+02  0.84884889929E+02  0.25500000000E-02 0. -1.
          2   -1    0    0  501    0  0.00000000000E+00 -0.00000000000E+00 -0.18177890936E+04  0.18177890936E+04  0.25500000000E-02 0.  1.
    5000001    1    1    2    0    0 -0.27123801946E+03 -0.16918599982E+03 -0.11373084208E+04  0.11980256299E+04  0.19900000000E+03 0.  0.
   -5000001    1    1    2    0    0  0.27123801946E+03  0.16918599982E+03 -0.59559578291E+03  0.70464835369E+03  0.19900000000E+03 0.  0.
<mgrwt>
<rscale>  0 0.78562797E+03</rscale>
<asrwt>0</asrwt>
<pdfrwt beam="1">  1        2 0.25968413E+00 0.78562797E+03</pdfrwt>
<pdfrwt beam="2">  1       -2 0.12126414E-01 0.78562797E+03</pdfrwt>
<totfact> 0.50518827E+02</totfact>
</mgrwt>
</event>
<event>
 4    1  0.5069019E-005  0.4514805E+03  0.7818608E-02  0.1027281E+00
         -2   -1    0    0    0  501 -0.00000000000E+00  0.00000000000E+00  0.54807734248E+02  0.54807734308E+02  0.25500000000E-02 0. -1.
          2   -1    0    0  501    0  0.00000000000E+00 -0.00000000000E+00 -0.92977130318E+03  0.92977130318E+03  0.25500000000E-02 0.  1.
    5000001    1    1    2    0    0 -0.48274152974E+02 -0.90198937455E+02 -0.37237115454E+03  0.43442780631E+03  0.19900000000E+03 0.  0.
   -5000001    1    1    2    0    0  0.48274152974E+02  0.90198937455E+02 -0.50259241439E+03  0.55015123118E+03  0.19900000000E+03 0.  0.
<mgrwt>
<rscale>  0 0.45148049E+03</rscale>
<asrwt>0</asrwt>
<pdfrwt beam="1">  1        2 0.13282446E+00 0.45148049E+03</pdfrwt>
<pdfrwt beam="2">  1       -2 0.78296769E-02 0.45148049E+03</pdfrwt>
<totfact> 0.31583452E+03</totfact>
</mgrwt>
</event>
<event>
 4    1  0.5069019E-005  0.4536319E+03  0.7818608E-02  0.1026644E+00
          2   -1    0    0  501    0  0.00000000000E+00  0.00000000000E+00  0.98493084746E+03  0.98493084747E+03  0.25500000000E-02 0.  1.
         -2   -1    0    0    0  501 -0.00000000000E+00 -0.00000000000E+00 -0.52232565977E+02  0.52232566039E+02  0.25500000000E-02 0. -1.
    5000001    1    1    2    0    0 -0.43196809302E+02 -0.97258257231E+02  0.51845258389E+03  0.56543718898E+03  0.19900000000E+03 0.  0.
   -5000001    1    1    2    0    0  0.43196809302E+02  0.97258257231E+02  0.41424569759E+03  0.47172622453E+03  0.19900000000E+03 0.  0.
<mgrwt>
<rscale>  0 0.45363186E+03</rscale>
<asrwt>0</asrwt>
<pdfrwt beam="1">  1        2 0.14070441E+00 0.45363186E+03</pdfrwt>
<pdfrwt beam="2">  1       -2 0.74617950E-02 0.45363186E+03</pdfrwt>
<totfact> 0.31508356E+03</totfact>
</mgrwt>
</event>
<event>
 4    1  0.5069019E-005  0.1618283E+04  0.7818608E-02  0.8809394E-01
          2   -1    0    0  501    0  0.00000000000E+00  0.00000000000E+00  0.26176983344E+04  0.26176983344E+04  0.25500000000E-02 0.  1.
         -2   -1    0    0    0  501 -0.00000000000E+00 -0.00000000000E+00 -0.25010905164E+03  0.25010905165E+03  0.25500000000E-02 0. -1.
    5000001    1    1    2    0    0 -0.89409954491E+02 -0.46275863260E+03  0.72895009849E+02  0.51677303961E+03  0.19900000000E+03 0.  0.
   -5000001    1    1    2    0    0  0.89409954491E+02  0.46275863260E+03  0.22946942729E+04  0.23510343464E+04  0.19900000000E+03 0.  0.
<mgrwt>
<rscale>  0 0.16182831E+04</rscale>
<asrwt>0</asrwt>
<pdfrwt beam="1">  1        2 0.37395690E+00 0.16182831E+04</pdfrwt>
<pdfrwt beam="2">  1       -2 0.35729865E-01 0.16182831E+04</pdfrwt>
<totfact> 0.27006947E+01</totfact>
</mgrwt>
</event>
<event>
 4    1  0.5069019E-005  0.1237388E+04  0.7818608E-02  0.9080746E-01
         -2   -1    0    0    0  501 -0.00000000000E+00  0.00000000000E+00  0.20336448474E+03  0.20336448475E+03  0.25500000000E-02 0. -1.
          2   -1    0    0  501    0  0.00000000000E+00 -0.00000000000E+00 -0.18822469721E+04  0.18822469721E+04  0.25500000000E-02 0.  1.
    5000001    1    1    2    0    0 -0.48107157347E+03 -0.30500822406E+03 -0.60882193398E+03  0.85716102503E+03  0.19900000000E+03 0.  0.
   -5000001    1    1    2    0    0  0.48107157347E+03  0.30500822406E+03 -0.10700605534E+04  0.12284504318E+04  0.19900000000E+03 0.  0.
<mgrwt>
<rscale>  0 0.12373879E+04</rscale>
<asrwt>0</asrwt>
<pdfrwt beam="1">  1        2 0.26889241E+00 0.12373879E+04</pdfrwt>
<pdfrwt beam="2">  1       -2 0.29052070E-01 0.12373879E+04</pdfrwt>
<totfact> 0.98889246E+01</totfact>
</mgrwt>
</event>
<event>
 4    1  0.5069019E-005  0.6438301E+03  0.7818608E-02  0.9818426E-01
         -2   -1    0    0    0  501 -0.00000000000E+00  0.00000000000E+00  0.64069246478E+02  0.64069246528E+02  0.25500000000E-02 0. -1.
          2   -1    0    0  501    0  0.00000000000E+00 -0.00000000000E+00 -0.16174575312E+04  0.16174575312E+04  0.25500000000E-02 0.  1.
    5000001    1    1    2    0    0 -0.14723994061E+03  0.47778009616E+02 -0.12994756857E+04  0.13237070658E+04  0.19900000000E+03 0.  0.
   -5000001    1    1    2    0    0  0.14723994061E+03 -0.47778009616E+02 -0.25391259906E+03  0.35781971197E+03  0.19900000000E+03 0.  0.
<mgrwt>
<rscale>  0 0.64383006E+03</rscale>
<asrwt>0</asrwt>
<pdfrwt beam="1">  1        2 0.23106534E+00 0.64383006E+03</pdfrwt>
<pdfrwt beam="2">  1       -2 0.91527505E-02 0.64383006E+03</pdfrwt>
<totfact> 0.10201870E+03</totfact>
</mgrwt>
</event>
<event>
 4    1  0.5069019E-005  0.1025349E+04  0.7818608E-02  0.9281171E-01
          2   -1    0    0  501    0  0.00000000000E+00  0.00000000000E+00  0.26508993295E+04  0.26508993295E+04  0.25500000000E-02 0.  1.
         -2   -1    0    0    0  501 -0.00000000000E+00 -0.00000000000E+00 -0.99149474173E+02  0.99149474206E+02  0.25500000000E-02 0. -1.
    5000001    1    1    2    0    0  0.13246420590E+01  0.46847284380E+03  0.11112891586E+04  0.12223064894E+04  0.19900000000E+03 0.  0.
   -5000001    1    1    2    0    0 -0.13246420590E+01 -0.46847284380E+03  0.14404606967E+04  0.15277423142E+04  0.19900000000E+03 0.  0.
<mgrwt>
<rscale>  0 0.10253493E+04</rscale>
<asrwt>0</asrwt>
<pdfrwt beam="1">  1        2 0.37869991E+00 0.10253493E+04</pdfrwt>
<pdfrwt beam="2">  1       -2 0.14164211E-01 0.10253493E+04</pdfrwt>
<totfact> 0.14295469E+02</totfact>
</mgrwt>
</event>
<event>
 4    1  0.5069019E-005  0.7789480E+03  0.7818608E-02  0.9590999E-01
         -2   -1    0    0    0  501 -0.00000000000E+00  0.00000000000E+00  0.47764033801E+02  0.47764033869E+02  0.25500000000E-02 0. -1.
          2   -1    0    0  501    0  0.00000000000E+00 -0.00000000000E+00 -0.31758202448E+04  0.31758202448E+04  0.25500000000E-02 0.  1.
    5000001    1    1    2    0    0  0.24284296659E+03  0.23000399658E+03 -0.15034264825E+04  0.15529863918E+04  0.19900000000E+03 0.  0.
   -5000001    1    1    2    0    0 -0.24284296659E+03 -0.23000399658E+03 -0.16246297285E+04  0.16705978869E+04  0.19900000000E+03 0.  0.
<mgrwt>
<rscale>  0 0.77894797E+03</rscale>
<asrwt>0</asrwt>
<pdfrwt beam="1">  1        2 0.45368847E+00 0.77894797E+03</pdfrwt>
<pdfrwt beam="2">  1       -2 0.68234354E-02 0.77894797E+03</pdfrwt>
<totfact> 0.24945760E+02</totfact>
</mgrwt>
</event>
<event>
 4    1  0.5069019E-005  0.5772969E+03  0.7818608E-02  0.9953660E-01
          2   -1    0    0  501    0  0.00000000000E+00  0.00000000000E+00  0.10182022911E+04  0.10182022911E+04  0.25500000000E-02 0.  1.
         -2   -1    0    0    0  501 -0.00000000000E+00 -0.00000000000E+00 -0.81828456876E+02  0.81828456915E+02  0.25500000000E-02 0. -1.
    5000001    1    1    2    0    0 -0.99493889360E+02 -0.38318785657E+02  0.81090719021E+03  0.84174748855E+03  0.19900000000E+03 0.  0.
   -5000001    1    1    2    0    0  0.99493889360E+02  0.38318785657E+02  0.12546664400E+03  0.25828325945E+03  0.19900000000E+03 0.  0.
<mgrwt>
<rscale>  0 0.57729688E+03</rscale>
<asrwt>0</asrwt>
<pdfrwt beam="1">  1        2 0.14545746E+00 0.57729688E+03</pdfrwt>
<pdfrwt beam="2">  1       -2 0.11689780E-01 0.57729688E+03</pdfrwt>
<totfact> 0.14612589E+03</totfact>
</mgrwt>
</event>
<event>
 4    1  0.5069019E-005  0.9206690E+03  0.7818608E-02  0.9400107E-01
          2   -1    0    0  501    0  0.00000000000E+00  0.00000000000E+00  0.15153857037E+04  0.15153857037E+04  0.25500000000E-02 0.  1.
         -2   -1    0    0    0  501 -0.00000000000E+00 -0.00000000000E+00 -0.13983757292E+03  0.13983757295E+03  0.25500000000E-02 0. -1.
    5000001    1    1    2    0    0 -0.34789140529E+03 -0.22641026385E+03  0.69514774866E+03  0.83373942567E+03  0.19900000000E+03 0.  0.
   -5000001    1    1    2    0    0  0.34789140529E+03  0.22641026385E+03  0.68040038215E+03  0.82148385102E+03  0.19900000000E+03 0.  0.
<mgrwt>
<rscale>  0 0.92066902E+03</rscale>
<asrwt>0</asrwt>
<pdfrwt beam="1">  1        2 0.21648367E+00 0.92066902E+03</pdfrwt>
<pdfrwt beam="2">  1       -2 0.19976796E-01 0.92066902E+03</pdfrwt>
<totfact> 0.30716272E+02</totfact>
</mgrwt>
</event>
<event>
 4    1  0.5069019E-005  0.5172622E+03  0.7818608E-02  0.1009369E+00
          2   -1    0    0  501    0  0.00000000000E+00  0.00000000000E+00  0.12044714888E+04  0.12044714888E+04  0.25500000000E-02 0.  1.
         -2   -1    0    0    0  501 -0.00000000000E+00 -0.00000000000E+00 -0.55534766271E+02  0.55534766329E+02  0.25500000000E-02 0. -1.
    5000001    1    1    2    0    0 -0.11225930155E+03  0.42032337853E+01  0.86949793340E+03  0.89902584731E+03  0.19900000000E+03 0.  0.
   -5000001    1    1    2    0    0  0.11225930155E+03 -0.42032337853E+01  0.27943878915E+03  0.36098040783E+03  0.19900000000E+03 0.  0.
<mgrwt>
<rscale>  0 0.51726219E+03</rscale>
<asrwt>0</asrwt>
<pdfrwt beam="1">  1        2 0.17206734E+00 0.51726219E+03</pdfrwt>
<pdfrwt beam="2">  1       -2 0.79335390E-02 0.51726219E+03</pdfrwt>
<totfact> 0.21332003E+03</totfact>
</mgrwt>
</event>
<event>
 4    1  0.5069019E-005  0.5025314E+03  0.7818608E-02  0.1013120E+00
         -2   -1    0    0    0  501 -0.00000000000E+00  0.00000000000E+00  0.10604938513E+04  0.10604938513E+04  0.25500000000E-02 0. -1.
          2   -1    0    0  501    0  0.00000000000E+00 -0.00000000000E+00 -0.59533058228E+02  0.59533058283E+02  0.25500000000E-02 0.  1.
    5000001    1    1    2    0    0 -0.11400995391E+03 -0.90581400058E+02  0.39289328066E+03  0.46386354633E+03  0.19900000000E+03 0.  0.
   -5000001    1    1    2    0    0  0.11400995391E+03  0.90581400058E+02  0.60806751242E+03  0.65616336326E+03  0.19900000000E+03 0.  0.
<mgrwt>
<rscale>  0 0.50253136E+03</rscale>
<asrwt>0</asrwt>
<pdfrwt beam="1">  1        2 0.85047240E-02 0.50253136E+03</pdfrwt>
<pdfrwt beam="2">  1       -2 0.15149910E+00 0.50253136E+03</pdfrwt>
<totfact> 0.24289849E+02</totfact>
</mgrwt>
</event>
<event>
 4    1  0.5069019E-005  0.7022179E+03  0.7818608E-02  0.9713447E-01
         -2   -1    0    0    0  501 -0.00000000000E+00  0.00000000000E+00  0.59724935845E+03  0.59724935845E+03  0.25500000000E-02 0. -1.
          2   -1    0    0  501    0  0.00000000000E+00 -0.00000000000E+00 -0.20640877710E+03  0.20640877712E+03  0.25500000000E-02 0.  1.
    5000001    1    1    2    0    0  0.19407501788E+03 -0.20504167519E+03  0.12331670624E+03  0.36676315405E+03  0.19900000000E+03 0.  0.
   -5000001    1    1    2    0    0 -0.19407501788E+03  0.20504167519E+03  0.26752387511E+03  0.43689498153E+03  0.19900000000E+03 0.  0.
<mgrwt>
<rscale>  0 0.70221794E+03</rscale>
<asrwt>0</asrwt>
<pdfrwt beam="1">  1        2 0.29486968E-01 0.70221794E+03</pdfrwt>
<pdfrwt beam="2">  1       -2 0.85321338E-01 0.70221794E+03</pdfrwt>
<totfact> 0.21887833E+02</totfact>
</mgrwt>
</event>
<event>
 4    1  0.5069019E-005  0.4967546E+03  0.7818608E-02  0.1014629E+00
          2   -1    0    0  501    0  0.00000000000E+00  0.00000000000E+00  0.22991735677E+03  0.22991735678E+03  0.25500000000E-02 0.  1.
         -2   -1    0    0    0  501 -0.00000000000E+00 -0.00000000000E+00 -0.26831939832E+03  0.26831939833E+03  0.25500000000E-02 0. -1.
    5000001    1    1    2    0    0  0.76859221532E+02  0.11533630503E+03  0.34629249317E+02  0.24496936155E+03  0.19900000000E+03 0.  0.
   -5000001    1    1    2    0    0 -0.76859221532E+02 -0.11533630503E+03 -0.73031290868E+02  0.25326739355E+03  0.19900000000E+03 0.  0.
<mgrwt>
<rscale>  0 0.49675461E+03</rscale>
<asrwt>0</asrwt>
<pdfrwt beam="1">  1        2 0.32845337E-01 0.49675461E+03</pdfrwt>
<pdfrwt beam="2">  1       -2 0.38331342E-01 0.49675461E+03</pdfrwt>
<totfact> 0.10336539E+03</totfact>
</mgrwt>
</event>
<event>
 4    1  0.5069019E-005  0.6189933E+03  0.7818608E-02  0.9866766E-01
          2   -1    0    0  501    0  0.00000000000E+00  0.00000000000E+00  0.75121454664E+03  0.75121454664E+03  0.25500000000E-02 0.  1.
         -2   -1    0    0    0  501 -0.00000000000E+00 -0.00000000000E+00 -0.12751109573E+03  0.12751109575E+03  0.25500000000E-02 0. -1.
    5000001    1    1    2    0    0  0.20416786324E+03  0.68873025697E+02  0.17161105369E+03  0.33982254751E+03  0.19900000000E+03 0.  0.
   -5000001    1    1    2    0    0 -0.20416786324E+03 -0.68873025697E+02  0.45209239722E+03  0.53890309488E+03  0.19900000000E+03 0.  0.
<mgrwt>
<rscale>  0 0.61899334E+03</rscale>
<asrwt>0</asrwt>
<pdfrwt beam="1">  1        2 0.10731636E+00 0.61899334E+03</pdfrwt>
<pdfrwt beam="2">  1       -2 0.18215871E-01 0.61899334E+03</pdfrwt>
<totfact> 0.10373965E+03</totfact>
</mgrwt>
</event>
<event>
 4    1  0.5069019E-005  0.9363802E+03  0.7818608E-02  0.9381213E-01
         -2   -1    0    0    0  501 -0.00000000000E+00  0.00000000000E+00  0.13266161336E+03  0.13266161339E+03  0.25500000000E-02 0. -1.
          2   -1    0    0  501    0  0.00000000000E+00 -0.00000000000E+00 -0.16523389836E+04  0.16523389836E+04  0.25500000000E-02 0.  1.
    5000001    1    1    2    0    0 -0.10568629469E+03 -0.39249725077E+03 -0.98841139778E+03  0.10870978686E+04  0.19900000000E+03 0.  0.
   -5000001    1    1    2    0    0  0.10568629469E+03  0.39249725077E+03 -0.53126597249E+03  0.69790272837E+03  0.19900000000E+03 0.  0.
<mgrwt>
<rscale>  0 0.93638017E+03</rscale>
<asrwt>0</asrwt>
<pdfrwt beam="1">  1        2 0.23604841E+00 0.93638017E+03</pdfrwt>
<pdfrwt beam="2">  1       -2 0.18951660E-01 0.93638017E+03</pdfrwt>
<totfact> 0.28537435E+02</totfact>
</mgrwt>
</event>
<event>
 4    1  0.5069019E-005  0.8511653E+03  0.7818608E-02  0.9488774E-01
          2   -1    0    0  501    0  0.00000000000E+00  0.00000000000E+00  0.26144098550E+04  0.26144098550E+04  0.25500000000E-02 0.  1.
         -2   -1    0    0    0  501 -0.00000000000E+00 -0.00000000000E+00 -0.69277810638E+02  0.69277810685E+02  0.25500000000E-02 0. -1.
    5000001    1    1    2    0    0  0.24778167148E+03 -0.20832430828E+03  0.66834214936E+03  0.76881532421E+03  0.19900000000E+03 0.  0.
   -5000001    1    1    2    0    0 -0.24778167148E+03  0.20832430828E+03  0.18767898950E+04  0.19148723415E+04  0.19900000000E+03 0.  0.
<mgrwt>
<rscale>  0 0.85116530E+03</rscale>
<asrwt>0</asrwt>
<pdfrwt beam="1">  1        2 0.37348718E+00 0.85116530E+03</pdfrwt>
<pdfrwt beam="2">  1       -2 0.98968286E-02 0.85116530E+03</pdfrwt>
<totfact> 0.27466823E+02</totfact>
</mgrwt>
</event>
<event>
 4    1  0.5069019E-005  0.5726405E+03  0.7818608E-02  0.9963853E-01
          2   -1    0    0  501    0  0.00000000000E+00  0.00000000000E+00  0.63695365460E+02  0.63695365511E+02  0.25500000000E-02 0.  1.
         -2   -1    0    0    0  501 -0.00000000000E+00 -0.00000000000E+00 -0.12870524905E+04  0.12870524905E+04  0.25500000000E-02 0. -1.
    5000001    1    1    2    0    0  0.51722913220E+02  0.11726339346E+03 -0.23168144575E+03  0.33121481775E+03  0.19900000000E+03 0.  0.
   -5000001    1    1    2    0    0 -0.51722913220E+02 -0.11726339346E+03 -0.99167567927E+03  0.10195330382E+04  0.19900000000E+03 0.  0.
<mgrwt>
<rscale>  0 0.57264048E+03</rscale>
<asrwt>0</asrwt>
<pdfrwt beam="1">  1        2 0.90993387E-02 0.57264048E+03</pdfrwt>
<pdfrwt beam="2">  1       -2 0.18386463E+00 0.57264048E+03</pdfrwt>
<totfact> 0.13084939E+02</totfact>
</mgrwt>
</event>
<event>
 4    1  0.5069019E-005  0.1238369E+04  0.7818608E-02  0.9079919E-01
          2   -1    0    0  501    0  0.00000000000E+00  0.00000000000E+00  0.14166724602E+04  0.14166724602E+04  0.25500000000E-02 0.  1.
         -2   -1    0    0    0  501 -0.00000000000E+00 -0.00000000000E+00 -0.27062689879E+03  0.27062689881E+03  0.25500000000E-02 0. -1.
    5000001    1    1    2    0    0 -0.15266257555E+03 -0.40848934775E+03  0.11070517069E+04  0.12063722025E+04  0.19900000000E+03 0.  0.
   -5000001    1    1    2    0    0  0.15266257555E+03  0.40848934775E+03  0.38993854524E+02  0.48092715653E+03  0.19900000000E+03 0.  0.
<mgrwt>
<rscale>  0 0.12383694E+04</rscale>
<asrwt>0</asrwt>
<pdfrwt beam="1">  1        2 0.20238178E+00 0.12383694E+04</pdfrwt>
<pdfrwt beam="2">  1       -2 0.38660986E-01 0.12383694E+04</pdfrwt>
<totfact> 0.10076725E+02</totfact>
</mgrwt>
</event>
<event>
 4    1  0.5069019E-005  0.5571760E+03  0.7818608E-02  0.9998465E-01
         -2   -1    0    0    0  501 -0.00000000000E+00  0.00000000000E+00  0.29488058145E+02  0.29488058256E+02  0.25500000000E-02 0. -1.
          2   -1    0    0  501    0  0.00000000000E+00 -0.00000000000E+00 -0.26319562035E+04  0.26319562035E+04  0.25500000000E-02 0.  1.
    5000001    1    1    2    0    0  0.60770011571E+02  0.17953637804E+03 -0.15192915287E+04  0.15439475556E+04  0.19900000000E+03 0.  0.
   -5000001    1    1    2    0    0 -0.60770011571E+02 -0.17953637804E+03 -0.10831766167E+04  0.11174967062E+04  0.19900000000E+03 0.  0.
<mgrwt>
<rscale>  0 0.55717601E+03</rscale>
<asrwt>0</asrwt>
<pdfrwt beam="1">  1        2 0.37599360E+00 0.55717601E+03</pdfrwt>
<pdfrwt beam="2">  1       -2 0.42125814E-02 0.55717601E+03</pdfrwt>
<totfact> 0.10613895E+03</totfact>
</mgrwt>
</event>
<event>
 4    1  0.5069019E-005  0.5463177E+03  0.7818608E-02  0.1002350E+00
          2   -1    0    0  501    0  0.00000000000E+00  0.00000000000E+00  0.29409130766E+02  0.29409130876E+02  0.25500000000E-02 0.  1.
         -2   -1    0    0    0  501 -0.00000000000E+00 -0.00000000000E+00 -0.25371632238E+04  0.25371632238E+04  0.25500000000E-02 0. -1.
    5000001    1    1    2    0    0 -0.23584980217E+02  0.16644177452E+03 -0.86773972952E+03  0.90599798774E+03  0.19900000000E+03 0.  0.
   -5000001    1    1    2    0    0  0.23584980217E+02 -0.16644177452E+03 -0.16400143635E+04  0.16605743669E+04  0.19900000000E+03 0.  0.
<mgrwt>
<rscale>  0 0.54631773E+03</rscale>
<asrwt>0</asrwt>
<pdfrwt beam="1">  1        2 0.42013060E-02 0.54631773E+03</pdfrwt>
<pdfrwt beam="2">  1       -2 0.36245175E+00 0.54631773E+03</pdfrwt>
<totfact> 0.29465006E+01</totfact>
</mgrwt>
</event>
<event>
 4    1  0.5069019E-005  0.1130553E+04  0.7818608E-02  0.9175914E-01
          2   -1    0    0  501    0  0.00000000000E+00  0.00000000000E+00  0.94157715073E+03  0.94157715073E+03  0.25500000000E-02 0.  1.
         -2   -1    0    0    0  501 -0.00000000000E+00 -0.00000000000E+00 -0.33936422713E+03  0.33936422714E+03  0.25500000000E-02 0. -1.
    5000001    1    1    2    0    0 -0.24595293176E+03  0.33991475256E+03 -0.64109405987E+02  0.46877062577E+03  0.19900000000E+03 0.  0.
   -5000001    1    1    2    0    0  0.24595293176E+03 -0.33991475256E+03  0.66632232959E+03  0.81217075210E+03  0.19900000000E+03 0.  0.
<mgrwt>
<rscale>  0 0.11305531E+04</rscale>
<asrwt>0</asrwt>
<pdfrwt beam="1">  1        2 0.13451102E+00 0.11305531E+04</pdfrwt>
<pdfrwt beam="2">  1       -2 0.48480605E-01 0.11305531E+04</pdfrwt>
<totfact> 0.12203793E+02</totfact>
</mgrwt>
</event>
<event>
 4    1  0.5069019E-005  0.6004773E+03  0.7818608E-02  0.9904416E-01
         -2   -1    0    0    0  501 -0.00000000000E+00  0.00000000000E+00  0.77060513252E+02  0.77060513294E+02  0.25500000000E-02 0. -1.
          2   -1    0    0  501    0  0.00000000000E+00 -0.00000000000E+00 -0.11697721954E+04  0.11697721954E+04  0.25500000000E-02 0.  1.
    5000001    1    1    2    0    0  0.30682899526E+02 -0.20869592552E+03 -0.38489211252E+03  0.48191116186E+03  0.19900000000E+03 0.  0.
   -5000001    1    1    2    0    0 -0.30682899526E+02  0.20869592552E+03 -0.70781956960E+03  0.76492154680E+03  0.19900000000E+03 0.  0.
<mgrwt>
<rscale>  0 0.60047730E+03</rscale>
<asrwt>0</asrwt>
<pdfrwt beam="1">  1        2 0.16711030E+00 0.60047730E+03</pdfrwt>
<pdfrwt beam="2">  1       -2 0.11008645E-01 0.60047730E+03</pdfrwt>
<totfact> 0.13145185E+03</totfact>
</mgrwt>
</event>
<event>
 4    1  0.5069019E-005  0.4618853E+03  0.7818608E-02  0.1024236E+00
         -2   -1    0    0    0  501 -0.00000000000E+00  0.00000000000E+00  0.19098146050E+02  0.19098146220E+02  0.25500000000E-02 0. -1.
          2   -1    0    0  501    0  0.00000000000E+00 -0.00000000000E+00 -0.27926533867E+04  0.27926533867E+04  0.25500000000E-02 0.  1.
    5000001    1    1    2    0    0 -0.69719534771E+02 -0.94091472181E+02 -0.14136483763E+04  0.14323814961E+04  0.19900000000E+03 0.  0.
   -5000001    1    1    2    0    0  0.69719534771E+02  0.94091472181E+02 -0.13599068643E+04  0.13793700368E+04  0.19900000000E+03 0.  0.
<mgrwt>
<rscale>  0 0.46188528E+03</rscale>
<asrwt>0</asrwt>
<pdfrwt beam="1">  1        2 0.39895022E+00 0.46188528E+03</pdfrwt>
<pdfrwt beam="2">  1       -2 0.27283084E-02 0.46188528E+03</pdfrwt>
<totfact> 0.17069824E+03</totfact>
</mgrwt>
</event>
<event>
 4    1  0.5069019E-005  0.7174484E+03  0.7818608E-02  0.9687850E-01
         -2   -1    0    0    0  501 -0.00000000000E+00  0.00000000000E+00  0.31376782481E+03  0.31376782482E+03  0.25500000000E-02 0. -1.
          2   -1    0    0  501    0  0.00000000000E+00 -0.00000000000E+00 -0.41012189960E+03  0.41012189961E+03  0.25500000000E-02 0.  1.
    5000001    1    1    2    0    0  0.25058304839E+03  0.16074830327E+03 -0.26769213731E+02  0.35909535217E+03  0.19900000000E+03 0.  0.
   -5000001    1    1    2    0    0 -0.25058304839E+03 -0.16074830327E+03 -0.69584861058E+02  0.36479437226E+03  0.19900000000E+03 0.  0.
<mgrwt>
<rscale>  0 0.71744841E+03</rscale>
<asrwt>0</asrwt>
<pdfrwt beam="1">  1        2 0.58588843E-01 0.71744841E+03</pdfrwt>
<pdfrwt beam="2">  1       -2 0.44823975E-01 0.71744841E+03</pdfrwt>
<totfact> 0.39977994E+02</totfact>
</mgrwt>
</event>
<event>
 4    1  0.5069019E-005  0.4721837E+03  0.7818608E-02  0.1021306E+00
         -2   -1    0    0    0  501 -0.00000000000E+00  0.00000000000E+00  0.13381174542E+03  0.13381174544E+03  0.25500000000E-02 0. -1.
          2   -1    0    0  501    0  0.00000000000E+00 -0.00000000000E+00 -0.41655066513E+03  0.41655066513E+03  0.25500000000E-02 0.  1.
    5000001    1    1    2    0    0  0.84768835768E+02  0.93715609138E+02 -0.15656664049E+03  0.28298848709E+03  0.19900000000E+03 0.  0.
   -5000001    1    1    2    0    0 -0.84768835768E+02 -0.93715609138E+02 -0.12617227922E+03  0.26737392348E+03  0.19900000000E+03 0.  0.
<mgrwt>
<rscale>  0 0.47218374E+03</rscale>
<asrwt>0</asrwt>
<pdfrwt beam="1">  1        2 0.59507237E-01 0.47218374E+03</pdfrwt>
<pdfrwt beam="2">  1       -2 0.19115964E-01 0.47218374E+03</pdfrwt>
<totfact> 0.18966463E+03</totfact>
</mgrwt>
</event>
<event>
 4    1  0.5069019E-005  0.4965130E+03  0.7818608E-02  0.1014693E+00
         -2   -1    0    0    0  501 -0.00000000000E+00  0.00000000000E+00  0.88193683309E+02  0.88193683346E+02  0.25500000000E-02 0. -1.
          2   -1    0    0  501    0  0.00000000000E+00 -0.00000000000E+00 -0.69881752864E+03  0.69881752865E+03  0.25500000000E-02 0.  1.
    5000001    1    1    2    0    0  0.19474743133E+02 -0.12501038361E+03 -0.42833093313E+03  0.48895321853E+03  0.19900000000E+03 0.  0.
   -5000001    1    1    2    0    0 -0.19474743133E+02  0.12501038361E+03 -0.18229291220E+03  0.29805799347E+03  0.19900000000E+03 0.  0.
<mgrwt>
<rscale>  0 0.49651301E+03</rscale>
<asrwt>0</asrwt>
<pdfrwt beam="1">  1        2 0.99831073E-01 0.49651301E+03</pdfrwt>
<pdfrwt beam="2">  1       -2 0.12599098E-01 0.49651301E+03</pdfrwt>
<totfact> 0.21111286E+03</totfact>
</mgrwt>
</event>
<event>
 4    1  0.5069019E-005  0.6826745E+03  0.7818608E-02  0.9747329E-01
          2   -1    0    0  501    0  0.00000000000E+00  0.00000000000E+00  0.59353280074E+03  0.59353280075E+03  0.25500000000E-02 0.  1.
         -2   -1    0    0    0  501 -0.00000000000E+00 -0.00000000000E+00 -0.19630104240E+03  0.19630104242E+03  0.25500000000E-02 0. -1.
    5000001    1    1    2    0    0  0.27535602969E+03 -0.32994564507E+02  0.19945268170E+03  0.39533777534E+03  0.19900000000E+03 0.  0.
   -5000001    1    1    2    0    0 -0.27535602969E+03  0.32994564507E+02  0.19777907663E+03  0.39449606782E+03  0.19900000000E+03 0.  0.
<mgrwt>
<rscale>  0 0.68267447E+03</rscale>
<asrwt>0</asrwt>
<pdfrwt beam="1">  1        2 0.84790401E-01 0.68267447E+03</pdfrwt>
<pdfrwt beam="2">  1       -2 0.28043006E-01 0.68267447E+03</pdfrwt>
<totfact> 0.64117477E+02</totfact>
</mgrwt>
</event>
<event>
 4    1  0.5069019E-005  0.4892998E+03  0.7818608E-02  0.1016610E+00
          2   -1    0    0  501    0  0.00000000000E+00  0.00000000000E+00  0.52885193384E+03  0.52885193385E+03  0.25500000000E-02 0.  1.
         -2   -1    0    0    0  501 -0.00000000000E+00 -0.00000000000E+00 -0.11317641535E+03  0.11317641538E+03  0.25500000000E-02 0. -1.
    5000001    1    1    2    0    0  0.61187646877E+02 -0.12512096969E+03  0.16950671374E+03  0.29619708167E+03  0.19900000000E+03 0.  0.
   -5000001    1    1    2    0    0 -0.61187646877E+02  0.12512096969E+03  0.24616880475E+03  0.34583126756E+03  0.19900000000E+03 0.  0.
<mgrwt>
<rscale>  0 0.48929977E+03</rscale>
<asrwt>0</asrwt>
<pdfrwt beam="1">  1        2 0.75550277E-01 0.48929977E+03</pdfrwt>
<pdfrwt beam="2">  1       -2 0.16168059E-01 0.48929977E+03</pdfrwt>
<totfact> 0.19316343E+03</totfact>
</mgrwt>
</event>
<event>
 4    1  0.5069019E-005  0.8414910E+03  0.7818608E-02  0.9501829E-01
         -2   -1    0    0    0  501 -0.00000000000E+00  0.00000000000E+00  0.21780068158E+03  0.21780068160E+03  0.25500000000E-02 0. -1.
          2   -1    0    0  501    0  0.00000000000E+00 -0.00000000000E+00 -0.81279257613E+03  0.81279257614E+03  0.25500000000E-02 0.  1.
    5000001    1    1    2    0    0  0.21427162634E+03 -0.26353313175E+03 -0.47941464694E+03  0.62032366156E+03  0.19900000000E+03 0.  0.
   -5000001    1    1    2    0    0 -0.21427162634E+03  0.26353313175E+03 -0.11557724761E+03  0.41026959618E+03  0.19900000000E+03 0.  0.
<mgrwt>
<rscale>  0 0.84149100E+03</rscale>
<asrwt>0</asrwt>
<pdfrwt beam="1">  1        2 0.11611322E+00 0.84149100E+03</pdfrwt>
<pdfrwt beam="2">  1       -2 0.31114384E-01 0.84149100E+03</pdfrwt>
<totfact> 0.35720753E+02</totfact>
</mgrwt>
</event>
<event>
 4    1  0.5069019E-005  0.6147567E+03  0.7818608E-02  0.9875255E-01
         -2   -1    0    0    0  501 -0.00000000000E+00  0.00000000000E+00  0.24358411117E+03  0.24358411118E+03  0.25500000000E-02 0. -1.
          2   -1    0    0  501    0  0.00000000000E+00 -0.00000000000E+00 -0.38788020061E+03  0.38788020061E+03  0.25500000000E-02 0.  1.
    5000001    1    1    2    0    0  0.15435877083E+03  0.95703302760E+02 -0.22413805582E+03  0.35046343655E+03  0.19900000000E+03 0.  0.
   -5000001    1    1    2    0    0 -0.15435877083E+03 -0.95703302760E+02  0.79841966384E+02  0.28100087524E+03  0.19900000000E+03 0.  0.
<mgrwt>
<rscale>  0 0.61475671E+03</rscale>
<asrwt>0</asrwt>
<pdfrwt beam="1">  1        2 0.55411457E-01 0.61475671E+03</pdfrwt>
<pdfrwt beam="2">  1       -2 0.34797730E-01 0.61475671E+03</pdfrwt>
<totfact> 0.69688956E+02</totfact>
</mgrwt>
</event>
<event>
 4    1  0.5069019E-005  0.4924912E+03  0.7818608E-02  0.1015758E+00
          2   -1    0    0  501    0  0.00000000000E+00  0.00000000000E+00  0.17142630167E+03  0.17142630168E+03  0.25500000000E-02 0.  1.
         -2   -1    0    0    0  501 -0.00000000000E+00 -0.00000000000E+00 -0.35371996694E+03  0.35371996695E+03  0.25500000000E-02 0. -1.
    5000001    1    1    2    0    0 -0.10653325755E+03  0.79607699422E+02 -0.15285623507E+03  0.28399427700E+03  0.19900000000E+03 0.  0.
   -5000001    1    1    2    0    0  0.10653325755E+03 -0.79607699422E+02 -0.29437430207E+02  0.24115199163E+03  0.19900000000E+03 0.  0.
<mgrwt>
<rscale>  0 0.49249124E+03</rscale>
<asrwt>0</asrwt>
<pdfrwt beam="1">  1        2 0.24489472E-01 0.49249124E+03</pdfrwt>
<pdfrwt beam="2">  1       -2 0.50531424E-01 0.49249124E+03</pdfrwt>
<totfact> 0.83428630E+02</totfact>
</mgrwt>
</event>
<event>
 4    1  0.5069019E-005  0.7391846E+03  0.7818608E-02  0.9652472E-01
          2   -1    0    0  501    0  0.00000000000E+00  0.00000000000E+00  0.62667209317E+03  0.62667209318E+03  0.25500000000E-02 0.  1.
         -2   -1    0    0    0  501 -0.00000000000E+00 -0.00000000000E+00 -0.21797439009E+03  0.21797439010E+03  0.25500000000E-02 0. -1.
    5000001    1    1    2    0    0 -0.16128190311E+03 -0.12458136081E+03 -0.64762469286E+02  0.29210878994E+03  0.19900000000E+03 0.  0.
   -5000001    1    1    2    0    0  0.16128190311E+03  0.12458136081E+03  0.47346017237E+03  0.55253769333E+03  0.19900000000E+03 0.  0.
<mgrwt>
<rscale>  0 0.73918460E+03</rscale>
<asrwt>0</asrwt>
<pdfrwt beam="1">  1        2 0.89524585E-01 0.73918460E+03</pdfrwt>
<pdfrwt beam="2">  1       -2 0.31139198E-01 0.73918460E+03</pdfrwt>
<totfact> 0.49457824E+02</totfact>
</mgrwt>
</event>
<event>
 4    1  0.5069019E-005  0.1136492E+04  0.7818608E-02  0.9170337E-01
         -2   -1    0    0    0  501 -0.00000000000E+00  0.00000000000E+00  0.28889311626E+03  0.28889311627E+03  0.25500000000E-02 0.  1.
          2   -1    0    0  501    0  0.00000000000E+00 -0.00000000000E+00 -0.11177262461E+04  0.11177262461E+04  0.25500000000E-02 0. -1.
    5000001    1    1    2    0    0 -0.56754469581E+02  0.52899487041E+03 -0.43382004806E+03  0.71474294459E+03  0.19900000000E+03 0.  0.
   -5000001    1    1    2    0    0  0.56754469581E+02 -0.52899487041E+03 -0.39501308182E+03  0.69187641783E+03  0.19900000000E+03 0.  0.
<mgrwt>
<rscale>  0 0.11364918E+04</rscale>
<asrwt>0</asrwt>
<pdfrwt beam="1">  1        2 0.15967518E+00 0.11364918E+04</pdfrwt>
<pdfrwt beam="2">  1       -2 0.41270446E-01 0.11364918E+04</pdfrwt>
<totfact> 0.13128920E+02</totfact>
</mgrwt>
</event>
<event>
 4    1  0.5069019E-005  0.9148532E+03  0.7818608E-02  0.9407202E-01
         -2   -1    0    0    0  501 -0.00000000000E+00  0.00000000000E+00  0.61823016627E+02  0.61823016680E+02  0.25500000000E-02 0. -1.
          2   -1    0    0  501    0  0.00000000000E+00 -0.00000000000E+00 -0.33844851977E+04  0.33844851977E+04  0.25500000000E-02 0.  1.
    5000001    1    1    2    0    0  0.32384442134E+03 -0.17057662006E+03 -0.94989988135E+03  0.10372475004E+04  0.19900000000E+03 0.  0.
   -5000001    1    1    2    0    0 -0.32384442134E+03  0.17057662006E+03 -0.23727622998E+04  0.24090607140E+04  0.19900000000E+03 0.  0.
<mgrwt>
<rscale>  0 0.91485318E+03</rscale>
<asrwt>0</asrwt>
<pdfrwt beam="1">  1        2 0.48349777E+00 0.91485318E+03</pdfrwt>
<pdfrwt beam="2">  1       -2 0.88318617E-02 0.91485318E+03</pdfrwt>
<totfact> 0.12344992E+02</totfact>
</mgrwt>
</event>
<event>
 4    1  0.5069019E-005  0.4469360E+03  0.7818608E-02  0.1028640E+00
         -2   -1    0    0    0  501 -0.00000000000E+00  0.00000000000E+00  0.16656273445E+03  0.16656273447E+03  0.25500000000E-02 0.  1.
          2   -1    0    0  501    0  0.00000000000E+00 -0.00000000000E+00 -0.29981467811E+03  0.29981467813E+03  0.25500000000E-02 0. -1.
    5000001    1    1    2    0    0  0.40280669697E+02 -0.87266201066E+02 -0.32032272726E+02  0.22330469922E+03  0.19900000000E+03 0.  0.
   -5000001    1    1    2    0    0 -0.40280669697E+02  0.87266201066E+02 -0.10121967094E+03  0.24307271337E+03  0.19900000000E+03 0.  0.
<mgrwt>
<rscale>  0 0.44693603E+03</rscale>
<asrwt>0</asrwt>
<pdfrwt beam="1">  1        2 0.42830668E-01 0.44693603E+03</pdfrwt>
<pdfrwt beam="2">  1       -2 0.23794677E-01 0.44693603E+03</pdfrwt>
<totfact> 0.18556057E+03</totfact>
</mgrwt>
</event>
<event>
 4    1  0.5069019E-005  0.5126177E+03  0.7818608E-02  0.1010537E+00
         -2   -1    0    0    0  501 -0.00000000000E+00  0.00000000000E+00  0.95512174612E+02  0.95512174646E+02  0.25500000000E-02 0. -1.
          2   -1    0    0  501    0  0.00000000000E+00 -0.00000000000E+00 -0.68780989853E+03  0.68780989853E+03  0.25500000000E-02 0.  1.
    5000001    1    1    2    0    0  0.92465211128E+02 -0.12263033392E+03 -0.21966524229E+03  0.33382904717E+03  0.19900000000E+03 0.  0.
   -5000001    1    1    2    0    0 -0.92465211128E+02  0.12263033392E+03 -0.37263248162E+03  0.44949302600E+03  0.19900000000E+03 0.  0.
<mgrwt>
<rscale>  0 0.51261767E+03</rscale>
<asrwt>0</asrwt>
<pdfrwt beam="1">  1        2 0.98258554E-01 0.51261767E+03</pdfrwt>
<pdfrwt beam="2">  1       -2 0.13644597E-01 0.51261767E+03</pdfrwt>
<totfact> 0.18864176E+03</totfact>
</mgrwt>
</event>
<event>
 4    1  0.5069019E-005  0.4640239E+03  0.7818608E-02  0.1023621E+00
         -2   -1    0    0    0  501 -0.00000000000E+00  0.00000000000E+00  0.33465912553E+02  0.33465912650E+02  0.25500000000E-02 0. -1.
          2   -1    0    0  501    0  0.00000000000E+00 -0.00000000000E+00 -0.16084886593E+04  0.16084886593E+04  0.25500000000E-02 0.  1.
    5000001    1    1    2    0    0  0.15978580061E+02 -0.11535330524E+03 -0.69613542437E+03  0.73332614103E+03  0.19900000000E+03 0.  0.
   -5000001    1    1    2    0    0 -0.15978580061E+02  0.11535330524E+03 -0.87888732238E+03  0.90862843092E+03  0.19900000000E+03 0.  0.
<mgrwt>
<rscale>  0 0.46402388E+03</rscale>
<asrwt>0</asrwt>
<pdfrwt beam="1">  1        2 0.22978405E+00 0.46402388E+03</pdfrwt>
<pdfrwt beam="2">  1       -2 0.47808457E-02 0.46402388E+03</pdfrwt>
<totfact> 0.28801801E+03</totfact>
</mgrwt>
</event>
<event>
 4    1  0.5069019E-005  0.6325093E+03  0.7818608E-02  0.9840164E-01
          2   -1    0    0  501    0  0.00000000000E+00  0.00000000000E+00  0.14351477677E+04  0.14351477677E+04  0.25500000000E-02 0.  1.
         -2   -1    0    0    0  501 -0.00000000000E+00 -0.00000000000E+00 -0.69691076604E+02  0.69691076651E+02  0.25500000000E-02 0. -1.
    5000001    1    1    2    0    0  0.35313157083E+02 -0.14020628152E+03  0.11556433137E+04  0.11815317554E+04  0.19900000000E+03 0.  0.
   -5000001    1    1    2    0    0 -0.35313157083E+02  0.14020628152E+03  0.20981337734E+03  0.32330708893E+03  0.19900000000E+03 0.  0.
<mgrwt>
<rscale>  0 0.63250927E+03</rscale>
<asrwt>0</asrwt>
<pdfrwt beam="1">  1        2 0.20502107E+00 0.63250927E+03</pdfrwt>
<pdfrwt beam="2">  1       -2 0.99558699E-02 0.63250927E+03</pdfrwt>
<totfact> 0.11084591E+03</totfact>
</mgrwt>
</event>
<event>
 4    1  0.5069019E-005  0.7863062E+03  0.7818608E-02  0.9580053E-01
         -2   -1    0    0    0  501 -0.00000000000E+00  0.00000000000E+00  0.75839435663E+02  0.75839435705E+02  0.25500000000E-02 0. -1.
          2   -1    0    0  501    0  0.00000000000E+00 -0.00000000000E+00 -0.20381132492E+04  0.20381132492E+04  0.25500000000E-02 0.  1.
    5000001    1    1    2    0    0  0.16278675431E+03 -0.25753212968E+03 -0.58105257792E+03  0.68559858773E+03  0.19900000000E+03 0.  0.
   -5000001    1    1    2    0    0 -0.16278675431E+03  0.25753212968E+03 -0.13812212357E+04  0.14283540972E+04  0.19900000000E+03 0.  0.
<mgrwt>
<rscale>  0 0.78630620E+03</rscale>
<asrwt>0</asrwt>
<pdfrwt beam="1">  1        2 0.29115900E+00 0.78630620E+03</pdfrwt>
<pdfrwt beam="2">  1       -2 0.10834206E-01 0.78630620E+03</pdfrwt>
<totfact> 0.47020838E+02</totfact>
</mgrwt>
</event>
<event>
 4    1  0.5069019E-005  0.7164279E+03  0.7818608E-02  0.9689543E-01
          2   -1    0    0  501    0  0.00000000000E+00  0.00000000000E+00  0.64823569652E+03  0.64823569653E+03  0.25500000000E-02 0.  1.
         -2   -1    0    0    0  501 -0.00000000000E+00 -0.00000000000E+00 -0.19794844383E+03  0.19794844384E+03  0.25500000000E-02 0. -1.
    5000001    1    1    2    0    0  0.27084450412E+03  0.11419244505E+03  0.16825862884E+03  0.39282136665E+03  0.19900000000E+03 0.  0.
   -5000001    1    1    2    0    0 -0.27084450412E+03 -0.11419244505E+03  0.28202862386E+03  0.45336277372E+03  0.19900000000E+03 0.  0.
<mgrwt>
<rscale>  0 0.71642794E+03</rscale>
<asrwt>0</asrwt>
<pdfrwt beam="1">  1        2 0.92605100E-01 0.71642794E+03</pdfrwt>
<pdfrwt beam="2">  1       -2 0.28278349E-01 0.71642794E+03</pdfrwt>
<totfact> 0.56797601E+02</totfact>
</mgrwt>
</event>
<event>
 4    1  0.5069019E-005  0.6359763E+03  0.7818608E-02  0.9833455E-01
          2   -1    0    0  501    0  0.00000000000E+00  0.00000000000E+00  0.18330437918E+04  0.18330437918E+04  0.25500000000E-02 0.  1.
         -2   -1    0    0    0  501 -0.00000000000E+00 -0.00000000000E+00 -0.55163138698E+02  0.55163138757E+02  0.25500000000E-02 0. -1.
    5000001    1    1    2    0    0  0.11677107664E+03 -0.21471906577E+03  0.76383034845E+03  0.82630355364E+03  0.19900000000E+03 0.  0.
   -5000001    1    1    2    0    0 -0.11677107664E+03  0.21471906577E+03  0.10140503047E+04  0.10619033769E+04  0.19900000000E+03 0.  0.
<mgrwt>
<rscale>  0 0.63597625E+03</rscale>
<asrwt>0</asrwt>
<pdfrwt beam="1">  1        2 0.26186338E+00 0.63597625E+03</pdfrwt>
<pdfrwt beam="2">  1       -2 0.78804488E-02 0.63597625E+03</pdfrwt>
<totfact> 0.10075929E+03</totfact>
</mgrwt>
</event>
<event>
 4    1  0.5069019E-005  0.5926025E+03  0.7818608E-02  0.9920874E-01
          2   -1    0    0  501    0  0.00000000000E+00  0.00000000000E+00  0.25287563336E+04  0.25287563336E+04  0.25500000000E-02 0.  1.
         -2   -1    0    0    0  501 -0.00000000000E+00 -0.00000000000E+00 -0.34718416939E+02  0.34718417033E+02  0.25500000000E-02 0. -1.
    5000001    1    1    2    0    0  0.21658324373E+03 -0.31138359484E+01  0.14015060191E+04  0.14320398455E+04  0.19900000000E+03 0.  0.
   -5000001    1    1    2    0    0 -0.21658324373E+03  0.31138359484E+01  0.10925318976E+04  0.11314349052E+04  0.19900000000E+03 0.  0.
<mgrwt>
<rscale>  0 0.59260245E+03</rscale>
<asrwt>0</asrwt>
<pdfrwt beam="1">  1        2 0.36125104E+00 0.59260245E+03</pdfrwt>
<pdfrwt beam="2">  1       -2 0.49597720E-02 0.59260245E+03</pdfrwt>
<totfact> 0.93002096E+02</totfact>
</mgrwt>
</event>
<event>
 4    1  0.5069019E-005  0.5495344E+03  0.7818608E-02  0.1001602E+00
         -2   -1    0    0    0  501 -0.00000000000E+00  0.00000000000E+00  0.32910786541E+02  0.32910786639E+02  0.25500000000E-02 0. -1.
          2   -1    0    0  501    0  0.00000000000E+00 -0.00000000000E+00 -0.22939896185E+04  0.22939896185E+04  0.25500000000E-02 0.  1.
    5000001    1    1    2    0    0 -0.74937100976E+02 -0.13154707093E+03 -0.16128758253E+04  0.16321426497E+04  0.19900000000E+03 0.  0.
   -5000001    1    1    2    0    0  0.74937100976E+02  0.13154707093E+03 -0.64820300667E+03  0.69475775550E+03  0.19900000000E+03 0.  0.
<mgrwt>
<rscale>  0 0.54953436E+03</rscale>
<asrwt>0</asrwt>
<pdfrwt beam="1">  1        2 0.32771270E+00 0.54953436E+03</pdfrwt>
<pdfrwt beam="2">  1       -2 0.47015424E-02 0.54953436E+03</pdfrwt>
<totfact> 0.13341438E+03</totfact>
</mgrwt>
</event>
<event>
 4    1  0.5069019E-005  0.4831822E+03  0.7818608E-02  0.1018264E+00
         -2   -1    0    0    0  501 -0.00000000000E+00  0.00000000000E+00  0.54989261628E+02  0.54989261687E+02  0.25500000000E-02 0. -1.
          2   -1    0    0  501    0  0.00000000000E+00 -0.00000000000E+00 -0.10614118109E+04  0.10614118109E+04  0.25500000000E-02 0.  1.
    5000001    1    1    2    0    0 -0.12751363975E+03 -0.42227122369E+02 -0.56531194598E+03  0.61418356739E+03  0.19900000000E+03 0.  0.
   -5000001    1    1    2    0    0  0.12751363975E+03  0.42227122369E+02 -0.44111060327E+03  0.50221750517E+03  0.19900000000E+03 0.  0.
<mgrwt>
<rscale>  0 0.48318217E+03</rscale>
<asrwt>0</asrwt>
<pdfrwt beam="1">  1        2 0.15163025E+00 0.48318217E+03</pdfrwt>
<pdfrwt beam="2">  1       -2 0.78556095E-02 0.48318217E+03</pdfrwt>
<totfact> 0.26155745E+03</totfact>
</mgrwt>
</event>
<event>
 4    1  0.5069019E-005  0.7415141E+03  0.7818608E-02  0.9648758E-01
         -2   -1    0    0    0  501 -0.00000000000E+00  0.00000000000E+00  0.42868303268E+02  0.42868303344E+02  0.25500000000E-02 0. -1.
          2   -1    0    0  501    0  0.00000000000E+00 -0.00000000000E+00 -0.32065831129E+04  0.32065831129E+04  0.25500000000E-02 0.  1.
    5000001    1    1    2    0    0  0.30726391407E+03  0.57971011551E+02 -0.15407427061E+04  0.15846958186E+04  0.19900000000E+03 0.  0.
   -5000001    1    1    2    0    0 -0.30726391407E+03 -0.57971011551E+02 -0.16229721035E+04  0.16647555977E+04  0.19900000000E+03 0.  0.
<mgrwt>
<rscale>  0 0.74151407E+03</rscale>
<asrwt>0</asrwt>
<pdfrwt beam="1">  1        2 0.45808315E+00 0.74151407E+03</pdfrwt>
<pdfrwt beam="2">  1       -2 0.61240454E-02 0.74151407E+03</pdfrwt>
<totfact> 0.28542695E+02</totfact>
</mgrwt>
</event>
<event>
 4    1  0.5069019E-005  0.5742163E+03  0.7818608E-02  0.9960392E-01
         -2   -1    0    0    0  501 -0.00000000000E+00  0.00000000000E+00  0.59825104645E+02  0.59825104700E+02  0.25500000000E-02 0. -1.
          2   -1    0    0  501    0  0.00000000000E+00 -0.00000000000E+00 -0.13778677836E+04  0.13778677836E+04  0.25500000000E-02 0.  1.
    5000001    1    1    2    0    0 -0.12512720638E+03  0.16469118929E+03 -0.67673945235E+03  0.73508998903E+03  0.19900000000E+03 0.  0.
   -5000001    1    1    2    0    0  0.12512720638E+03 -0.16469118929E+03 -0.64130322658E+03  0.70260289924E+03  0.19900000000E+03 0.  0.
<mgrwt>
<rscale>  0 0.57421628E+03</rscale>
<asrwt>0</asrwt>
<pdfrwt beam="1">  1        2 0.19683824E+00 0.57421628E+03</pdfrwt>
<pdfrwt beam="2">  1       -2 0.85464444E-02 0.57421628E+03</pdfrwt>
<totfact> 0.15231255E+03</totfact>
</mgrwt>
</event>
<event>
 4    1  0.5069019E-005  0.6115855E+03  0.7818608E-02  0.9881657E-01
          2   -1    0    0  501    0  0.00000000000E+00  0.00000000000E+00  0.13565048586E+04  0.13565048586E+04  0.25500000000E-02 0. -1.
         -2   -1    0    0    0  501 -0.00000000000E+00 -0.00000000000E+00 -0.68933919079E+02  0.68933919126E+02  0.25500000000E-02 0.  1.
    5000001    1    1    2    0    0 -0.12881846537E+03 -0.17028326253E+03  0.85634994232E+03  0.90472471517E+03  0.19900000000E+03 0.  0.
   -5000001    1    1    2    0    0  0.12881846537E+03  0.17028326253E+03  0.43122099715E+03  0.52071406252E+03  0.19900000000E+03 0.  0.
<mgrwt>
<rscale>  0 0.61158547E+03</rscale>
<asrwt>0</asrwt>
<pdfrwt beam="1">  1        2 0.19378641E+00 0.61158547E+03</pdfrwt>
<pdfrwt beam="2">  1       -2 0.98477028E-02 0.61158547E+03</pdfrwt>
<totfact> 0.12433435E+03</totfact>
</mgrwt>
</event>
<event>
 4    1  0.5069019E-005  0.5822008E+03  0.7818608E-02  0.9943038E-01
         -2   -1    0    0    0  501 -0.00000000000E+00  0.00000000000E+00  0.80659846302E+02  0.80659846342E+02  0.25500000000E-02 0. -1.
          2   -1    0    0  501    0  0.00000000000E+00 -0.00000000000E+00 -0.10505777834E+04  0.10505777834E+04  0.25500000000E-02 0.  1.
    5000001    1    1    2    0    0  0.17031154467E+03  0.46101290519E+02 -0.25499752499E+03  0.36845093159E+03  0.19900000000E+03 0.  0.
   -5000001    1    1    2    0    0 -0.17031154467E+03 -0.46101290519E+02 -0.71492041212E+03  0.76278669817E+03  0.19900000000E+03 0.  0.
<mgrwt>
<rscale>  0 0.58220080E+03</rscale>
<asrwt>0</asrwt>
<pdfrwt beam="1">  1        2 0.15008253E+00 0.58220080E+03</pdfrwt>
<pdfrwt beam="2">  1       -2 0.11522836E-01 0.58220080E+03</pdfrwt>
<totfact> 0.14307425E+03</totfact>
</mgrwt>
</event>
<event>
 4    1  0.5069019E-005  0.6798940E+03  0.7818608E-02  0.9752248E-01
          2   -1    0    0  501    0  0.00000000000E+00  0.00000000000E+00  0.90224296077E+03  0.90224296078E+03  0.25500000000E-02 0.  1.
         -2   -1    0    0    0  501 -0.00000000000E+00 -0.00000000000E+00 -0.12808519677E+03  0.12808519680E+03  0.25500000000E-02 0. -1.
    5000001    1    1    2    0    0  0.22013082011E+03 -0.40692991682E+02  0.63072537828E+03  0.69823276946E+03  0.19900000000E+03 0.  0.
   -5000001    1    1    2    0    0 -0.22013082011E+03  0.40692991682E+02  0.14343238572E+03  0.33209538812E+03  0.19900000000E+03 0.  0.
<mgrwt>
<rscale>  0 0.67989401E+03</rscale>
<asrwt>0</asrwt>
<pdfrwt beam="1">  1        2 0.12889185E+00 0.67989401E+03</pdfrwt>
<pdfrwt beam="2">  1       -2 0.18297885E-01 0.67989401E+03</pdfrwt>
<totfact> 0.81071052E+02</totfact>
</mgrwt>
</event>
<event>
 4    1  0.5069019E-005  0.7081914E+03  0.7818608E-02  0.9703326E-01
         -2   -1    0    0    0  501 -0.00000000000E+00  0.00000000000E+00  0.16472636179E+04  0.16472636179E+04  0.25500000000E-02 0. -1.
          2   -1    0    0  501    0  0.00000000000E+00 -0.00000000000E+00 -0.76116384886E+02  0.76116384929E+02  0.25500000000E-02 0.  1.
    5000001    1    1    2    0    0  0.18679053958E+03 -0.15566634572E+03  0.38823499666E+03  0.49944982681E+03  0.19900000000E+03 0.  0.
   -5000001    1    1    2    0    0 -0.18679053958E+03  0.15566634572E+03  0.11829122364E+04  0.12239301760E+04  0.19900000000E+03 0.  0.
<mgrwt>
<rscale>  0 0.70819136E+03</rscale>
<asrwt>0</asrwt>
<pdfrwt beam="1">  1        2 0.10873770E-01 0.70819136E+03</pdfrwt>
<pdfrwt beam="2">  1       -2 0.23532336E+00 0.70819136E+03</pdfrwt>
<totfact> 0.48651051E+01</totfact>
</mgrwt>
</event>
<event>
 4    1  0.5069019E-005  0.1025364E+04  0.7818608E-02  0.9281156E-01
         -2   -1    0    0    0  501 -0.00000000000E+00  0.00000000000E+00  0.44618116995E+03  0.44618116996E+03  0.25500000000E-02 0.  1.
          2   -1    0    0  501    0  0.00000000000E+00 -0.00000000000E+00 -0.58909418284E+03  0.58909418285E+03  0.25500000000E-02 0. -1.
    5000001    1    1    2    0    0  0.21023855825E+03 -0.41799908551E+03 -0.51079428477E+01  0.50847868976E+03  0.19900000000E+03 0.  0.
   -5000001    1    1    2    0    0 -0.21023855825E+03  0.41799908551E+03 -0.13780507004E+03  0.52679666304E+03  0.19900000000E+03 0.  0.
<mgrwt>
<rscale>  0 0.10253638E+04</rscale>
<asrwt>0</asrwt>
<pdfrwt beam="1">  1        2 0.84156312E-01 0.10253638E+04</pdfrwt>
<pdfrwt beam="2">  1       -2 0.63740167E-01 0.10253638E+04</pdfrwt>
<totfact> 0.12599020E+02</totfact>
</mgrwt>
</event>
<event>
 4    1  0.5069019E-005  0.1017448E+04  0.7818608E-02  0.9289612E-01
         -2   -1    0    0    0  501 -0.00000000000E+00  0.00000000000E+00  0.16601439508E+03  0.16601439510E+03  0.25500000000E-02 0. -1.
          2   -1    0    0  501    0  0.00000000000E+00 -0.00000000000E+00 -0.15589028715E+04  0.15589028715E+04  0.25500000000E-02 0.  1.
    5000001    1    1    2    0    0 -0.31418952929E+03 -0.29873751109E+03 -0.99609298878E+03  0.11044280887E+04  0.19900000000E+03 0.  0.
   -5000001    1    1    2    0    0  0.31418952929E+03  0.29873751109E+03 -0.39679548761E+03  0.62048917786E+03  0.19900000000E+03 0.  0.
<mgrwt>
<rscale>  0 0.10174484E+04</rscale>
<asrwt>0</asrwt>
<pdfrwt beam="1">  1        2 0.22270040E+00 0.10174484E+04</pdfrwt>
<pdfrwt beam="2">  1       -2 0.23716343E-01 0.10174484E+04</pdfrwt>
<totfact> 0.21367637E+02</totfact>
</mgrwt>
</event>
<event>
 4    1  0.5069019E-005  0.7287239E+03  0.7818608E-02  0.9669333E-01
         -2   -1    0    0    0  501 -0.00000000000E+00  0.00000000000E+00  0.79854849824E+02  0.79854849865E+02  0.25500000000E-02 0. -1.
          2   -1    0    0  501    0  0.00000000000E+00 -0.00000000000E+00 -0.16625117002E+04  0.16625117002E+04  0.25500000000E-02 0.  1.
    5000001    1    1    2    0    0  0.59956403370E+02  0.28502629514E+03 -0.10094702723E+04  0.10693296919E+04  0.19900000000E+03 0.  0.
   -5000001    1    1    2    0    0 -0.59956403370E+02 -0.28502629514E+03 -0.57318657806E+03  0.67303685820E+03  0.19900000000E+03 0.  0.
<mgrwt>
<rscale>  0 0.72872388E+03</rscale>
<asrwt>0</asrwt>
<pdfrwt beam="1">  1        2 0.23750165E+00 0.72872388E+03</pdfrwt>
<pdfrwt beam="2">  1       -2 0.11407837E-01 0.72872388E+03</pdfrwt>
<totfact> 0.67295932E+02</totfact>
</mgrwt>
</event>
<event>
 4    1  0.5069019E-005  0.1206911E+04  0.7818608E-02  0.9106828E-01
          2   -1    0    0  501    0  0.00000000000E+00  0.00000000000E+00  0.12793103207E+04  0.12793103207E+04  0.25500000000E-02 0.  1.
         -2   -1    0    0    0  501 -0.00000000000E+00 -0.00000000000E+00 -0.28465242592E+03  0.28465242594E+03  0.25500000000E-02 0. -1.
    5000001    1    1    2    0    0 -0.47677111669E+03  0.30028351310E+03  0.60634050666E+03  0.85131116284E+03  0.19900000000E+03 0.  0.
   -5000001    1    1    2    0    0  0.47677111669E+03 -0.30028351310E+03  0.38831738807E+03  0.71265158376E+03  0.19900000000E+03 0.  0.
<mgrwt>
<rscale>  0 0.12069114E+04</rscale>
<asrwt>0</asrwt>
<pdfrwt beam="1">  1        2 0.18275861E+00 0.12069114E+04</pdfrwt>
<pdfrwt beam="2">  1       -2 0.40664633E-01 0.12069114E+04</pdfrwt>
<totfact> 0.10880161E+02</totfact>
</mgrwt>
</event>
<event>
 4    1  0.5069019E-005  0.5426865E+03  0.7818608E-02  0.1003201E+00
          2   -1    0    0  501    0  0.00000000000E+00  0.00000000000E+00  0.11127078874E+04  0.11127078874E+04  0.25500000000E-02 0.  1.
         -2   -1    0    0    0  501 -0.00000000000E+00 -0.00000000000E+00 -0.66169346193E+02  0.66169346242E+02  0.25500000000E-02 0. -1.
    5000001    1    1    2    0    0  0.17687034618E+03 -0.52358384255E+02  0.52049273395E+03  0.58697376931E+03  0.19900000000E+03 0.  0.
   -5000001    1    1    2    0    0 -0.17687034618E+03  0.52358384255E+02  0.52604580725E+03  0.59190346433E+03  0.19900000000E+03 0.  0.
<mgrwt>
<rscale>  0 0.54268648E+03</rscale>
<asrwt>0</asrwt>
<pdfrwt beam="1">  1        2 0.15895827E+00 0.54268648E+03</pdfrwt>
<pdfrwt beam="2">  1       -2 0.94527637E-02 0.54268648E+03</pdfrwt>
<totfact> 0.18163367E+03</totfact>
</mgrwt>
</event>
<event>
 4    1  0.5069019E-005  0.9380998E+03  0.7818608E-02  0.9379169E-01
          2   -1    0    0  501    0  0.00000000000E+00  0.00000000000E+00  0.10966973411E+04  0.10966973411E+04  0.25500000000E-02 0.  1.
         -2   -1    0    0    0  501 -0.00000000000E+00 -0.00000000000E+00 -0.20060943172E+03  0.20060943173E+03  0.25500000000E-02 0. -1.
    5000001    1    1    2    0    0 -0.38788257299E+03  0.16619969538E+03  0.38126790009E+03  0.60252920328E+03  0.19900000000E+03 0.  0.
   -5000001    1    1    2    0    0  0.38788257299E+03 -0.16619969538E+03  0.51482000927E+03  0.69477756952E+03  0.19900000000E+03 0.  0.
<mgrwt>
<rscale>  0 0.93809985E+03</rscale>
<asrwt>0</asrwt>
<pdfrwt beam="1">  1        2 0.15667105E+00 0.93809985E+03</pdfrwt>
<pdfrwt beam="2">  1       -2 0.28658490E-01 0.93809985E+03</pdfrwt>
<totfact> 0.27347613E+02</totfact>
</mgrwt>
</event>
<event>
 4    1  0.5069019E-005  0.8032404E+03  0.7818608E-02  0.9555339E-01
         -2   -1    0    0    0  501 -0.00000000000E+00  0.00000000000E+00  0.11702687942E+03  0.11702687945E+03  0.25500000000E-02 0. -1.
          2   -1    0    0  501    0  0.00000000000E+00 -0.00000000000E+00 -0.13783055678E+04  0.13783055678E+04  0.25500000000E-02 0.  1.
    5000001    1    1    2    0    0  0.24483708109E+03  0.69116393882E+02 -0.18627789886E+03  0.37285751674E+03  0.19900000000E+03 0.  0.
   -5000001    1    1    2    0    0 -0.24483708109E+03 -0.69116393882E+02 -0.10750007896E+04  0.11224749306E+04  0.19900000000E+03 0.  0.
<mgrwt>
<rscale>  0 0.80324044E+03</rscale>
<asrwt>0</asrwt>
<pdfrwt beam="1">  1        2 0.19690079E+00 0.80324044E+03</pdfrwt>
<pdfrwt beam="2">  1       -2 0.16718126E-01 0.80324044E+03</pdfrwt>
<totfact> 0.49782874E+02</totfact>
</mgrwt>
</event>
<event>
 4    1  0.5069019E-005  0.6490747E+03  0.7818608E-02  0.9808517E-01
         -2   -1    0    0    0  501 -0.00000000000E+00  0.00000000000E+00  0.61919189536E+02  0.61919189588E+02  0.25500000000E-02 0. -1.
          2   -1    0    0  501    0  0.00000000000E+00 -0.00000000000E+00 -0.17009992852E+04  0.17009992852E+04  0.25500000000E-02 0.  1.
    5000001    1    1    2    0    0 -0.23258163028E+03  0.61365157465E+02 -0.57868916627E+03  0.65752722259E+03  0.19900000000E+03 0.  0.
   -5000001    1    1    2    0    0  0.23258163028E+03 -0.61365157465E+02 -0.10603909294E+04  0.11053912522E+04  0.19900000000E+03 0.  0.
<mgrwt>
<rscale>  0 0.64907472E+03</rscale>
<asrwt>0</asrwt>
<pdfrwt beam="1">  1        2 0.24299987E+00 0.64907472E+03</pdfrwt>
<pdfrwt beam="2">  1       -2 0.88455996E-02 0.64907472E+03</pdfrwt>
<totfact> 0.97650512E+02</totfact>
</mgrwt>
</event>
<event>
 4    1  0.5069019E-005  0.4093875E+03  0.7818608E-02  0.1040577E+00
          2   -1    0    0  501    0  0.00000000000E+00  0.00000000000E+00  0.24904377315E+04  0.24904377315E+04  0.25500000000E-02 0.  1.
         -2   -1    0    0    0  501 -0.00000000000E+00 -0.00000000000E+00 -0.16824165191E+02  0.16824165385E+02  0.25500000000E-02 0. -1.
    5000001    1    1    2    0    0 -0.37024896293E+02  0.13441326703E+02  0.14041978686E+04  0.14187755870E+04  0.19900000000E+03 0.  0.
   -5000001    1    1    2    0    0  0.37024896293E+02 -0.13441326703E+02  0.10694156977E+04  0.10884863098E+04  0.19900000000E+03 0.  0.
<mgrwt>
<rscale>  0 0.40938752E+03</rscale>
<asrwt>0</asrwt>
<pdfrwt beam="1">  1        2 0.35577632E+00 0.40938752E+03</pdfrwt>
<pdfrwt beam="2">  1       -2 0.24034556E-02 0.40938752E+03</pdfrwt>
<totfact> 0.29640005E+03</totfact>
</mgrwt>
</event>
<event>
 4    1  0.5069019E-005  0.8390857E+03  0.7818608E-02  0.9505104E-01
         -2   -1    0    0    0  501 -0.00000000000E+00  0.00000000000E+00  0.26174306549E+03  0.26174306551E+03  0.25500000000E-02 0. -1.
          2   -1    0    0  501    0  0.00000000000E+00 -0.00000000000E+00 -0.67247711921E+03  0.67247711921E+03  0.25500000000E-02 0.  1.
    5000001    1    1    2    0    0 -0.24572305984E+03 -0.27354783028E+03 -0.16668636900E+03  0.45010396933E+03  0.19900000000E+03 0.  0.
   -5000001    1    1    2    0    0  0.24572305984E+03  0.27354783028E+03 -0.24404768471E+03  0.48411621539E+03  0.19900000000E+03 0.  0.
<mgrwt>
<rscale>  0 0.83908575E+03</rscale>
<asrwt>0</asrwt>
<pdfrwt beam="1">  1        2 0.96068159E-01 0.83908575E+03</pdfrwt>
<pdfrwt beam="2">  1       -2 0.37391867E-01 0.83908575E+03</pdfrwt>
<totfact> 0.31993217E+02</totfact>
</mgrwt>
</event>
<event>
 4    1  0.5069019E-005  0.5884130E+03  0.7818608E-02  0.9929741E-01
         -2   -1    0    0    0  501 -0.00000000000E+00  0.00000000000E+00  0.61781856772E+02  0.61781856824E+02  0.25500000000E-02 0. -1.
          2   -1    0    0  501    0  0.00000000000E+00 -0.00000000000E+00 -0.14010176021E+04  0.14010176021E+04  0.25500000000E-02 0.  1.
    5000001    1    1    2    0    0  0.20243369844E+03 -0.77270410285E+02 -0.67588256205E+03  0.73713523607E+03  0.19900000000E+03 0.  0.
   -5000001    1    1    2    0    0 -0.20243369844E+03  0.77270410285E+02 -0.66335318330E+03  0.72566422288E+03  0.19900000000E+03 0.  0.
<mgrwt>
<rscale>  0 0.58841301E+03</rscale>
<asrwt>0</asrwt>
<pdfrwt beam="1">  1        2 0.20014535E+00 0.58841301E+03</pdfrwt>
<pdfrwt beam="2">  1       -2 0.88259804E-02 0.58841301E+03</pdfrwt>
<totfact> 0.14055756E+03</totfact>
</mgrwt>
</event>
<event>
 4    1  0.5069019E-005  0.4459268E+03  0.7818608E-02  0.1028944E+00
          2   -1    0    0  501    0  0.00000000000E+00  0.00000000000E+00  0.90911811009E+03  0.90911811009E+03  0.25500000000E-02 0.  1.
         -2   -1    0    0    0  501 -0.00000000000E+00 -0.00000000000E+00 -0.54682298330E+02  0.54682298389E+02  0.25500000000E-02 0. -1.
    5000001    1    1    2    0    0  0.69815830485E+02  0.71588357359E+02  0.40429089661E+03  0.46157477420E+03  0.19900000000E+03 0.  0.
   -5000001    1    1    2    0    0 -0.69815830485E+02 -0.71588357359E+02  0.45014491515E+03  0.50222563428E+03  0.19900000000E+03 0.  0.
<mgrwt>
<rscale>  0 0.44592676E+03</rscale>
<asrwt>0</asrwt>
<pdfrwt beam="1">  1        2 0.12987402E+00 0.44592676E+03</pdfrwt>
<pdfrwt beam="2">  1       -2 0.78117569E-02 0.44592676E+03</pdfrwt>
<totfact> 0.32660391E+03</totfact>
</mgrwt>
</event>
<event>
 4    1  0.5069019E-005  0.6212003E+03  0.7818608E-02  0.9862373E-01
         -2   -1    0    0    0  501 -0.00000000000E+00  0.00000000000E+00  0.64899986671E+02  0.64899986721E+02  0.25500000000E-02 0. -1.
          2   -1    0    0  501    0  0.00000000000E+00 -0.00000000000E+00 -0.14864786297E+04  0.14864786297E+04  0.25500000000E-02 0.  1.
    5000001    1    1    2    0    0 -0.24504527533E+02 -0.15351167385E+03 -0.25914749448E+03  0.36183522462E+03  0.19900000000E+03 0.  0.
   -5000001    1    1    2    0    0  0.24504527533E+02  0.15351167385E+03 -0.11624311485E+04  0.11895433918E+04  0.19900000000E+03 0.  0.
<mgrwt>
<rscale>  0 0.62120027E+03</rscale>
<asrwt>0</asrwt>
<pdfrwt beam="1">  1        2 0.21235407E+00 0.62120027E+03</pdfrwt>
<pdfrwt beam="2">  1       -2 0.92714276E-02 0.62120027E+03</pdfrwt>
<totfact> 0.11693676E+03</totfact>
</mgrwt>
</event>
<event>
 4    1  0.5069019E-005  0.5069378E+03  0.7818608E-02  0.1011984E+00
          2   -1    0    0  501    0  0.00000000000E+00  0.00000000000E+00  0.32495251255E+03  0.32495251256E+03  0.25500000000E-02 0.  1.
         -2   -1    0    0    0  501 -0.00000000000E+00 -0.00000000000E+00 -0.19771036250E+03  0.19771036252E+03  0.25500000000E-02 0. -1.
    5000001    1    1    2    0    0  0.14438036170E+03  0.51152199578E+02  0.28155753048E+02  0.25269741351E+03  0.19900000000E+03 0.  0.
   -5000001    1    1    2    0    0 -0.14438036170E+03 -0.51152199578E+02  0.99086397006E+02  0.26996546157E+03  0.19900000000E+03 0.  0.
<mgrwt>
<rscale>  0 0.50693778E+03</rscale>
<asrwt>0</asrwt>
<pdfrwt beam="1">  1        2 0.46421788E-01 0.50693778E+03</pdfrwt>
<pdfrwt beam="2">  1       -2 0.28244337E-01 0.50693778E+03</pdfrwt>
<totfact> 0.12494656E+03</totfact>
</mgrwt>
</event>
<event>
 4    1  0.5069019E-005  0.5065317E+03  0.7818608E-02  0.1012088E+00
         -2   -1    0    0    0  501 -0.00000000000E+00  0.00000000000E+00  0.37476403082E+03  0.37476403083E+03  0.25500000000E-02 0. -1.
          2   -1    0    0  501    0  0.00000000000E+00 -0.00000000000E+00 -0.17115729152E+03  0.17115729154E+03  0.25500000000E-02 0.  1.
    5000001    1    1    2    0    0 -0.72256868232E+02 -0.12624942406E+03  0.16448644516E+03  0.29633893218E+03  0.19900000000E+03 0.  0.
   -5000001    1    1    2    0    0  0.72256868232E+02  0.12624942406E+03  0.39120294136E+02  0.24958239019E+03  0.19900000000E+03 0.  0.
<mgrwt>
<rscale>  0 0.50653172E+03</rscale>
<asrwt>0</asrwt>
<pdfrwt beam="1">  1        2 0.24451041E-01 0.50653172E+03</pdfrwt>
<pdfrwt beam="2">  1       -2 0.53537719E-01 0.50653172E+03</pdfrwt>
<totfact> 0.74300085E+02</totfact>
</mgrwt>
</event>
<event>
 4    1  0.5069019E-005  0.7344677E+03  0.7818608E-02  0.9660038E-01
         -2   -1    0    0    0  501 -0.00000000000E+00  0.00000000000E+00  0.14880741918E+03  0.14880741920E+03  0.25500000000E-02 0. -1.
          2   -1    0    0  501    0  0.00000000000E+00 -0.00000000000E+00 -0.90627675744E+03  0.90627675744E+03  0.25500000000E-02 0.  1.
    5000001    1    1    2    0    0 -0.27214031875E+03  0.72286847519E+02 -0.56029491016E+03  0.65788838549E+03  0.19900000000E+03 0.  0.
   -5000001    1    1    2    0    0  0.27214031875E+03 -0.72286847519E+02 -0.19717442810E+03  0.39719579115E+03  0.19900000000E+03 0.  0.
<mgrwt>
<rscale>  0 0.73446771E+03</rscale>
<asrwt>0</asrwt>
<pdfrwt beam="1">  1        2 0.12946811E+00 0.73446771E+03</pdfrwt>
<pdfrwt beam="2">  1       -2 0.21258203E-01 0.73446771E+03</pdfrwt>
<totfact> 0.61936267E+02</totfact>
</mgrwt>
</event>
<event>
 4    1  0.5069019E-005  0.7187904E+03  0.7818608E-02  0.9685627E-01
          2   -1    0    0  501    0  0.00000000000E+00  0.00000000000E+00  0.12757356831E+04  0.12757356831E+04  0.25500000000E-02 0. -1.
         -2   -1    0    0    0  501 -0.00000000000E+00 -0.00000000000E+00 -0.10124738049E+03  0.10124738052E+03  0.25500000000E-02 0.  1.
    5000001    1    1    2    0    0  0.21235263921E+03  0.27275263522E+02  0.18665629301E+03  0.34681285314E+03  0.19900000000E+03 0.  0.
   -5000001    1    1    2    0    0 -0.21235263921E+03 -0.27275263522E+02  0.98783200963E+03  0.10301702105E+04  0.19900000000E+03 0.  0.
<mgrwt>
<rscale>  0 0.71879036E+03</rscale>
<asrwt>0</asrwt>
<pdfrwt beam="1">  1        2 0.18224796E+00 0.71879036E+03</pdfrwt>
<pdfrwt beam="2">  1       -2 0.14463911E-01 0.71879036E+03</pdfrwt>
<totfact> 0.72671805E+02</totfact>
</mgrwt>
</event>
<event>
 4    1  0.5069019E-005  0.6959826E+03  0.7818608E-02  0.9724127E-01
          2   -1    0    0  501    0  0.00000000000E+00  0.00000000000E+00  0.11676031287E+04  0.11676031287E+04  0.25500000000E-02 0.  1.
         -2   -1    0    0    0  501 -0.00000000000E+00 -0.00000000000E+00 -0.10371499165E+03  0.10371499169E+03  0.25500000000E-02 0. -1.
    5000001    1    1    2    0    0 -0.27169450849E+03 -0.57216586592E+01  0.37221584206E+03  0.50199230711E+03  0.19900000000E+03 0.  0.
   -5000001    1    1    2    0    0  0.27169450849E+03  0.57216586592E+01  0.69167229497E+03  0.76932581326E+03  0.19900000000E+03 0.  0.
<mgrwt>
<rscale>  0 0.69598261E+03</rscale>
<asrwt>0</asrwt>
<pdfrwt beam="1">  1        2 0.16680044E+00 0.69598261E+03</pdfrwt>
<pdfrwt beam="2">  1       -2 0.14816428E-01 0.69598261E+03</pdfrwt>
<totfact> 0.80291988E+02</totfact>
</mgrwt>
</event>
<event>
 4    1  0.5069019E-005  0.5912246E+03  0.7818608E-02  0.9923781E-01
         -2   -1    0    0    0  501 -0.00000000000E+00  0.00000000000E+00  0.17516756610E+03  0.17516756612E+03  0.25500000000E-02 0. -1.
          2   -1    0    0  501    0  0.00000000000E+00 -0.00000000000E+00 -0.49887450746E+03  0.49887450746E+03  0.25500000000E-02 0.  1.
    5000001    1    1    2    0    0  0.94913039019E+02  0.18835717315E+03 -0.96373651481E+02  0.30557452504E+03  0.19900000000E+03 0.  0.
   -5000001    1    1    2    0    0 -0.94913039019E+02 -0.18835717315E+03 -0.22733328987E+03  0.36846754855E+03  0.19900000000E+03 0.  0.
<mgrwt>
<rscale>  0 0.59122460E+03</rscale>
<asrwt>0</asrwt>
<pdfrwt beam="1">  1        2 0.71267786E-01 0.59122460E+03</pdfrwt>
<pdfrwt beam="2">  1       -2 0.25023938E-01 0.59122460E+03</pdfrwt>
<totfact> 0.96531453E+02</totfact>
</mgrwt>
</event>
<event>
 4    1  0.5069019E-005  0.5345469E+03  0.7818608E-02  0.1005135E+00
         -2   -1    0    0    0  501 -0.00000000000E+00  0.00000000000E+00  0.15349985844E+03  0.15349985847E+03  0.25500000000E-02 0. -1.
          2   -1    0    0  501    0  0.00000000000E+00 -0.00000000000E+00 -0.46537571691E+03  0.46537571692E+03  0.25500000000E-02 0.  1.
    5000001    1    1    2    0    0  0.42808657735E+02  0.17319980852E+03 -0.15805755113E+03  0.31050594893E+03  0.19900000000E+03 0.  0.
   -5000001    1    1    2    0    0 -0.42808657735E+02 -0.17319980852E+03 -0.15381830733E+03  0.30836962645E+03  0.19900000000E+03 0.  0.
<mgrwt>
<rscale>  0 0.53454694E+03</rscale>
<asrwt>0</asrwt>
<pdfrwt beam="1">  1        2 0.66482245E-01 0.53454694E+03</pdfrwt>
<pdfrwt beam="2">  1       -2 0.21928551E-01 0.53454694E+03</pdfrwt>
<totfact> 0.13206803E+03</totfact>
</mgrwt>
</event>
<event>
 4    1  0.5069019E-005  0.1333594E+04  0.7818608E-02  0.9003341E-01
          2   -1    0    0  501    0  0.00000000000E+00  0.00000000000E+00  0.17421108849E+04  0.17421108849E+04  0.25500000000E-02 0.  1.
         -2   -1    0    0    0  501 -0.00000000000E+00 -0.00000000000E+00 -0.25521805631E+03  0.25521805632E+03  0.25500000000E-02 0. -1.
    5000001    1    1    2    0    0  0.14871714161E+03 -0.39520654456E+03  0.14565677074E+04  0.15295409400E+04  0.19900000000E+03 0.  0.
   -5000001    1    1    2    0    0 -0.14871714161E+03  0.39520654456E+03  0.30325121205E+02  0.46778800118E+03  0.19900000000E+03 0.  0.
<mgrwt>
<rscale>  0 0.13335939E+04</rscale>
<asrwt>0</asrwt>
<pdfrwt beam="1">  1        2 0.24887297E+00 0.13335939E+04</pdfrwt>
<pdfrwt beam="2">  1       -2 0.36459724E-01 0.13335939E+04</pdfrwt>
<totfact> 0.75546794E+01</totfact>
</mgrwt>
</event>
<event>
 4    1  0.5069019E-005  0.5034246E+03  0.7818608E-02  0.1012889E+00
          2   -1    0    0  501    0  0.00000000000E+00  0.00000000000E+00  0.74115141711E+03  0.74115141711E+03  0.25500000000E-02 0.  1.
         -2   -1    0    0    0  501 -0.00000000000E+00 -0.00000000000E+00 -0.85487364649E+02  0.85487364687E+02  0.25500000000E-02 0. -1.
    5000001    1    1    2    0    0 -0.10166657555E+03 -0.11572549338E+03  0.33676549991E+03  0.42040514308E+03  0.19900000000E+03 0.  0.
   -5000001    1    1    2    0    0  0.10166657555E+03  0.11572549338E+03  0.31889855255E+03  0.40623363871E+03  0.19900000000E+03 0.  0.
<mgrwt>
<rscale>  0 0.50342460E+03</rscale>
<asrwt>0</asrwt>
<pdfrwt beam="1">  1        2 0.10587877E+00 0.50342460E+03</pdfrwt>
<pdfrwt beam="2">  1       -2 0.12212481E-01 0.50342460E+03</pdfrwt>
<totfact> 0.20676101E+03</totfact>
</mgrwt>
</event>
<event>
 4    1  0.5069019E-005  0.5321123E+03  0.7818608E-02  0.1005721E+00
         -2   -1    0    0    0  501 -0.00000000000E+00  0.00000000000E+00  0.84328116393E+02  0.84328116432E+02  0.25500000000E-02 0. -1.
          2   -1    0    0  501    0  0.00000000000E+00 -0.00000000000E+00 -0.83941016790E+03  0.83941016790E+03  0.25500000000E-02 0.  1.
    5000001    1    1    2    0    0 -0.36458932498E+02  0.82050250149E+02 -0.64152119498E+03  0.67765178442E+03  0.19900000000E+03 0.  0.
   -5000001    1    1    2    0    0  0.36458932498E+02 -0.82050250149E+02 -0.11356085652E+03  0.24608649992E+03  0.19900000000E+03 0.  0.
<mgrwt>
<rscale>  0 0.53211231E+03</rscale>
<asrwt>0</asrwt>
<pdfrwt beam="1">  1        2 0.11991573E+00 0.53211231E+03</pdfrwt>
<pdfrwt beam="2">  1       -2 0.12046874E-01 0.53211231E+03</pdfrwt>
<totfact> 0.18063289E+03</totfact>
</mgrwt>
</event>
<event>
 4    1  0.5069019E-005  0.4605658E+03  0.7818608E-02  0.1024617E+00
         -2   -1    0    0    0  501 -0.00000000000E+00  0.00000000000E+00  0.57713796047E+02  0.57713796104E+02  0.25500000000E-02 0. -1.
          2   -1    0    0  501    0  0.00000000000E+00 -0.00000000000E+00 -0.91884807473E+03  0.91884807473E+03  0.25500000000E-02 0.  1.
    5000001    1    1    2    0    0 -0.21514940917E+02 -0.97572096430E+02 -0.55503750467E+03  0.59803916115E+03  0.19900000000E+03 0.  0.
   -5000001    1    1    2    0    0  0.21514940917E+02  0.97572096430E+02 -0.30609677401E+03  0.37852270968E+03  0.19900000000E+03 0.  0.
<mgrwt>
<rscale>  0 0.46056578E+03</rscale>
<asrwt>0</asrwt>
<pdfrwt beam="1">  1        2 0.13126400E+00 0.46056578E+03</pdfrwt>
<pdfrwt beam="2">  1       -2 0.82448286E-02 0.46056578E+03</pdfrwt>
<totfact> 0.29569393E+03</totfact>
</mgrwt>
</event>
<event>
 4    1  0.5069019E-005  0.9485059E+03  0.7818608E-02  0.9366899E-01
          2   -1    0    0  501    0  0.00000000000E+00  0.00000000000E+00  0.64475459120E+03  0.64475459120E+03  0.25500000000E-02 0.  1.
         -2   -1    0    0    0  501 -0.00000000000E+00 -0.00000000000E+00 -0.34883947104E+03  0.34883947105E+03  0.25500000000E-02 0. -1.
    5000001    1    1    2    0    0  0.10485334529E+03 -0.76947689495E+02 -0.28191486848E+03  0.36877115398E+03  0.19900000000E+03 0.  0.
   -5000001    1    1    2    0    0 -0.10485334529E+03  0.76947689495E+02  0.57782998864E+03  0.62482290827E+03  0.19900000000E+03 0.  0.
<mgrwt>
<rscale>  0 0.94850588E+03</rscale>
<asrwt>0</asrwt>
<pdfrwt beam="1">  1        2 0.92107799E-01 0.94850588E+03</pdfrwt>
<pdfrwt beam="2">  1       -2 0.49834210E-01 0.94850588E+03</pdfrwt>
<totfact> 0.18975740E+02</totfact>
</mgrwt>
</event>
<event>
 4    1  0.5069019E-005  0.4744856E+03  0.7818608E-02  0.1020662E+00
          2   -1    0    0  501    0  0.00000000000E+00  0.00000000000E+00  0.19804708064E+04  0.19804708064E+04  0.25500000000E-02 0.  1.
         -2   -1    0    0    0  501 -0.00000000000E+00 -0.00000000000E+00 -0.28419584204E+02  0.28419584319E+02  0.25500000000E-02 0. -1.
    5000001    1    1    2    0    0  0.53229620344E+02 -0.10917155555E+03  0.11620894914E+04  0.11852446191E+04  0.19900000000E+03 0.  0.
   -5000001    1    1    2    0    0 -0.53229620344E+02  0.10917155555E+03  0.78996173074E+03  0.82364577159E+03  0.19900000000E+03 0.  0.
<mgrwt>
<rscale>  0 0.47448565E+03</rscale>
<asrwt>0</asrwt>
<pdfrwt beam="1">  1        2 0.28292446E+00 0.47448565E+03</pdfrwt>
<pdfrwt beam="2">  1       -2 0.40599398E-02 0.47448565E+03</pdfrwt>
<totfact> 0.24077029E+03</totfact>
</mgrwt>
</event>
<event>
 4    1  0.5069019E-005  0.1206237E+04  0.7818608E-02  0.9107415E-01
          2   -1    0    0  501    0  0.00000000000E+00  0.00000000000E+00  0.19602049362E+04  0.19602049362E+04  0.25500000000E-02 0.  1.
         -2   -1    0    0    0  501 -0.00000000000E+00 -0.00000000000E+00 -0.18556822044E+03  0.18556822046E+03  0.25500000000E-02 0. -1.
    5000001    1    1    2    0    0 -0.14795872738E+03  0.33018675077E+03  0.10533967138E+03  0.42616020668E+03  0.19900000000E+03 0.  0.
   -5000001    1    1    2    0    0  0.14795872738E+03 -0.33018675077E+03  0.16692970443E+04  0.17196129500E+04  0.19900000000E+03 0.  0.
<mgrwt>
<rscale>  0 0.12062367E+04</rscale>
<asrwt>0</asrwt>
<pdfrwt beam="1">  1        2 0.28002930E+00 0.12062367E+04</pdfrwt>
<pdfrwt beam="2">  1       -2 0.26509744E-01 0.12062367E+04</pdfrwt>
<totfact> 0.10698331E+02</totfact>
</mgrwt>
</event>
<event>
 4    1  0.5069019E-005  0.4912760E+03  0.7818608E-02  0.1016081E+00
          2   -1    0    0  501    0  0.00000000000E+00  0.00000000000E+00  0.22271395387E+04  0.22271395387E+04  0.25500000000E-02 0.  1.
         -2   -1    0    0    0  501 -0.00000000000E+00 -0.00000000000E+00 -0.27092160790E+02  0.27092160910E+02  0.25500000000E-02 0. -1.
    5000001    1    1    2    0    0  0.76951795018E+02  0.98951359825E+02  0.77478593107E+03  0.80969573876E+03  0.19900000000E+03 0.  0.
   -5000001    1    1    2    0    0 -0.76951795018E+02 -0.98951359825E+02  0.14252614468E+04  0.14445359609E+04  0.19900000000E+03 0.  0.
<mgrwt>
<rscale>  0 0.49127598E+03</rscale>
<asrwt>0</asrwt>
<pdfrwt beam="1">  1        2 0.31816293E+00 0.49127598E+03</pdfrwt>
<pdfrwt beam="2">  1       -2 0.38703070E-02 0.49127598E+03</pdfrwt>
<totfact> 0.19496076E+03</totfact>
</mgrwt>
</event>
<event>
 4    1  0.5069019E-005  0.7322787E+03  0.7818608E-02  0.9663570E-01
          2   -1    0    0  501    0  0.00000000000E+00  0.00000000000E+00  0.20099504701E+04  0.20099504701E+04  0.25500000000E-02 0. -1.
         -2   -1    0    0    0  501 -0.00000000000E+00 -0.00000000000E+00 -0.66697172821E+02  0.66697172870E+02  0.25500000000E-02 0.  1.
    5000001    1    1    2    0    0  0.21810644076E+03  0.16794793044E+03  0.58403369283E+03  0.67562806425E+03  0.19900000000E+03 0.  0.
   -5000001    1    1    2    0    0 -0.21810644076E+03 -0.16794793044E+03  0.13592196044E+04  0.14010195787E+04  0.19900000000E+03 0.  0.
<mgrwt>
<rscale>  0 0.73227867E+03</rscale>
<asrwt>0</asrwt>
<pdfrwt beam="1">  1        2 0.28713578E+00 0.73227867E+03</pdfrwt>
<pdfrwt beam="2">  1       -2 0.95281676E-02 0.73227867E+03</pdfrwt>
<totfact> 0.60116824E+02</totfact>
</mgrwt>
</event>
<event>
 4    1  0.5069019E-005  0.5397495E+03  0.7818608E-02  0.1003895E+00
         -2   -1    0    0    0  501 -0.00000000000E+00  0.00000000000E+00  0.43719396091E+02  0.43719396165E+02  0.25500000000E-02 0. -1.
          2   -1    0    0  501    0  0.00000000000E+00 -0.00000000000E+00 -0.16659052375E+04  0.16659052375E+04  0.25500000000E-02 0.  1.
    5000001    1    1    2    0    0 -0.93360804721E+02 -0.54969592125E+01 -0.31546262657E+03  0.38453104580E+03  0.19900000000E+03 0.  0.
   -5000001    1    1    2    0    0  0.93360804721E+02  0.54969592125E+01 -0.13067232149E+04  0.13250935879E+04  0.19900000000E+03 0.  0.
<mgrwt>
<rscale>  0 0.53974946E+03</rscale>
<asrwt>0</asrwt>
<pdfrwt beam="1">  1        2 0.23798642E+00 0.53974946E+03</pdfrwt>
<pdfrwt beam="2">  1       -2 0.62456291E-02 0.53974946E+03</pdfrwt>
<totfact> 0.17752586E+03</totfact>
</mgrwt>
</event>
<event>
 4    1  0.5069019E-005  0.6100693E+03  0.7818608E-02  0.9884733E-01
         -2   -1    0    0    0  501 -0.00000000000E+00  0.00000000000E+00  0.75126649895E+02  0.75126649938E+02  0.25500000000E-02 0. -1.
          2   -1    0    0  501    0  0.00000000000E+00 -0.00000000000E+00 -0.12385237327E+04  0.12385237327E+04  0.25500000000E-02 0.  1.
    5000001    1    1    2    0    0 -0.10900672869E+03  0.13611384892E+03 -0.25488408752E+03  0.36739126941E+03  0.19900000000E+03 0.  0.
   -5000001    1    1    2    0    0  0.10900672869E+03 -0.13611384892E+03 -0.90851299533E+03  0.94625911327E+03  0.19900000000E+03 0.  0.
<mgrwt>
<rscale>  0 0.61006930E+03</rscale>
<asrwt>0</asrwt>
<pdfrwt beam="1">  1        2 0.17693195E+00 0.61006930E+03</pdfrwt>
<pdfrwt beam="2">  1       -2 0.10732379E-01 0.61006930E+03</pdfrwt>
<totfact> 0.12536379E+03</totfact>
</mgrwt>
</event>
<event>
 4    1  0.5069019E-005  0.7542762E+03  0.7818608E-02  0.9628665E-01
         -2   -1    0    0    0  501 -0.00000000000E+00  0.00000000000E+00  0.12348942269E+04  0.12348942269E+04  0.25500000000E-02 0. -1.
          2   -1    0    0  501    0  0.00000000000E+00 -0.00000000000E+00 -0.11517840965E+03  0.11517840968E+03  0.25500000000E-02 0.  1.
    5000001    1    1    2    0    0 -0.12700285608E+03 -0.14428286528E+03  0.10112548871E+03  0.29457534712E+03  0.19900000000E+03 0.  0.
   -5000001    1    1    2    0    0  0.12700285608E+03  0.14428286528E+03  0.10185903285E+04  0.10554972894E+04  0.19900000000E+03 0.  0.
<mgrwt>
<rscale>  0 0.75427622E+03</rscale>
<asrwt>0</asrwt>
<pdfrwt beam="1">  1        2 0.16454058E-01 0.75427622E+03</pdfrwt>
<pdfrwt beam="2">  1       -2 0.17641346E+00 0.75427622E+03</pdfrwt>
<totfact> 0.69800175E+01</totfact>
</mgrwt>
</event>
<event>
 4    1  0.5069019E-005  0.8378767E+03  0.7818608E-02  0.9506754E-01
         -2   -1    0    0    0  501 -0.00000000000E+00  0.00000000000E+00  0.15219132357E+03  0.15219132359E+03  0.25500000000E-02 0. -1.
          2   -1    0    0  501    0  0.00000000000E+00 -0.00000000000E+00 -0.11532150517E+04  0.11532150517E+04  0.25500000000E-02 0.  1.
    5000001    1    1    2    0    0 -0.10539534240E+03  0.21623218021E+03 -0.93575789018E+03  0.98646255022E+03  0.19900000000E+03 0.  0.
   -5000001    1    1    2    0    0  0.10539534240E+03 -0.21623218021E+03 -0.65265837971E+02  0.31894382509E+03  0.19900000000E+03 0.  0.
<mgrwt>
<rscale>  0 0.83787666E+03</rscale>
<asrwt>0</asrwt>
<pdfrwt beam="1">  1        2 0.16474500E+00 0.83787666E+03</pdfrwt>
<pdfrwt beam="2">  1       -2 0.21741618E-01 0.83787666E+03</pdfrwt>
<totfact> 0.41958518E+02</totfact>
</mgrwt>
</event>
<event>
 4    1  0.5069019E-005  0.4877034E+03  0.7818608E-02  0.1017039E+00
          2   -1    0    0  501    0  0.00000000000E+00  0.00000000000E+00  0.35464160673E+03  0.35464160674E+03  0.25500000000E-02 0.  1.
         -2   -1    0    0    0  501 -0.00000000000E+00 -0.00000000000E+00 -0.16767250380E+03  0.16767250381E+03  0.25500000000E-02 0. -1.
    5000001    1    1    2    0    0  0.96240054834E+02 -0.97373457030E+02  0.57660627099E+02  0.24833341742E+03  0.19900000000E+03 0.  0.
   -5000001    1    1    2    0    0 -0.96240054834E+02  0.97373457030E+02  0.12930847583E+03  0.27398069314E+03  0.19900000000E+03 0.  0.
<mgrwt>
<rscale>  0 0.48770338E+03</rscale>
<asrwt>0</asrwt>
<pdfrwt beam="1">  1        2 0.50663087E-01 0.48770338E+03</pdfrwt>
<pdfrwt beam="2">  1       -2 0.23953215E-01 0.48770338E+03</pdfrwt>
<totfact> 0.15266620E+03</totfact>
</mgrwt>
</event>
<event>
 4    1  0.5069019E-005  0.6203695E+03  0.7818608E-02  0.9864024E-01
          2   -1    0    0  501    0  0.00000000000E+00  0.00000000000E+00  0.12571349485E+04  0.12571349485E+04  0.25500000000E-02 0.  1.
         -2   -1    0    0    0  501 -0.00000000000E+00 -0.00000000000E+00 -0.76534809665E+02  0.76534809708E+02  0.25500000000E-02 0. -1.
    5000001    1    1    2    0    0  0.16436147743E+03  0.16548830848E+03  0.48917930796E+03  0.57732007660E+03  0.19900000000E+03 0.  0.
   -5000001    1    1    2    0    0 -0.16436147743E+03 -0.16548830848E+03  0.69142083086E+03  0.75634968160E+03  0.19900000000E+03 0.  0.
<mgrwt>
<rscale>  0 0.62036952E+03</rscale>
<asrwt>0</asrwt>
<pdfrwt beam="1">  1        2 0.17959071E+00 0.62036952E+03</pdfrwt>
<pdfrwt beam="2">  1       -2 0.10933544E-01 0.62036952E+03</pdfrwt>
<totfact> 0.11873810E+03</totfact>
</mgrwt>
</event>
<event>
 4    1  0.5069019E-005  0.5219856E+03  0.7818608E-02  0.1008194E+00
          2   -1    0    0  501    0  0.00000000000E+00  0.00000000000E+00  0.35073826244E+04  0.35073826244E+04  0.25500000000E-02 0.  1.
         -2   -1    0    0    0  501 -0.00000000000E+00 -0.00000000000E+00 -0.19421106653E+02  0.19421106820E+02  0.25500000000E-02 0. -1.
    5000001    1    1    2    0    0  0.28623240988E+02 -0.15903335091E+03  0.14126113687E+04  0.14356819897E+04  0.19900000000E+03 0.  0.
   -5000001    1    1    2    0    0 -0.28623240988E+02  0.15903335091E+03  0.20753501490E+04  0.20911217415E+04  0.19900000000E+03 0.  0.
<mgrwt>
<rscale>  0 0.52198564E+03</rscale>
<asrwt>0</asrwt>
<pdfrwt beam="1">  1        2 0.50105536E+00 0.52198564E+03</pdfrwt>
<pdfrwt beam="2">  1       -2 0.27744399E-02 0.52198564E+03</pdfrwt>
<totfact> 0.66353691E+02</totfact>
</mgrwt>
</event>
<event>
 4    1  0.5069019E-005  0.6516388E+03  0.7818608E-02  0.9803709E-01
         -2   -1    0    0    0  501 -0.00000000000E+00  0.00000000000E+00  0.62204357253E+02  0.62204357305E+02  0.25500000000E-02 0. -1.
          2   -1    0    0  501    0  0.00000000000E+00 -0.00000000000E+00 -0.17066050987E+04  0.17066050987E+04  0.25500000000E-02 0.  1.
    5000001    1    1    2    0    0  0.34011131533E+02  0.22118660411E+03 -0.47377222071E+03  0.56048317372E+03  0.19900000000E+03 0.  0.
   -5000001    1    1    2    0    0 -0.34011131533E+02 -0.22118660411E+03 -0.11706285208E+04  0.12083262823E+04  0.19900000000E+03 0.  0.
<mgrwt>
<rscale>  0 0.65163878E+03</rscale>
<asrwt>0</asrwt>
<pdfrwt beam="1">  1        2 0.24380070E+00 0.65163878E+03</pdfrwt>
<pdfrwt beam="2">  1       -2 0.88863378E-02 0.65163878E+03</pdfrwt>
<totfact> 0.96283882E+02</totfact>
</mgrwt>
</event>
<event>
 4    1  0.5069019E-005  0.7315117E+03  0.7818608E-02  0.9664811E-01
         -2   -1    0    0    0  501 -0.00000000000E+00  0.00000000000E+00  0.55567032014E+02  0.55567032073E+02  0.25500000000E-02 0. -1.
          2   -1    0    0  501    0  0.00000000000E+00 -0.00000000000E+00 -0.24074945683E+04  0.24074945683E+04  0.25500000000E-02 0.  1.
    5000001    1    1    2    0    0  0.16016651463E+03 -0.24652599771E+03 -0.14723427246E+04  0.15145370509E+04  0.19900000000E+03 0.  0.
   -5000001    1    1    2    0    0 -0.16016651463E+03  0.24652599771E+03 -0.87958481173E+03  0.94852454949E+03  0.19900000000E+03 0.  0.
<mgrwt>
<rscale>  0 0.73151166E+03</rscale>
<asrwt>0</asrwt>
<pdfrwt beam="1">  1        2 0.34392773E+00 0.73151166E+03</pdfrwt>
<pdfrwt beam="2">  1       -2 0.79381489E-02 0.73151166E+03</pdfrwt>
<totfact> 0.50672584E+02</totfact>
</mgrwt>
</event>
<event>
 4    1  0.5069019E-005  0.5281632E+03  0.7818608E-02  0.1006679E+00
         -2   -1    0    0    0  501 -0.00000000000E+00  0.00000000000E+00  0.16864783761E+03  0.16864783763E+03  0.25500000000E-02 0. -1.
          2   -1    0    0  501    0  0.00000000000E+00 -0.00000000000E+00 -0.41351896786E+03  0.41351896787E+03  0.25500000000E-02 0.  1.
    5000001    1    1    2    0    0 -0.25670229857E+02  0.17020645876E+03 -0.14730049381E+03  0.30154209454E+03  0.19900000000E+03 0.  0.
   -5000001    1    1    2    0    0  0.25670229857E+02 -0.17020645876E+03 -0.97570636439E+02  0.28062471096E+03  0.19900000000E+03 0.  0.
<mgrwt>
<rscale>  0 0.52816316E+03</rscale>
<asrwt>0</asrwt>
<pdfrwt beam="1">  1        2 0.59074138E-01 0.52816316E+03</pdfrwt>
<pdfrwt beam="2">  1       -2 0.24092548E-01 0.52816316E+03</pdfrwt>
<totfact> 0.12755614E+03</totfact>
</mgrwt>
</event>
<event>
 4    1  0.5069019E-005  0.1016700E+04  0.7818608E-02  0.9290416E-01
          2   -1    0    0  501    0  0.00000000000E+00  0.00000000000E+00  0.21740675581E+04  0.21740675581E+04  0.25500000000E-02 0.  1.
         -2   -1    0    0    0  501 -0.00000000000E+00 -0.00000000000E+00 -0.11886464025E+03  0.11886464027E+03  0.25500000000E-02 0. -1.
    5000001    1    1    2    0    0  0.26734924172E+03  0.38376090562E+03  0.10465656384E+04  0.11634640885E+04  0.19900000000E+03 0.  0.
   -5000001    1    1    2    0    0 -0.26734924172E+03 -0.38376090562E+03  0.10086372794E+04  0.11294681098E+04  0.19900000000E+03 0.  0.
<mgrwt>
<rscale>  0 0.10167001E+04</rscale>
<asrwt>0</asrwt>
<pdfrwt beam="1">  1        2 0.31058110E+00 0.10167001E+04</pdfrwt>
<pdfrwt beam="2">  1       -2 0.16980662E-01 0.10167001E+04</pdfrwt>
<totfact> 0.18558304E+02</totfact>
</mgrwt>
</event>
<event>
 4    1  0.5069019E-005  0.4624327E+03  0.7818608E-02  0.1024078E+00
          2   -1    0    0  501    0  0.00000000000E+00  0.00000000000E+00  0.22805491251E+04  0.22805491251E+04  0.25500000000E-02 0.  1.
         -2   -1    0    0    0  501 -0.00000000000E+00 -0.00000000000E+00 -0.23442156499E+02  0.23442156638E+02  0.25500000000E-02 0. -1.
    5000001    1    1    2    0    0  0.81002903662E+02  0.69987711350E+02  0.13726489034E+04  0.13911239205E+04  0.19900000000E+03 0.  0.
   -5000001    1    1    2    0    0 -0.81002903662E+02 -0.69987711350E+02  0.88445806517E+03  0.91286736122E+03  0.19900000000E+03 0.  0.
<mgrwt>
<rscale>  0 0.46243265E+03</rscale>
<asrwt>0</asrwt>
<pdfrwt beam="1">  1        2 0.32579247E+00 0.46243265E+03</pdfrwt>
<pdfrwt beam="2">  1       -2 0.33488822E-02 0.46243265E+03</pdfrwt>
<totfact> 0.22880147E+03</totfact>
</mgrwt>
</event>
<event>
 4    1  0.5069019E-005  0.7642070E+03  0.7818608E-02  0.9613322E-01
         -2   -1    0    0    0  501 -0.00000000000E+00  0.00000000000E+00  0.16106359590E+03  0.16106359592E+03  0.25500000000E-02 0. -1.
          2   -1    0    0  501    0  0.00000000000E+00 -0.00000000000E+00 -0.90649339381E+03  0.90649339381E+03  0.25500000000E-02 0.  1.
    5000001    1    1    2    0    0 -0.15887241124E+02 -0.25073190963E+03 -0.66334439564E+03  0.73671275418E+03  0.19900000000E+03 0.  0.
   -5000001    1    1    2    0    0  0.15887241124E+02  0.25073190963E+03 -0.82085402268E+02  0.33084423556E+03  0.19900000000E+03 0.  0.
<mgrwt>
<rscale>  0 0.76420700E+03</rscale>
<asrwt>0</asrwt>
<pdfrwt beam="1">  1        2 0.12949905E+00 0.76420700E+03</pdfrwt>
<pdfrwt beam="2">  1       -2 0.23009086E-01 0.76420700E+03</pdfrwt>
<totfact> 0.53757859E+02</totfact>
</mgrwt>
</event>
<event>
 4    1  0.5069019E-005  0.4947270E+03  0.7818608E-02  0.1015164E+00
         -2   -1    0    0    0  501 -0.00000000000E+00  0.00000000000E+00  0.45294422051E+02  0.45294422123E+02  0.25500000000E-02 0. -1.
          2   -1    0    0  501    0  0.00000000000E+00 -0.00000000000E+00 -0.13509105081E+04  0.13509105081E+04  0.25500000000E-02 0.  1.
    5000001    1    1    2    0    0 -0.24742632705E+01 -0.12377360599E+03 -0.87612878763E+03  0.90693366904E+03  0.19900000000E+03 0.  0.
   -5000001    1    1    2    0    0  0.24742632705E+01  0.12377360599E+03 -0.42948729837E+03  0.48927126114E+03  0.19900000000E+03 0.  0.
<mgrwt>
<rscale>  0 0.49472704E+03</rscale>
<asrwt>0</asrwt>
<pdfrwt beam="1">  1        2 0.19298719E+00 0.49472704E+03</pdfrwt>
<pdfrwt beam="2">  1       -2 0.64706326E-02 0.49472704E+03</pdfrwt>
<totfact> 0.24493021E+03</totfact>
</mgrwt>
</event>
<event>
 4    1  0.5069019E-005  0.6979187E+03  0.7818608E-02  0.9720798E-01
         -2   -1    0    0    0  501 -0.00000000000E+00  0.00000000000E+00  0.14833205284E+03  0.14833205287E+03  0.25500000000E-02 0. -1.
          2   -1    0    0  501    0  0.00000000000E+00 -0.00000000000E+00 -0.82094617153E+03  0.82094617153E+03  0.25500000000E-02 0.  1.
    5000001    1    1    2    0    0  0.15999265425E+03 -0.21542255401E+03 -0.19627023155E+03  0.38746294014E+03  0.19900000000E+03 0.  0.
   -5000001    1    1    2    0    0 -0.15999265425E+03  0.21542255401E+03 -0.47634388713E+03  0.58181528426E+03  0.19900000000E+03 0.  0.
<mgrwt>
<rscale>  0 0.69791871E+03</rscale>
<asrwt>0</asrwt>
<pdfrwt beam="1">  1        2 0.11727802E+00 0.69791871E+03</pdfrwt>
<pdfrwt beam="2">  1       -2 0.21190294E-01 0.69791871E+03</pdfrwt>
<totfact> 0.71071554E+02</totfact>
</mgrwt>
</event>
<event>
 4    1  0.5069019E-005  0.7708005E+03  0.7818608E-02  0.9603271E-01
          2   -1    0    0  501    0  0.00000000000E+00  0.00000000000E+00  0.29937513885E+03  0.29937513886E+03  0.25500000000E-02 0.  1.
         -2   -1    0    0    0  501 -0.00000000000E+00 -0.00000000000E+00 -0.49614464398E+03  0.49614464398E+03  0.25500000000E-02 0. -1.
    5000001    1    1    2    0    0 -0.12784291810E+03 -0.27677395334E+03 -0.22887009803E+03  0.43003506221E+03  0.19900000000E+03 0.  0.
   -5000001    1    1    2    0    0  0.12784291810E+03  0.27677395334E+03  0.32100592899E+02  0.36548472064E+03  0.19900000000E+03 0.  0.
<mgrwt>
<rscale>  0 0.77080055E+03</rscale>
<asrwt>0</asrwt>
<pdfrwt beam="1">  1        2 0.42767877E-01 0.77080055E+03</pdfrwt>
<pdfrwt beam="2">  1       -2 0.70877806E-01 0.77080055E+03</pdfrwt>
<totfact> 0.21796747E+02</totfact>
</mgrwt>
</event>
<event>
 4    1  0.5069019E-005  0.7417850E+03  0.7818608E-02  0.9648327E-01
          2   -1    0    0  501    0  0.00000000000E+00  0.00000000000E+00  0.81511301162E+03  0.81511301162E+03  0.25500000000E-02 0.  1.
         -2   -1    0    0    0  501 -0.00000000000E+00 -0.00000000000E+00 -0.16876341442E+03  0.16876341444E+03  0.25500000000E-02 0. -1.
    5000001    1    1    2    0    0 -0.28782018059E+03 -0.36420717012E+02  0.47894954684E+03  0.59427316396E+03  0.19900000000E+03 0.  0.
   -5000001    1    1    2    0    0  0.28782018059E+03  0.36420717012E+02  0.16740005036E+03  0.38960326211E+03  0.19900000000E+03 0.  0.
<mgrwt>
<rscale>  0 0.74178502E+03</rscale>
<asrwt>0</asrwt>
<pdfrwt beam="1">  1        2 0.11644472E+00 0.74178502E+03</pdfrwt>
<pdfrwt beam="2">  1       -2 0.24109059E-01 0.74178502E+03</pdfrwt>
<totfact> 0.56961599E+02</totfact>
</mgrwt>
</event>
<event>
 4    1  0.5069019E-005  0.5132786E+03  0.7818608E-02  0.1010370E+00
         -2   -1    0    0    0  501 -0.00000000000E+00  0.00000000000E+00  0.47595547456E+02  0.47595547525E+02  0.25500000000E-02 0. -1.
          2   -1    0    0  501    0  0.00000000000E+00 -0.00000000000E+00 -0.13838210420E+04  0.13838210420E+04  0.25500000000E-02 0.  1.
    5000001    1    1    2    0    0  0.13174610419E+03 -0.31779247201E+02 -0.91591770482E+03  0.94703389513E+03  0.19900000000E+03 0.  0.
   -5000001    1    1    2    0    0 -0.13174610419E+03  0.31779247201E+02 -0.42030778968E+03  0.48438269436E+03  0.19900000000E+03 0.  0.
<mgrwt>
<rscale>  0 0.51327856E+03</rscale>
<asrwt>0</asrwt>
<pdfrwt beam="1">  1        2 0.19768870E+00 0.51327856E+03</pdfrwt>
<pdfrwt beam="2">  1       -2 0.67993648E-02 0.51327856E+03</pdfrwt>
<totfact> 0.21760040E+03</totfact>
</mgrwt>
</event>
<event>
 4    1  0.5069019E-005  0.4107949E+03  0.7818608E-02  0.1040105E+00
         -2   -1    0    0    0  501 -0.00000000000E+00  0.00000000000E+00  0.77715006487E+02  0.77715006529E+02  0.25500000000E-02 0. -1.
          2   -1    0    0  501    0  0.00000000000E+00 -0.00000000000E+00 -0.54285678468E+03  0.54285678469E+03  0.25500000000E-02 0.  1.
    5000001    1    1    2    0    0  0.38686641725E+02 -0.32959222819E+02 -0.23564905873E+03  0.31259309892E+03  0.19900000000E+03 0.  0.
   -5000001    1    1    2    0    0 -0.38686641725E+02  0.32959222819E+02 -0.22949271947E+03  0.30797869229E+03  0.19900000000E+03 0.  0.
<mgrwt>
<rscale>  0 0.41079493E+03</rscale>
<asrwt>0</asrwt>
<pdfrwt beam="1">  1        2 0.77550967E-01 0.41079493E+03</pdfrwt>
<pdfrwt beam="2">  1       -2 0.11102144E-01 0.41079493E+03</pdfrwt>
<totfact> 0.34843496E+03</totfact>
</mgrwt>
</event>
<event>
 4    1  0.5069019E-005  0.7155516E+03  0.7818608E-02  0.9691000E-01
          2   -1    0    0  501    0  0.00000000000E+00  0.00000000000E+00  0.39924028753E+03  0.39924028754E+03  0.25500000000E-02 0.  1.
         -2   -1    0    0    0  501 -0.00000000000E+00 -0.00000000000E+00 -0.32061774507E+03  0.32061774508E+03  0.25500000000E-02 0. -1.
    5000001    1    1    2    0    0 -0.13007561613E+03  0.15114063654E+03 -0.18255937095E+03  0.33569641322E+03  0.19900000000E+03 0.  0.
   -5000001    1    1    2    0    0  0.13007561613E+03 -0.15114063654E+03  0.26118191341E+03  0.38416161940E+03  0.19900000000E+03 0.  0.
<mgrwt>
<rscale>  0 0.71555159E+03</rscale>
<asrwt>0</asrwt>
<pdfrwt beam="1">  1        2 0.57034327E-01 0.71555159E+03</pdfrwt>
<pdfrwt beam="2">  1       -2 0.45802535E-01 0.71555159E+03</pdfrwt>
<totfact> 0.39463962E+02</totfact>
</mgrwt>
</event>
<event>
 4    1  0.5069019E-005  0.1122346E+04  0.7818608E-02  0.9183682E-01
         -2   -1    0    0    0  501 -0.00000000000E+00  0.00000000000E+00  0.14623288336E+03  0.14623288338E+03  0.25500000000E-02 0. -1.
          2   -1    0    0  501    0  0.00000000000E+00 -0.00000000000E+00 -0.21535174023E+04  0.21535174023E+04  0.25500000000E-02 0.  1.
    5000001    1    1    2    0    0  0.51115251457E+03 -0.79468383178E+02 -0.11837022573E+04  0.13070364001E+04  0.19900000000E+03 0.  0.
   -5000001    1    1    2    0    0 -0.51115251457E+03  0.79468383178E+02 -0.82358226161E+03  0.99271388563E+03  0.19900000000E+03 0.  0.
<mgrwt>
<rscale>  0 0.11223459E+04</rscale>
<asrwt>0</asrwt>
<pdfrwt beam="1">  1        2 0.30764532E+00 0.11223459E+04</pdfrwt>
<pdfrwt beam="2">  1       -2 0.20890413E-01 0.11223459E+04</pdfrwt>
<totfact> 0.13146152E+02</totfact>
</mgrwt>
</event>
<event>
 4    1  0.5069019E-005  0.8230674E+03  0.7818608E-02  0.9527215E-01
          2   -1    0    0  501    0  0.00000000000E+00  0.00000000000E+00  0.17196174636E+03  0.17196174638E+03  0.25500000000E-02 0.  1.
         -2   -1    0    0    0  501 -0.00000000000E+00 -0.00000000000E+00 -0.98487021707E+03  0.98487021707E+03  0.25500000000E-02 0. -1.
    5000001    1    1    2    0    0 -0.25953983149E+03  0.53496957463E+02 -0.74939984388E+03  0.81940464643E+03  0.19900000000E+03 0.  0.
   -5000001    1    1    2    0    0  0.25953983149E+03 -0.53496957463E+02 -0.63508626827E+02  0.33742731702E+03  0.19900000000E+03 0.  0.
<mgrwt>
<rscale>  0 0.82306744E+03</rscale>
<asrwt>0</asrwt>
<pdfrwt beam="1">  1        2 0.24565964E-01 0.82306744E+03</pdfrwt>
<pdfrwt beam="2">  1       -2 0.14069574E+00 0.82306744E+03</pdfrwt>
<totfact> 0.79852556E+01</totfact>
</mgrwt>
</event>
<event>
 4    1  0.5069019E-005  0.6903250E+03  0.7818608E-02  0.9733922E-01
         -2   -1    0    0    0  501 -0.00000000000E+00  0.00000000000E+00  0.72805646441E+02  0.72805646485E+02  0.25500000000E-02 0. -1.
          2   -1    0    0  501    0  0.00000000000E+00 -0.00000000000E+00 -0.16363726189E+04  0.16363726189E+04  0.25500000000E-02 0.  1.
    5000001    1    1    2    0    0 -0.19475742322E+03 -0.19715283575E+03 -0.91130121623E+03  0.97307276256E+03  0.19900000000E+03 0.  0.
   -5000001    1    1    2    0    0  0.19475742322E+03  0.19715283575E+03 -0.65226575626E+03  0.73610550285E+03  0.19900000000E+03 0.  0.
<mgrwt>
<rscale>  0 0.69032504E+03</rscale>
<asrwt>0</asrwt>
<pdfrwt beam="1">  1        2 0.23376749E+00 0.69032504E+03</pdfrwt>
<pdfrwt beam="2">  1       -2 0.10400808E-01 0.69032504E+03</pdfrwt>
<totfact> 0.80909955E+02</totfact>
</mgrwt>
</event>
<event>
 4    1  0.5069019E-005  0.6037466E+03  0.7818608E-02  0.9897663E-01
          2   -1    0    0  501    0  0.00000000000E+00  0.00000000000E+00  0.15956426211E+04  0.15956426211E+04  0.25500000000E-02 0.  1.
         -2   -1    0    0    0  501 -0.00000000000E+00 -0.00000000000E+00 -0.57110219679E+02  0.57110219736E+02  0.25500000000E-02 0. -1.
    5000001    1    1    2    0    0 -0.69712161908E+02 -0.20816675412E+03  0.61121727913E+03  0.67925013459E+03  0.19900000000E+03 0.  0.
   -5000001    1    1    2    0    0  0.69712161908E+02  0.20816675412E+03  0.92731512232E+03  0.97350270628E+03  0.19900000000E+03 0.  0.
<mgrwt>
<rscale>  0 0.60374664E+03</rscale>
<asrwt>0</asrwt>
<pdfrwt beam="1">  1        2 0.22794889E+00 0.60374664E+03</pdfrwt>
<pdfrwt beam="2">  1       -2 0.81586049E-02 0.60374664E+03</pdfrwt>
<totfact> 0.12610331E+03</totfact>
</mgrwt>
</event>
<event>
 4    1  0.5069019E-005  0.5009115E+03  0.7818608E-02  0.1013541E+00
         -2   -1    0    0    0  501 -0.00000000000E+00  0.00000000000E+00  0.16735929048E+03  0.16735929050E+03  0.25500000000E-02 0. -1.
          2   -1    0    0  501    0  0.00000000000E+00 -0.00000000000E+00 -0.37481084915E+03  0.37481084916E+03  0.25500000000E-02 0.  1.
    5000001    1    1    2    0    0  0.13856012040E+02 -0.13939464974E+03 -0.39653479554E+02  0.24656896781E+03  0.19900000000E+03 0.  0.
   -5000001    1    1    2    0    0 -0.13856012040E+02  0.13939464974E+03 -0.16779807912E+03  0.29560117185E+03  0.19900000000E+03 0.  0.
<mgrwt>
<rscale>  0 0.50091148E+03</rscale>
<asrwt>0</asrwt>
<pdfrwt beam="1">  1        2 0.53544407E-01 0.50091148E+03</pdfrwt>
<pdfrwt beam="2">  1       -2 0.23908470E-01 0.50091148E+03</pdfrwt>
<totfact> 0.14414411E+03</totfact>
</mgrwt>
</event>
<event>
 4    1  0.5069019E-005  0.7014670E+03  0.7818608E-02  0.9714727E-01
         -2   -1    0    0    0  501 -0.00000000000E+00  0.00000000000E+00  0.67910854509E+02  0.67910854557E+02  0.25500000000E-02 0.  1.
          2   -1    0    0  501    0  0.00000000000E+00 -0.00000000000E+00 -0.18114039981E+04  0.18114039981E+04  0.25500000000E-02 0. -1.
    5000001    1    1    2    0    0 -0.19810042327E+03  0.20221706218E+03 -0.71836894357E+03  0.79736469512E+03  0.19900000000E+03 0.  0.
   -5000001    1    1    2    0    0  0.19810042327E+03 -0.20221706218E+03 -0.10251242000E+04  0.10819501575E+04  0.19900000000E+03 0.  0.
<mgrwt>
<rscale>  0 0.70146702E+03</rscale>
<asrwt>0</asrwt>
<pdfrwt beam="1">  1        2 0.25877197E+00 0.70146702E+03</pdfrwt>
<pdfrwt beam="2">  1       -2 0.97015517E-02 0.70146702E+03</pdfrwt>
<totfact> 0.73715898E+02</totfact>
</mgrwt>
</event>
<event>
 4    1  0.5069019E-005  0.6288178E+03  0.7818608E-02  0.9847359E-01
         -2   -1    0    0    0  501 -0.00000000000E+00  0.00000000000E+00  0.22066573241E+03  0.22066573243E+03  0.25500000000E-02 0. -1.
          2   -1    0    0  501    0  0.00000000000E+00 -0.00000000000E+00 -0.44797600926E+03  0.44797600927E+03  0.25500000000E-02 0.  1.
    5000001    1    1    2    0    0  0.29146998483E+02 -0.20033454450E+03  0.30065730392E+02  0.28546177570E+03  0.19900000000E+03 0.  0.
   -5000001    1    1    2    0    0 -0.29146998483E+02  0.20033454450E+03 -0.25737600724E+03  0.38317996600E+03  0.19900000000E+03 0.  0.
<mgrwt>
<rscale>  0 0.62881779E+03</rscale>
<asrwt>0</asrwt>
<pdfrwt beam="1">  1        2 0.63996572E-01 0.62881779E+03</pdfrwt>
<pdfrwt beam="2">  1       -2 0.31523676E-01 0.62881779E+03</pdfrwt>
<totfact> 0.71425932E+02</totfact>
</mgrwt>
</event>
<event>
 4    1  0.5069019E-005  0.5501208E+03  0.7818608E-02  0.1001466E+00
         -2   -1    0    0    0  501 -0.00000000000E+00  0.00000000000E+00  0.25933226710E+02  0.25933226836E+02  0.25500000000E-02 0. -1.
          2   -1    0    0  501    0  0.00000000000E+00 -0.00000000000E+00 -0.29174239606E+04  0.29174239606E+04  0.25500000000E-02 0.  1.
    5000001    1    1    2    0    0 -0.85612800870E+02 -0.16394298711E+03 -0.16758966112E+04  0.16977742212E+04  0.19900000000E+03 0.  0.
   -5000001    1    1    2    0    0  0.85612800870E+02  0.16394298711E+03 -0.12155941227E+04  0.12455829662E+04  0.19900000000E+03 0.  0.
<mgrwt>
<rscale>  0 0.55012078E+03</rscale>
<asrwt>0</asrwt>
<pdfrwt beam="1">  1        2 0.41677464E+00 0.55012078E+03</pdfrwt>
<pdfrwt beam="2">  1       -2 0.37047485E-02 0.55012078E+03</pdfrwt>
<totfact> 0.91466243E+02</totfact>
</mgrwt>
</event>
<event>
 4    1  0.5069019E-005  0.7832239E+03  0.7818608E-02  0.9584622E-01
          2   -1    0    0  501    0  0.00000000000E+00  0.00000000000E+00  0.61025646294E+03  0.61025646294E+03  0.25500000000E-02 0.  1.
         -2   -1    0    0    0  501 -0.00000000000E+00 -0.00000000000E+00 -0.25130405273E+03  0.25130405274E+03  0.25500000000E-02 0. -1.
    5000001    1    1    2    0    0 -0.13137150261E+02  0.17758346986E+03 -0.13561793932E+03  0.29950241894E+03  0.19900000000E+03 0.  0.
   -5000001    1    1    2    0    0  0.13137150261E+02 -0.17758346986E+03  0.49457034953E+03  0.56205809675E+03  0.19900000000E+03 0.  0.
<mgrwt>
<rscale>  0 0.78322391E+03</rscale>
<asrwt>0</asrwt>
<pdfrwt beam="1">  1        2 0.87179496E-01 0.78322391E+03</pdfrwt>
<pdfrwt beam="2">  1       -2 0.35900578E-01 0.78322391E+03</pdfrwt>
<totfact> 0.38966897E+02</totfact>
</mgrwt>
</event>
<event>
 4    1  0.5069019E-005  0.8355621E+03  0.7818608E-02  0.9509923E-01
         -2   -1    0    0    0  501 -0.00000000000E+00  0.00000000000E+00  0.20666757641E+03  0.20666757643E+03  0.25500000000E-02 0. -1.
          2   -1    0    0  501    0  0.00000000000E+00 -0.00000000000E+00 -0.84454956477E+03  0.84454956478E+03  0.25500000000E-02 0.  1.
    5000001    1    1    2    0    0 -0.29257587719E+03 -0.17123311879E+03 -0.49694525659E+03  0.63362213734E+03  0.19900000000E+03 0.  0.
   -5000001    1    1    2    0    0  0.29257587719E+03  0.17123311879E+03 -0.14093673177E+03  0.41759500386E+03  0.19900000000E+03 0.  0.
<mgrwt>
<rscale>  0 0.83556211E+03</rscale>
<asrwt>0</asrwt>
<pdfrwt beam="1">  1        2 0.12064994E+00 0.83556211E+03</pdfrwt>
<pdfrwt beam="2">  1       -2 0.29523940E-01 0.83556211E+03</pdfrwt>
<totfact> 0.37466878E+02</totfact>
</mgrwt>
</event>
<event>
 4    1  0.5069019E-005  0.5180310E+03  0.7818608E-02  0.1009177E+00
         -2   -1    0    0    0  501 -0.00000000000E+00  0.00000000000E+00  0.10728361923E+03  0.10728361926E+03  0.25500000000E-02 0. -1.
          2   -1    0    0  501    0  0.00000000000E+00 -0.00000000000E+00 -0.62534269301E+03  0.62534269302E+03  0.25500000000E-02 0.  1.
    5000001    1    1    2    0    0 -0.15903886543E+03 -0.46634835959E+02 -0.25272718578E+03  0.36185660015E+03  0.19900000000E+03 0.  0.
   -5000001    1    1    2    0    0  0.15903886543E+03  0.46634835959E+02 -0.26533188800E+03  0.37076971213E+03  0.19900000000E+03 0.  0.
<mgrwt>
<rscale>  0 0.51803099E+03</rscale>
<asrwt>0</asrwt>
<pdfrwt beam="1">  1        2 0.89334668E-01 0.51803099E+03</pdfrwt>
<pdfrwt beam="2">  1       -2 0.15326232E-01 0.51803099E+03</pdfrwt>
<totfact> 0.17406995E+03</totfact>
</mgrwt>
</event>
<event>
 4    1  0.5069019E-005  0.6579052E+03  0.7818608E-02  0.9792058E-01
          2   -1    0    0  501    0  0.00000000000E+00  0.00000000000E+00  0.23416050020E+04  0.23416050020E+04  0.25500000000E-02 0.  1.
         -2   -1    0    0    0  501 -0.00000000000E+00 -0.00000000000E+00 -0.46211814306E+02  0.46211814376E+02  0.25500000000E-02 0. -1.
    5000001    1    1    2    0    0 -0.17432887715E+03 -0.95185208971E+02  0.52794621236E+03  0.59814629026E+03  0.19900000000E+03 0.  0.
   -5000001    1    1    2    0    0  0.17432887715E+03  0.95185208971E+02  0.17674469754E+04  0.17896705261E+04  0.19900000000E+03 0.  0.
<mgrwt>
<rscale>  0 0.65790521E+03</rscale>
<asrwt>0</asrwt>
<pdfrwt beam="1">  1        2 0.33451503E+00 0.65790521E+03</pdfrwt>
<pdfrwt beam="2">  1       -2 0.66016872E-02 0.65790521E+03</pdfrwt>
<totfact> 0.73782090E+02</totfact>
</mgrwt>
</event>
<event>
 4    1  0.5069019E-005  0.9273881E+03  0.7818608E-02  0.9391978E-01
         -2   -1    0    0    0  501 -0.00000000000E+00  0.00000000000E+00  0.10675594058E+03  0.10675594061E+03  0.25500000000E-02 0. -1.
          2   -1    0    0  501    0  0.00000000000E+00 -0.00000000000E+00 -0.20140532710E+04  0.20140532710E+04  0.25500000000E-02 0.  1.
    5000001    1    1    2    0    0 -0.23689194023E+03 -0.33947475900E+03 -0.10991881766E+04  0.11912919671E+04  0.19900000000E+03 0.  0.
   -5000001    1    1    2    0    0  0.23689194023E+03  0.33947475900E+03 -0.80810915388E+03  0.92951724455E+03  0.19900000000E+03 0.  0.
<mgrwt>
<rscale>  0 0.92738806E+03</rscale>
<asrwt>0</asrwt>
<pdfrwt beam="1">  1        2 0.28772187E+00 0.92738806E+03</pdfrwt>
<pdfrwt beam="2">  1       -2 0.15250850E-01 0.92738806E+03</pdfrwt>
<totfact> 0.27081941E+02</totfact>
</mgrwt>
</event>
<event>
 4    1  0.5069019E-005  0.1438852E+04  0.7818608E-02  0.8926166E-01
          2   -1    0    0  501    0  0.00000000000E+00  0.00000000000E+00  0.95480381919E+03  0.95480381920E+03  0.25500000000E-02 0.  1.
         -2   -1    0    0    0  501 -0.00000000000E+00 -0.00000000000E+00 -0.54207306735E+03  0.54207306736E+03  0.25500000000E-02 0. -1.
    5000001    1    1    2    0    0 -0.23354055941E+03 -0.64059665970E+03  0.87443779556E+02  0.71564843876E+03  0.19900000000E+03 0.  0.
   -5000001    1    1    2    0    0  0.23354055941E+03  0.64059665970E+03  0.32528697228E+03  0.78122844780E+03  0.19900000000E+03 0.  0.
<mgrwt>
<rscale>  0 0.14388515E+04</rscale>
<asrwt>0</asrwt>
<pdfrwt beam="1">  1        2 0.13640055E+00 0.14388515E+04</pdfrwt>
<pdfrwt beam="2">  1       -2 0.77439010E-01 0.14388515E+04</pdfrwt>
<totfact> 0.43344475E+01</totfact>
</mgrwt>
</event>
<event>
 4    1  0.5069019E-005  0.7515179E+03  0.7818608E-02  0.9632972E-01
         -2   -1    0    0    0  501 -0.00000000000E+00  0.00000000000E+00  0.83436984520E+02  0.83436984559E+02  0.25500000000E-02 0. -1.
          2   -1    0    0  501    0  0.00000000000E+00 -0.00000000000E+00 -0.16922328372E+04  0.16922328372E+04  0.25500000000E-02 0.  1.
    5000001    1    1    2    0    0  0.19556097725E+03  0.94466753407E+02 -0.13556180158E+04  0.13872524169E+04  0.19900000000E+03 0.  0.
   -5000001    1    1    2    0    0 -0.19556097725E+03 -0.94466753407E+02 -0.25317783681E+03  0.38841740483E+03  0.19900000000E+03 0.  0.
<mgrwt>
<rscale>  0 0.75151794E+03</rscale>
<asrwt>0</asrwt>
<pdfrwt beam="1">  1        2 0.24174753E+00 0.75151794E+03</pdfrwt>
<pdfrwt beam="2">  1       -2 0.11919570E-01 0.75151794E+03</pdfrwt>
<totfact> 0.60365471E+02</totfact>
</mgrwt>
</event>
<event>
 4    1  0.5069019E-005  0.7809390E+03  0.7818608E-02  0.9588024E-01
         -2   -1    0    0    0  501 -0.00000000000E+00  0.00000000000E+00  0.32469383378E+03  0.32469383379E+03  0.25500000000E-02 0. -1.
          2   -1    0    0  501    0  0.00000000000E+00 -0.00000000000E+00 -0.46956989031E+03  0.46956989032E+03  0.25500000000E-02 0.  1.
    5000001    1    1    2    0    0 -0.20744840253E+03 -0.16121614222E+03 -0.28539049926E+03  0.43597502370E+03  0.19900000000E+03 0.  0.
   -5000001    1    1    2    0    0  0.20744840253E+03  0.16121614222E+03  0.14051444273E+03  0.35828870041E+03  0.19900000000E+03 0.  0.
<mgrwt>
<rscale>  0 0.78093904E+03</rscale>
<asrwt>0</asrwt>
<pdfrwt beam="1">  1        2 0.67081413E-01 0.78093904E+03</pdfrwt>
<pdfrwt beam="2">  1       -2 0.46384833E-01 0.78093904E+03</pdfrwt>
<totfact> 0.31992706E+02</totfact>
</mgrwt>
</event>
<event>
 4    1  0.5069019E-005  0.6178204E+03  0.7818608E-02  0.9869109E-01
         -2   -1    0    0    0  501 -0.00000000000E+00  0.00000000000E+00  0.74166708670E+02  0.74166708714E+02  0.25500000000E-02 0. -1.
          2   -1    0    0  501    0  0.00000000000E+00 -0.00000000000E+00 -0.12866355064E+04  0.12866355064E+04  0.25500000000E-02 0.  1.
    5000001    1    1    2    0    0 -0.19698220683E+03  0.40591014876E+02 -0.87934521454E+03  0.92374164496E+03  0.19900000000E+03 0.  0.
   -5000001    1    1    2    0    0  0.19698220683E+03 -0.40591014876E+02 -0.33312358314E+03  0.43706057011E+03  0.19900000000E+03 0.  0.
<mgrwt>
<rscale>  0 0.61782043E+03</rscale>
<asrwt>0</asrwt>
<pdfrwt beam="1">  1        2 0.18380506E+00 0.61782043E+03</pdfrwt>
<pdfrwt beam="2">  1       -2 0.10595245E-01 0.61782043E+03</pdfrwt>
<totfact> 0.12042299E+03</totfact>
</mgrwt>
</event>
<event>
 4    1  0.5069019E-005  0.5469967E+03  0.7818608E-02  0.1002191E+00
          2   -1    0    0  501    0  0.00000000000E+00  0.00000000000E+00  0.90010197747E+03  0.90010197747E+03  0.25500000000E-02 0.  1.
         -2   -1    0    0    0  501 -0.00000000000E+00 -0.00000000000E+00 -0.83103177623E+02  0.83103177662E+02  0.25500000000E-02 0. -1.
    5000001    1    1    2    0    0  0.19748176990E+02 -0.16455532185E+03  0.25044655620E+03  0.36026784752E+03  0.19900000000E+03 0.  0.
   -5000001    1    1    2    0    0 -0.19748176990E+02  0.16455532185E+03  0.56655224364E+03  0.62293730762E+03  0.19900000000E+03 0.  0.
<mgrwt>
<rscale>  0 0.54699665E+03</rscale>
<asrwt>0</asrwt>
<pdfrwt beam="1">  1        2 0.12858600E+00 0.54699665E+03</pdfrwt>
<pdfrwt beam="2">  1       -2 0.11871882E-01 0.54699665E+03</pdfrwt>
<totfact> 0.16879138E+03</totfact>
</mgrwt>
</event>
<event>
 4    1  0.5069019E-005  0.5361714E+03  0.7818608E-02  0.1004746E+00
          2   -1    0    0  501    0  0.00000000000E+00  0.00000000000E+00  0.14867169303E+04  0.14867169303E+04  0.25500000000E-02 0.  1.
         -2   -1    0    0    0  501 -0.00000000000E+00 -0.00000000000E+00 -0.48341369837E+02  0.48341369904E+02  0.25500000000E-02 0. -1.
    5000001    1    1    2    0    0 -0.45096698434E+02 -0.16961414834E+03  0.82881716425E+03  0.87025373500E+03  0.19900000000E+03 0.  0.
   -5000001    1    1    2    0    0  0.45096698434E+02  0.16961414834E+03  0.60955839624E+03  0.66480456523E+03  0.19900000000E+03 0.  0.
<mgrwt>
<rscale>  0 0.53617136E+03</rscale>
<asrwt>0</asrwt>
<pdfrwt beam="1">  1        2 0.21238811E+00 0.53617136E+03</pdfrwt>
<pdfrwt beam="2">  1       -2 0.69059108E-02 0.53617136E+03</pdfrwt>
<totfact> 0.18741821E+03</totfact>
</mgrwt>
</event>
<event>
 4    1  0.5069019E-005  0.1670690E+04  0.7818608E-02  0.8778260E-01
         -2   -1    0    0    0  501 -0.00000000000E+00  0.00000000000E+00  0.39838137418E+03  0.39838137418E+03  0.25500000000E-02 0. -1.
          2   -1    0    0  501    0  0.00000000000E+00 -0.00000000000E+00 -0.17515917812E+04  0.17515917812E+04  0.25500000000E-02 0.  1.
    5000001    1    1    2    0    0 -0.77650561023E+03  0.21686831762E+03 -0.56001874634E+03  0.10016061233E+04  0.19900000000E+03 0.  0.
   -5000001    1    1    2    0    0  0.77650561023E+03 -0.21686831762E+03 -0.79319166070E+03  0.11483670321E+04  0.19900000000E+03 0.  0.
<mgrwt>
<rscale>  0 0.16706903E+04</rscale>
<asrwt>0</asrwt>
<pdfrwt beam="1">  1        2 0.25022739E+00 0.16706903E+04</pdfrwt>
<pdfrwt beam="2">  1       -2 0.56911626E-01 0.16706903E+04</pdfrwt>
<totfact> 0.29835302E+01</totfact>
</mgrwt>
</event>
<event>
 4    1  0.5069019E-005  0.8854231E+03  0.7818608E-02  0.9443989E-01
          2   -1    0    0  501    0  0.00000000000E+00  0.00000000000E+00  0.53499648343E+03  0.53499648344E+03  0.25500000000E-02 0.  1.
         -2   -1    0    0    0  501 -0.00000000000E+00 -0.00000000000E+00 -0.36634545158E+03  0.36634545159E+03  0.25500000000E-02 0. -1.
    5000001    1    1    2    0    0 -0.36533361518E+03  0.13667112077E+03  0.15064964596E+03  0.46308094483E+03  0.19900000000E+03 0.  0.
   -5000001    1    1    2    0    0  0.36533361518E+03 -0.13667112077E+03  0.18001385898E+02  0.43826099020E+03  0.19900000000E+03 0.  0.
<mgrwt>
<rscale>  0 0.88542313E+03</rscale>
<asrwt>0</asrwt>
<pdfrwt beam="1">  1        2 0.76428069E-01 0.88542313E+03</pdfrwt>
<pdfrwt beam="2">  1       -2 0.52335065E-01 0.88542313E+03</pdfrwt>
<totfact> 0.21473190E+02</totfact>
</mgrwt>
</event>
<event>
 4    1  0.5069019E-005  0.4338716E+03  0.7818608E-02  0.1032644E+00
          2   -1    0    0  501    0  0.00000000000E+00  0.00000000000E+00  0.34498148875E+04  0.34498148875E+04  0.25500000000E-02 0. -1.
         -2   -1    0    0    0  501 -0.00000000000E+00 -0.00000000000E+00 -0.13641639286E+02  0.13641639524E+02  0.25500000000E-02 0.  1.
    5000001    1    1    2    0    0 -0.81435732127E+02  0.28558936594E+02  0.16895946306E+04  0.17034607148E+04  0.19900000000E+03 0.  0.
   -5000001    1    1    2    0    0  0.81435732127E+02 -0.28558936594E+02  0.17465786176E+04  0.17599958122E+04  0.19900000000E+03 0.  0.
<mgrwt>
<rscale>  0 0.43387155E+03</rscale>
<asrwt>0</asrwt>
<pdfrwt beam="1">  1        2 0.49283099E+00 0.43387155E+03</pdfrwt>
<pdfrwt beam="2">  1       -2 0.19488045E-02 0.43387155E+03</pdfrwt>
<totfact> 0.12314322E+03</totfact>
</mgrwt>
</event>
<event>
 4    1  0.5069019E-005  0.4720282E+03  0.7818608E-02  0.1021349E+00
         -2   -1    0    0    0  501 -0.00000000000E+00  0.00000000000E+00  0.94175258467E+02  0.94175258502E+02  0.25500000000E-02 0. -1.
          2   -1    0    0  501    0  0.00000000000E+00 -0.00000000000E+00 -0.59147859700E+03  0.59147859701E+03  0.25500000000E-02 0.  1.
    5000001    1    1    2    0    0  0.12315156237E+03  0.28965441390E+02 -0.23439385136E+03  0.33248576160E+03  0.19900000000E+03 0.  0.
   -5000001    1    1    2    0    0 -0.12315156237E+03 -0.28965441390E+02 -0.26290948718E+03  0.35316809391E+03  0.19900000000E+03 0.  0.
<mgrwt>
<rscale>  0 0.47202818E+03</rscale>
<asrwt>0</asrwt>
<pdfrwt beam="1">  1        2 0.84496940E-01 0.47202818E+03</pdfrwt>
<pdfrwt beam="2">  1       -2 0.13453609E-01 0.47202818E+03</pdfrwt>
<totfact> 0.23085380E+03</totfact>
</mgrwt>
</event>
<event>
 4    1  0.5069019E-005  0.2120082E+04  0.7818608E-02  0.8552448E-01
          2   -1    0    0  501    0  0.00000000000E+00  0.00000000000E+00  0.38730795914E+04  0.38730795914E+04  0.25500000000E-02 0.  1.
         -2   -1    0    0    0  501 -0.00000000000E+00 -0.00000000000E+00 -0.29012753033E+03  0.29012753035E+03  0.25500000000E-02 0. -1.
    5000001    1    1    2    0    0 -0.96461249378E+03  0.34377230461E+03  0.14218547473E+04  0.17634989603E+04  0.19900000000E+03 0.  0.
   -5000001    1    1    2    0    0  0.96461249378E+03 -0.34377230461E+03  0.21610973138E+04  0.23997081615E+04  0.19900000000E+03 0.  0.
<mgrwt>
<rscale>  0 0.21200821E+04</rscale>
<asrwt>0</asrwt>
<pdfrwt beam="1">  1        2 0.55329703E+00 0.21200821E+04</pdfrwt>
<pdfrwt beam="2">  1       -2 0.41446794E-01 0.21200821E+04</pdfrwt>
<totfact> 0.35523751E+00</totfact>
</mgrwt>
</event>
<event>
 4    1  0.5069019E-005  0.9386960E+03  0.7818608E-02  0.9378462E-01
          2   -1    0    0  501    0  0.00000000000E+00  0.00000000000E+00  0.63659147455E+03  0.63659147456E+03  0.25500000000E-02 0.  1.
         -2   -1    0    0    0  501 -0.00000000000E+00 -0.00000000000E+00 -0.34604224362E+03  0.34604224362E+03  0.25500000000E-02 0. -1.
    5000001    1    1    2    0    0 -0.12999618927E+03 -0.21702911510E+02 -0.27776569500E+03  0.36623053793E+03  0.19900000000E+03 0.  0.
   -5000001    1    1    2    0    0  0.12999618927E+03  0.21702911510E+02  0.56831492594E+03  0.61640318026E+03  0.19900000000E+03 0.  0.
<mgrwt>
<rscale>  0 0.93869599E+03</rscale>
<asrwt>0</asrwt>
<pdfrwt beam="1">  1        2 0.90941639E-01 0.93869599E+03</pdfrwt>
<pdfrwt beam="2">  1       -2 0.49434607E-01 0.93869599E+03</pdfrwt>
<totfact> 0.19597340E+02</totfact>
</mgrwt>
</event>
<event>
 4    1  0.5069019E-005  0.4504687E+03  0.7818608E-02  0.1027582E+00
          2   -1    0    0  501    0  0.00000000000E+00  0.00000000000E+00  0.64607767249E+03  0.64607767250E+03  0.25500000000E-02 0.  1.
         -2   -1    0    0    0  501 -0.00000000000E+00 -0.00000000000E+00 -0.78520750500E+02  0.78520750541E+02  0.25500000000E-02 0. -1.
    5000001    1    1    2    0    0  0.10457945121E+03  0.99725591256E+01  0.29930654605E+03  0.37446191003E+03  0.19900000000E+03 0.  0.
   -5000001    1    1    2    0    0 -0.10457945121E+03 -0.99725591256E+01  0.26825037594E+03  0.35013651301E+03  0.19900000000E+03 0.  0.
<mgrwt>
<rscale>  0 0.45046866E+03</rscale>
<asrwt>0</asrwt>
<pdfrwt beam="1">  1        2 0.92296811E-01 0.45046866E+03</pdfrwt>
<pdfrwt beam="2">  1       -2 0.11217250E-01 0.45046866E+03</pdfrwt>
<totfact> 0.28031304E+03</totfact>
</mgrwt>
</event>
<event>
 4    1  0.5069019E-005  0.7775223E+03  0.7818608E-02  0.9593135E-01
          2   -1    0    0  501    0  0.00000000000E+00  0.00000000000E+00  0.20544632283E+04  0.20544632283E+04  0.25500000000E-02 0.  1.
         -2   -1    0    0    0  501 -0.00000000000E+00 -0.00000000000E+00 -0.73564338204E+02  0.73564338248E+02  0.25500000000E-02 0. -1.
    5000001    1    1    2    0    0 -0.30209193396E+03  0.14234825291E+03  0.99979764041E+03  0.10727156582E+04  0.19900000000E+03 0.  0.
   -5000001    1    1    2    0    0  0.30209193396E+03 -0.14234825291E+03  0.98110124966E+03  0.10553119083E+04  0.19900000000E+03 0.  0.
<mgrwt>
<rscale>  0 0.77752229E+03</rscale>
<asrwt>0</asrwt>
<pdfrwt beam="1">  1        2 0.29349468E+00 0.77752229E+03</pdfrwt>
<pdfrwt beam="2">  1       -2 0.10509193E-01 0.77752229E+03</pdfrwt>
<totfact> 0.48520112E+02</totfact>
</mgrwt>
</event>
<event>
 4    1  0.5069019E-005  0.4769127E+03  0.7818608E-02  0.1019987E+00
          2   -1    0    0  501    0  0.00000000000E+00  0.00000000000E+00  0.84131919441E+03  0.84131919441E+03  0.25500000000E-02 0.  1.
         -2   -1    0    0    0  501 -0.00000000000E+00 -0.00000000000E+00 -0.67586034048E+02  0.67586034096E+02  0.25500000000E-02 0. -1.
    5000001    1    1    2    0    0  0.73258811016E+02  0.76224276978E+02  0.23822027301E+03  0.32791293397E+03  0.19900000000E+03 0.  0.
   -5000001    1    1    2    0    0 -0.73258811016E+02 -0.76224276978E+02  0.53551288735E+03  0.58099229453E+03  0.19900000000E+03 0.  0.
<mgrwt>
<rscale>  0 0.47691269E+03</rscale>
<asrwt>0</asrwt>
<pdfrwt beam="1">  1        2 0.12018846E+00 0.47691269E+03</pdfrwt>
<pdfrwt beam="2">  1       -2 0.96551476E-02 0.47691269E+03</pdfrwt>
<totfact> 0.25801404E+03</totfact>
</mgrwt>
</event>
<event>
 4    1  0.5069019E-005  0.1246857E+04  0.7818608E-02  0.9072803E-01
         -2   -1    0    0    0  501 -0.00000000000E+00  0.00000000000E+00  0.62566051949E+03  0.62566051950E+03  0.25500000000E-02 0. -1.
          2   -1    0    0  501    0  0.00000000000E+00 -0.00000000000E+00 -0.62120460075E+03  0.62120460075E+03  0.25500000000E-02 0.  1.
    5000001    1    1    2    0    0 -0.48592219661E+03 -0.29591567769E+03  0.16152657158E+03  0.62400184518E+03  0.19900000000E+03 0.  0.
   -5000001    1    1    2    0    0  0.48592219661E+03  0.29591567769E+03 -0.15707065283E+03  0.62286327508E+03  0.19900000000E+03 0.  0.
<mgrwt>
<rscale>  0 0.12468572E+04</rscale>
<asrwt>0</asrwt>
<pdfrwt beam="1">  1        2 0.88743514E-01 0.12468572E+04</pdfrwt>
<pdfrwt beam="2">  1       -2 0.89380074E-01 0.12468572E+04</pdfrwt>
<totfact> 0.55070131E+01</totfact>
</mgrwt>
</event>
<event>
 4    1  0.5069019E-005  0.9517858E+03  0.7818608E-02  0.9363066E-01
          2   -1    0    0  501    0  0.00000000000E+00  0.00000000000E+00  0.28132835676E+04  0.28132835676E+04  0.25500000000E-02 0.  1.
         -2   -1    0    0    0  501 -0.00000000000E+00 -0.00000000000E+00 -0.80501678182E+02  0.80501678223E+02  0.25500000000E-02 0. -1.
    5000001    1    1    2    0    0  0.18953215693E+03  0.32140502322E+03  0.20300666109E+04  0.20736429471E+04  0.19900000000E+03 0.  0.
   -5000001    1    1    2    0    0 -0.18953215693E+03 -0.32140502322E+03  0.70271527853E+03  0.82014229871E+03  0.19900000000E+03 0.  0.
<mgrwt>
<rscale>  0 0.95178579E+03</rscale>
<asrwt>0</asrwt>
<pdfrwt beam="1">  1        2 0.40189769E+00 0.95178579E+03</pdfrwt>
<pdfrwt beam="2">  1       -2 0.11500239E-01 0.95178579E+03</pdfrwt>
<totfact> 0.16692733E+02</totfact>
</mgrwt>
</event>
<event>
 4    1  0.5069019E-005  0.1007236E+04  0.7818608E-02  0.9300644E-01
          2   -1    0    0  501    0  0.00000000000E+00  0.00000000000E+00  0.24303063290E+04  0.24303063290E+04  0.25500000000E-02 0.  1.
         -2   -1    0    0    0  501 -0.00000000000E+00 -0.00000000000E+00 -0.10436169132E+03  0.10436169135E+03  0.25500000000E-02 0. -1.
    5000001    1    1    2    0    0  0.40163152634E+03 -0.13935267887E+03  0.70374197508E+03  0.84592010234E+03  0.19900000000E+03 0.  0.
   -5000001    1    1    2    0    0 -0.40163152634E+03  0.13935267887E+03  0.16222026626E+04  0.16887479180E+04  0.19900000000E+03 0.  0.
<mgrwt>
<rscale>  0 0.10072356E+04</rscale>
<asrwt>0</asrwt>
<pdfrwt beam="1">  1        2 0.34718657E+00 0.10072356E+04</pdfrwt>
<pdfrwt beam="2">  1       -2 0.14908815E-01 0.10072356E+04</pdfrwt>
<totfact> 0.17123560E+02</totfact>
</mgrwt>
</event>
<event>
 4    1  0.5069019E-005  0.4556016E+03  0.7818608E-02  0.1026065E+00
         -2   -1    0    0    0  501 -0.00000000000E+00  0.00000000000E+00  0.27160697840E+03  0.27160697841E+03  0.25500000000E-02 0. -1.
          2   -1    0    0  501    0  0.00000000000E+00 -0.00000000000E+00 -0.19105988467E+03  0.19105988469E+03  0.25500000000E-02 0.  1.
    5000001    1    1    2    0    0 -0.86950032058E+02 -0.68770445959E+02  0.41884227249E+02  0.23161383984E+03  0.19900000000E+03 0.  0.
   -5000001    1    1    2    0    0  0.86950032058E+02  0.68770445959E+02  0.38662866481E+02  0.23105302326E+03  0.19900000000E+03 0.  0.
<mgrwt>
<rscale>  0 0.45560157E+03</rscale>
<asrwt>0</asrwt>
<pdfrwt beam="1">  1        2 0.27294269E-01 0.45560157E+03</pdfrwt>
<pdfrwt beam="2">  1       -2 0.38800997E-01 0.45560157E+03</pdfrwt>
<totfact> 0.12413355E+03</totfact>
</mgrwt>
</event>
<event>
 4    1  0.5069019E-005  0.6190098E+03  0.7818608E-02  0.9866733E-01
          2   -1    0    0  501    0  0.00000000000E+00  0.00000000000E+00  0.37232725037E+03  0.37232725038E+03  0.25500000000E-02 0. -1.
         -2   -1    0    0    0  501 -0.00000000000E+00 -0.00000000000E+00 -0.25728246014E+03  0.25728246015E+03  0.25500000000E-02 0.  1.
    5000001    1    1    2    0    0 -0.13829480571E+03  0.11472856738E+03 -0.99734894640E+02  0.28607017787E+03  0.19900000000E+03 0.  0.
   -5000001    1    1    2    0    0  0.13829480571E+03 -0.11472856738E+03  0.21477968487E+03  0.34353953265E+03  0.19900000000E+03 0.  0.
<mgrwt>
<rscale>  0 0.61900976E+03</rscale>
<asrwt>0</asrwt>
<pdfrwt beam="1">  1        2 0.53189607E-01 0.61900976E+03</pdfrwt>
<pdfrwt beam="2">  1       -2 0.36754637E-01 0.61900976E+03</pdfrwt>
<totfact> 0.65710814E+02</totfact>
</mgrwt>
</event>
<event>
 4    1  0.5069019E-005  0.7404409E+03  0.7818608E-02  0.9650468E-01
          2   -1    0    0  501    0  0.00000000000E+00  0.00000000000E+00  0.10220400103E+04  0.10220400103E+04  0.25500000000E-02 0.  1.
         -2   -1    0    0    0  501 -0.00000000000E+00 -0.00000000000E+00 -0.13410745221E+03  0.13410745223E+03  0.25500000000E-02 0. -1.
    5000001    1    1    2    0    0 -0.20046563060E+03  0.23687932902E+03  0.49723594466E+03  0.61898535542E+03  0.19900000000E+03 0.  0.
   -5000001    1    1    2    0    0  0.20046563060E+03 -0.23687932902E+03  0.39069661342E+03  0.53716210710E+03  0.19900000000E+03 0.  0.
<mgrwt>
<rscale>  0 0.74044090E+03</rscale>
<asrwt>0</asrwt>
<pdfrwt beam="1">  1        2 0.14600571E+00 0.74044090E+03</pdfrwt>
<pdfrwt beam="2">  1       -2 0.19158208E-01 0.74044090E+03</pdfrwt>
<totfact> 0.62870226E+02</totfact>
</mgrwt>
</event>
<event>
 4    1  0.5069019E-005  0.6349704E+03  0.7818608E-02  0.9835397E-01
         -2   -1    0    0    0  501 -0.00000000000E+00  0.00000000000E+00  0.18964327628E+03  0.18964327630E+03  0.25500000000E-02 0. -1.
          2   -1    0    0  501    0  0.00000000000E+00 -0.00000000000E+00 -0.53150761140E+03  0.53150761141E+03  0.25500000000E-02 0.  1.
    5000001    1    1    2    0    0 -0.18570078157E+03  0.15298421981E+03 -0.23624262874E+03  0.39153611764E+03  0.19900000000E+03 0.  0.
   -5000001    1    1    2    0    0  0.18570078157E+03 -0.15298421981E+03 -0.10562170638E+03  0.32961477006E+03  0.19900000000E+03 0.  0.
<mgrwt>
<rscale>  0 0.63497038E+03</rscale>
<asrwt>0</asrwt>
<pdfrwt beam="1">  1        2 0.75929658E-01 0.63497038E+03</pdfrwt>
<pdfrwt beam="2">  1       -2 0.27091897E-01 0.63497038E+03</pdfrwt>
<totfact> 0.77729880E+02</totfact>
</mgrwt>
</event>
<event>
 4    1  0.5069019E-005  0.4244289E+03  0.7818608E-02  0.1035634E+00
         -2   -1    0    0    0  501 -0.00000000000E+00  0.00000000000E+00  0.11456267319E+03  0.11456267322E+03  0.25500000000E-02 0. -1.
          2   -1    0    0  501    0  0.00000000000E+00 -0.00000000000E+00 -0.39310331396E+03  0.39310331396E+03  0.25500000000E-02 0.  1.
    5000001    1    1    2    0    0 -0.43479536373E+02  0.41149494970E+02 -0.19072019305E+03  0.28206194897E+03  0.19900000000E+03 0.  0.
   -5000001    1    1    2    0    0  0.43479536373E+02 -0.41149494970E+02 -0.87820447720E+02  0.22560403821E+03  0.19900000000E+03 0.  0.
<mgrwt>
<rscale>  0 0.42442887E+03</rscale>
<asrwt>0</asrwt>
<pdfrwt beam="1">  1        2 0.56157616E-01 0.42442887E+03</pdfrwt>
<pdfrwt beam="2">  1       -2 0.16366096E-01 0.42442887E+03</pdfrwt>
<totfact> 0.26311634E+03</totfact>
</mgrwt>
</event>
<event>
 4    1  0.5069019E-005  0.6237214E+03  0.7818608E-02  0.9857378E-01
          2   -1    0    0  501    0  0.00000000000E+00  0.00000000000E+00  0.69424171866E+03  0.69424171867E+03  0.25500000000E-02 0.  1.
         -2   -1    0    0    0  501 -0.00000000000E+00 -0.00000000000E+00 -0.14009113382E+03  0.14009113384E+03  0.25500000000E-02 0. -1.
    5000001    1    1    2    0    0  0.50844828074E+02 -0.20406137771E+03  0.43209414839E+03  0.52012748003E+03  0.19900000000E+03 0.  0.
   -5000001    1    1    2    0    0 -0.50844828074E+02  0.20406137771E+03  0.12205643645E+03  0.31420537248E+03  0.19900000000E+03 0.  0.
<mgrwt>
<rscale>  0 0.62372144E+03</rscale>
<asrwt>0</asrwt>
<pdfrwt beam="1">  1        2 0.99177388E-01 0.62372144E+03</pdfrwt>
<pdfrwt beam="2">  1       -2 0.20013019E-01 0.62372144E+03</pdfrwt>
<totfact> 0.97157952E+02</totfact>
</mgrwt>
</event>
<event>
 4    1  0.5069019E-005  0.5237494E+03  0.7818608E-02  0.1007759E+00
         -2   -1    0    0    0  501 -0.00000000000E+00  0.00000000000E+00  0.28956516592E+02  0.28956516704E+02  0.25500000000E-02 0. -1.
          2   -1    0    0  501    0  0.00000000000E+00 -0.00000000000E+00 -0.23683220599E+04  0.23683220599E+04  0.25500000000E-02 0.  1.
    5000001    1    1    2    0    0  0.13615887170E+03 -0.10045933555E+03 -0.12548276581E+04  0.12817272596E+04  0.19900000000E+03 0.  0.
   -5000001    1    1    2    0    0 -0.13615887170E+03  0.10045933555E+03 -0.10845378852E+04  0.11155513170E+04  0.19900000000E+03 0.  0.
<mgrwt>
<rscale>  0 0.52374939E+03</rscale>
<asrwt>0</asrwt>
<pdfrwt beam="1">  1        2 0.33833160E+00 0.52374939E+03</pdfrwt>
<pdfrwt beam="2">  1       -2 0.41366467E-02 0.52374939E+03</pdfrwt>
<totfact> 0.14924172E+03</totfact>
</mgrwt>
</event>
<event>
 4    1  0.5069019E-005  0.6338554E+03  0.7818608E-02  0.9837554E-01
         -2   -1    0    0    0  501 -0.00000000000E+00  0.00000000000E+00  0.42408721982E+02  0.42408722058E+02  0.25500000000E-02 0. -1.
          2   -1    0    0  501    0  0.00000000000E+00 -0.00000000000E+00 -0.23684550786E+04  0.23684550786E+04  0.25500000000E-02 0.  1.
    5000001    1    1    2    0    0 -0.79996853285E+02 -0.17968404141E+03 -0.59687365293E+03  0.65920027976E+03  0.19900000000E+03 0.  0.
   -5000001    1    1    2    0    0  0.79996853285E+02  0.17968404141E+03 -0.17291727037E+04  0.17516635209E+04  0.19900000000E+03 0.  0.
<mgrwt>
<rscale>  0 0.63385536E+03</rscale>
<asrwt>0</asrwt>
<pdfrwt beam="1">  1        2 0.33835064E+00 0.63385536E+03</pdfrwt>
<pdfrwt beam="2">  1       -2 0.60583903E-02 0.63385536E+03</pdfrwt>
<totfact> 0.81978934E+02</totfact>
</mgrwt>
</event>
<event>
 4    1  0.5069019E-005  0.6945253E+03  0.7818608E-02  0.9726641E-01
          2   -1    0    0  501    0  0.00000000000E+00  0.00000000000E+00  0.32812554927E+03  0.32812554928E+03  0.25500000000E-02 0.  1.
         -2   -1    0    0    0  501 -0.00000000000E+00 -0.00000000000E+00 -0.36751586277E+03  0.36751586278E+03  0.25500000000E-02 0. -1.
    5000001    1    1    2    0    0 -0.19002774727E+03 -0.17413212175E+03  0.10115446480E+03  0.34097766248E+03  0.19900000000E+03 0.  0.
   -5000001    1    1    2    0    0  0.19002774727E+03  0.17413212175E+03 -0.14054477831E+03  0.35466374958E+03  0.19900000000E+03 0.  0.
<mgrwt>
<rscale>  0 0.69452529E+03</rscale>
<asrwt>0</asrwt>
<pdfrwt beam="1">  1        2 0.46875079E-01 0.69452529E+03</pdfrwt>
<pdfrwt beam="2">  1       -2 0.52502266E-01 0.69452529E+03</pdfrwt>
<totfact> 0.37254856E+02</totfact>
</mgrwt>
</event>
<event>
 4    1  0.5069019E-005  0.5713267E+03  0.7818608E-02  0.9966747E-01
         -2   -1    0    0    0  501 -0.00000000000E+00  0.00000000000E+00  0.26591648626E+03  0.26591648628E+03  0.25500000000E-02 0. -1.
          2   -1    0    0  501    0  0.00000000000E+00 -0.00000000000E+00 -0.30687662744E+03  0.30687662745E+03  0.25500000000E-02 0.  1.
    5000001    1    1    2    0    0 -0.16977353670E+03  0.65644587968E+02 -0.11490401408E+03  0.29314876453E+03  0.19900000000E+03 0.  0.
   -5000001    1    1    2    0    0  0.16977353670E+03 -0.65644587968E+02  0.73943872909E+02  0.27964434919E+03  0.19900000000E+03 0.  0.
<mgrwt>
<rscale>  0 0.57132672E+03</rscale>
<asrwt>0</asrwt>
<pdfrwt beam="1">  1        2 0.43839518E-01 0.57132672E+03</pdfrwt>
<pdfrwt beam="2">  1       -2 0.37988070E-01 0.57132672E+03</pdfrwt>
<totfact> 0.76413268E+02</totfact>
</mgrwt>
</event>
<event>
 4    1  0.5069019E-005  0.6717017E+03  0.7818608E-02  0.9766889E-01
         -2   -1    0    0    0  501 -0.00000000000E+00  0.00000000000E+00  0.90965637655E+02  0.90965637690E+02  0.25500000000E-02 0. -1.
          2   -1    0    0  501    0  0.00000000000E+00 -0.00000000000E+00 -0.12399822627E+04  0.12399822627E+04  0.25500000000E-02 0.  1.
    5000001    1    1    2    0    0 -0.60610883457E+02  0.26009315735E+03 -0.48876255103E+03  0.59144903498E+03  0.19900000000E+03 0.  0.
   -5000001    1    1    2    0    0  0.60610883457E+02 -0.26009315735E+03 -0.66025407405E+03  0.73949886544E+03  0.19900000000E+03 0.  0.
<mgrwt>
<rscale>  0 0.67170165E+03</rscale>
<asrwt>0</asrwt>
<pdfrwt beam="1">  1        2 0.17714031E+00 0.67170165E+03</pdfrwt>
<pdfrwt beam="2">  1       -2 0.12995092E-01 0.67170165E+03</pdfrwt>
<totfact> 0.91142711E+02</totfact>
</mgrwt>
</event>
<event>
 4    1  0.5069019E-005  0.6799797E+03  0.7818608E-02  0.9752096E-01
         -2   -1    0    0    0  501 -0.00000000000E+00  0.00000000000E+00  0.13597084616E+03  0.13597084618E+03  0.25500000000E-02 0. -1.
          2   -1    0    0  501    0  0.00000000000E+00 -0.00000000000E+00 -0.85013157384E+03  0.85013157385E+03  0.25500000000E-02 0.  1.
    5000001    1    1    2    0    0  0.14975728846E+03 -0.81350945059E+02 -0.67129720561E+03  0.72061512611E+03  0.19900000000E+03 0.  0.
   -5000001    1    1    2    0    0 -0.14975728846E+03  0.81350945059E+02 -0.42863522076E+02  0.26548729392E+03  0.19900000000E+03 0.  0.
<mgrwt>
<rscale>  0 0.67997973E+03</rscale>
<asrwt>0</asrwt>
<pdfrwt beam="1">  1        2 0.12144736E+00 0.67997973E+03</pdfrwt>
<pdfrwt beam="2">  1       -2 0.19424407E-01 0.67997973E+03</pdfrwt>
<totfact> 0.79110658E+02</totfact>
</mgrwt>
</event>
<event>
 4    1  0.5069019E-005  0.5050577E+03  0.7818608E-02  0.1012467E+00
         -2   -1    0    0    0  501 -0.00000000000E+00  0.00000000000E+00  0.20510940175E+03  0.20510940177E+03  0.25500000000E-02 0. -1.
          2   -1    0    0  501    0  0.00000000000E+00 -0.00000000000E+00 -0.31091130657E+03  0.31091130658E+03  0.25500000000E-02 0.  1.
    5000001    1    1    2    0    0  0.39913858742E+01  0.68136767718E+02 -0.19561574607E+03  0.28727177095E+03  0.19900000000E+03 0.  0.
   -5000001    1    1    2    0    0 -0.39913858742E+01 -0.68136767718E+02  0.89813841260E+02  0.22874893739E+03  0.19900000000E+03 0.  0.
<mgrwt>
<rscale>  0 0.50505775E+03</rscale>
<asrwt>0</asrwt>
<pdfrwt beam="1">  1        2 0.44415901E-01 0.50505775E+03</pdfrwt>
<pdfrwt beam="2">  1       -2 0.29301343E-01 0.50505775E+03</pdfrwt>
<totfact> 0.12263273E+03</totfact>
</mgrwt>
</event>
<event>
 4    1  0.5069019E-005  0.9353903E+03  0.7818608E-02  0.9382392E-01
          2   -1    0    0  501    0  0.00000000000E+00  0.00000000000E+00  0.44972268647E+03  0.44972268647E+03  0.25500000000E-02 0.  1.
         -2   -1    0    0    0  501 -0.00000000000E+00 -0.00000000000E+00 -0.48638588446E+03  0.48638588447E+03  0.25500000000E-02 0. -1.
    5000001    1    1    2    0    0 -0.25273344456E+02 -0.39238836567E+03 -0.17507368374E+03  0.47419317392E+03  0.19900000000E+03 0.  0.
   -5000001    1    1    2    0    0  0.25273344456E+02  0.39238836567E+03  0.13841048574E+03  0.46191539703E+03  0.19900000000E+03 0.  0.
<mgrwt>
<rscale>  0 0.93539033E+03</rscale>
<asrwt>0</asrwt>
<pdfrwt beam="1">  1        2 0.64246098E-01 0.93539033E+03</pdfrwt>
<pdfrwt beam="2">  1       -2 0.69483698E-01 0.93539033E+03</pdfrwt>
<totfact> 0.14349707E+02</totfact>
</mgrwt>
</event>
<event>
 4    1  0.5069019E-005  0.1025507E+04  0.7818608E-02  0.9281004E-01
          2   -1    0    0  501    0  0.00000000000E+00  0.00000000000E+00  0.11329037994E+04  0.11329037994E+04  0.25500000000E-02 0.  1.
         -2   -1    0    0    0  501 -0.00000000000E+00 -0.00000000000E+00 -0.23207269337E+03  0.23207269338E+03  0.25500000000E-02 0. -1.
    5000001    1    1    2    0    0  0.21294505187E+03  0.34107520852E+03  0.78086717578E+03  0.90057339468E+03  0.19900000000E+03 0.  0.
   -5000001    1    1    2    0    0 -0.21294505187E+03 -0.34107520852E+03  0.11996393027E+03  0.46440309813E+03  0.19900000000E+03 0.  0.
<mgrwt>
<rscale>  0 0.10255068E+04</rscale>
<asrwt>0</asrwt>
<pdfrwt beam="1">  1        2 0.16184340E+00 0.10255068E+04</pdfrwt>
<pdfrwt beam="2">  1       -2 0.33153242E-01 0.10255068E+04</pdfrwt>
<totfact> 0.19745187E+02</totfact>
</mgrwt>
</event>
<event>
 4    1  0.5069019E-005  0.1350660E+04  0.7818608E-02  0.8990328E-01
         -2   -1    0    0    0  501 -0.00000000000E+00  0.00000000000E+00  0.45945559413E+03  0.45945559413E+03  0.25500000000E-02 0. -1.
          2   -1    0    0  501    0  0.00000000000E+00 -0.00000000000E+00 -0.99263312798E+03  0.99263312798E+03  0.25500000000E-02 0.  1.
    5000001    1    1    2    0    0 -0.18304766622E+02 -0.63981195115E+03 -0.17809433320E+03  0.69355099945E+03  0.19900000000E+03 0.  0.
   -5000001    1    1    2    0    0  0.18304766622E+02  0.63981195115E+03 -0.35508320065E+03  0.75853772266E+03  0.19900000000E+03 0.  0.
<mgrwt>
<rscale>  0 0.13506603E+04</rscale>
<asrwt>0</asrwt>
<pdfrwt beam="1">  1        2 0.14180473E+00 0.13506603E+04</pdfrwt>
<pdfrwt beam="2">  1       -2 0.65636514E-01 0.13506603E+04</pdfrwt>
<totfact> 0.59341273E+01</totfact>
</mgrwt>
</event>
<event>
 4    1  0.5069019E-005  0.5616860E+03  0.7818608E-02  0.9988247E-01
          2   -1    0    0  501    0  0.00000000000E+00  0.00000000000E+00  0.58243854646E+03  0.58243854647E+03  0.25500000000E-02 0.  1.
         -2   -1    0    0    0  501 -0.00000000000E+00 -0.00000000000E+00 -0.13541824299E+03  0.13541824301E+03  0.25500000000E-02 0. -1.
    5000001    1    1    2    0    0 -0.90939884793E+02 -0.13914279696E+03  0.36140237295E+03  0.44479597094E+03  0.19900000000E+03 0.  0.
   -5000001    1    1    2    0    0  0.90939884793E+02  0.13914279696E+03  0.85617930521E+02  0.27306081853E+03  0.19900000000E+03 0.  0.
<mgrwt>
<rscale>  0 0.56168605E+03</rscale>
<asrwt>0</asrwt>
<pdfrwt beam="1">  1        2 0.83205505E-01 0.56168605E+03</pdfrwt>
<pdfrwt beam="2">  1       -2 0.19345464E-01 0.56168605E+03</pdfrwt>
<totfact> 0.12716768E+03</totfact>
</mgrwt>
</event>
<event>
 4    1  0.5069019E-005  0.7524348E+03  0.7818608E-02  0.9631538E-01
          2   -1    0    0  501    0  0.00000000000E+00  0.00000000000E+00  0.14953596579E+04  0.14953596579E+04  0.25500000000E-02 0.  1.
         -2   -1    0    0    0  501 -0.00000000000E+00 -0.00000000000E+00 -0.94652492509E+02  0.94652492544E+02  0.25500000000E-02 0. -1.
    5000001    1    1    2    0    0 -0.11268824910E+03 -0.27659194376E+03  0.93883871613E+03  0.10050974479E+04  0.19900000000E+03 0.  0.
   -5000001    1    1    2    0    0  0.11268824910E+03  0.27659194376E+03  0.46186844921E+03  0.58491470251E+03  0.19900000000E+03 0.  0.
<mgrwt>
<rscale>  0 0.75243476E+03</rscale>
<asrwt>0</asrwt>
<pdfrwt beam="1">  1        2 0.21362279E+00 0.75243476E+03</pdfrwt>
<pdfrwt beam="2">  1       -2 0.13521785E-01 0.75243476E+03</pdfrwt>
<totfact> 0.61919439E+02</totfact>
</mgrwt>
</event>
<event>
 4    1  0.5069019E-005  0.6675876E+03  0.7818608E-02  0.9774326E-01
         -2   -1    0    0    0  501 -0.00000000000E+00  0.00000000000E+00  0.23744878414E+03  0.23744878415E+03  0.25500000000E-02 0.  1.
          2   -1    0    0  501    0  0.00000000000E+00 -0.00000000000E+00 -0.46923087577E+03  0.46923087578E+03  0.25500000000E-02 0. -1.
    5000001    1    1    2    0    0 -0.44587743407E+01  0.21991577209E+03  0.46156302925E+02  0.30019032593E+03  0.19900000000E+03 0.  0.
   -5000001    1    1    2    0    0  0.44587743407E+01 -0.21991577209E+03 -0.27793839456E+03  0.40648933400E+03  0.19900000000E+03 0.  0.
<mgrwt>
<rscale>  0 0.66758760E+03</rscale>
<asrwt>0</asrwt>
<pdfrwt beam="1">  1        2 0.67032982E-01 0.66758760E+03</pdfrwt>
<pdfrwt beam="2">  1       -2 0.33921255E-01 0.66758760E+03</pdfrwt>
<totfact> 0.59033241E+02</totfact>
</mgrwt>
</event>
<event>
 4    1  0.5069019E-005  0.1446719E+04  0.7818608E-02  0.8920679E-01
          2   -1    0    0  501    0  0.00000000000E+00  0.00000000000E+00  0.27764374096E+04  0.27764374096E+04  0.25500000000E-02 0.  1.
         -2   -1    0    0    0  501 -0.00000000000E+00 -0.00000000000E+00 -0.18846045738E+03  0.18846045740E+03  0.25500000000E-02 0. -1.
    5000001    1    1    2    0    0  0.39193686218E+02  0.68569824422E+03  0.15178274218E+04  0.16778317286E+04  0.19900000000E+03 0.  0.
   -5000001    1    1    2    0    0 -0.39193686218E+02 -0.68569824422E+03  0.10701495305E+04  0.12870661385E+04  0.19900000000E+03 0.  0.
<mgrwt>
<rscale>  0 0.14467186E+04</rscale>
<asrwt>0</asrwt>
<pdfrwt beam="1">  1        2 0.39663394E+00 0.14467186E+04</pdfrwt>
<pdfrwt beam="2">  1       -2 0.26922921E-01 0.14467186E+04</pdfrwt>
<totfact> 0.38287423E+01</totfact>
</mgrwt>
</event>
<event>
 4    1  0.5069019E-005  0.5443654E+03  0.7818608E-02  0.1002807E+00
         -2   -1    0    0    0  501 -0.00000000000E+00  0.00000000000E+00  0.41053502427E+02  0.41053502506E+02  0.25500000000E-02 0. -1.
          2   -1    0    0  501    0  0.00000000000E+00 -0.00000000000E+00 -0.18045576648E+04  0.18045576648E+04  0.25500000000E-02 0.  1.
    5000001    1    1    2    0    0 -0.18101894669E+03 -0.31235088216E+02 -0.78959064312E+03  0.83474419644E+03  0.19900000000E+03 0.  0.
   -5000001    1    1    2    0    0  0.18101894669E+03  0.31235088216E+02 -0.97391351924E+03  0.10108669708E+04  0.19900000000E+03 0.  0.
<mgrwt>
<rscale>  0 0.54436536E+03</rscale>
<asrwt>0</asrwt>
<pdfrwt beam="1">  1        2 0.25779390E+00 0.54436536E+03</pdfrwt>
<pdfrwt beam="2">  1       -2 0.58647872E-02 0.54436536E+03</pdfrwt>
<totfact> 0.16665371E+03</totfact>
</mgrwt>
</event>
<event>
 4    1  0.5069019E-005  0.6667483E+03  0.7818608E-02  0.9775850E-01
          2   -1    0    0  501    0  0.00000000000E+00  0.00000000000E+00  0.17566641059E+04  0.17566641059E+04  0.25500000000E-02 0.  1.
         -2   -1    0    0    0  501 -0.00000000000E+00 -0.00000000000E+00 -0.63266697089E+02  0.63266697140E+02  0.25500000000E-02 0. -1.
    5000001    1    1    2    0    0  0.26657256413E+03 -0.21695959213E+02  0.84018806679E+03  0.90390742566E+03  0.19900000000E+03 0.  0.
   -5000001    1    1    2    0    0 -0.26657256413E+03  0.21695959213E+02  0.85320934205E+03  0.91602337741E+03  0.19900000000E+03 0.  0.
<mgrwt>
<rscale>  0 0.66674834E+03</rscale>
<asrwt>0</asrwt>
<pdfrwt beam="1">  1        2 0.25095200E+00 0.66674834E+03</pdfrwt>
<pdfrwt beam="2">  1       -2 0.90381000E-02 0.66674834E+03</pdfrwt>
<totfact> 0.88288597E+02</totfact>
</mgrwt>
</event>
<event>
 4    1  0.5069019E-005  0.5412129E+03  0.7818608E-02  0.1003548E+00
          2   -1    0    0  501    0  0.00000000000E+00  0.00000000000E+00  0.25922976445E+04  0.25922976445E+04  0.25500000000E-02 0.  1.
         -2   -1    0    0    0  501 -0.00000000000E+00 -0.00000000000E+00 -0.28248245765E+02  0.28248245880E+02  0.25500000000E-02 0. -1.
    5000001    1    1    2    0    0 -0.42145888553E+02  0.11289675656E+03  0.19512865490E+04  0.19651061422E+04  0.19900000000E+03 0.  0.
   -5000001    1    1    2    0    0  0.42145888553E+02 -0.11289675656E+03  0.61276284975E+03  0.65543974826E+03  0.19900000000E+03 0.  0.
<mgrwt>
<rscale>  0 0.54121294E+03</rscale>
<asrwt>0</asrwt>
<pdfrwt beam="1">  1        2 0.37032831E+00 0.54121294E+03</pdfrwt>
<pdfrwt beam="2">  1       -2 0.40354629E-02 0.54121294E+03</pdfrwt>
<totfact> 0.11899736E+03</totfact>
</mgrwt>
</event>
<event>
 4    1  0.5069019E-005  0.6461689E+03  0.7818608E-02  0.9813995E-01
         -2   -1    0    0    0  501 -0.00000000000E+00  0.00000000000E+00  0.12567138668E+03  0.12567138671E+03  0.25500000000E-02 0. -1.
          2   -1    0    0  501    0  0.00000000000E+00 -0.00000000000E+00 -0.83060725124E+03  0.83060725124E+03  0.25500000000E-02 0.  1.
    5000001    1    1    2    0    0 -0.24858746190E+03 -0.44658331365E+02 -0.39909065052E+03  0.51250799028E+03  0.19900000000E+03 0.  0.
   -5000001    1    1    2    0    0  0.24858746190E+03  0.44658331365E+02 -0.30584521405E+03  0.44377064767E+03  0.19900000000E+03 0.  0.
<mgrwt>
<rscale>  0 0.64616891E+03</rscale>
<asrwt>0</asrwt>
<pdfrwt beam="1">  1        2 0.11865817E+00 0.64616891E+03</pdfrwt>
<pdfrwt beam="2">  1       -2 0.17953056E-01 0.64616891E+03</pdfrwt>
<totfact> 0.93530203E+02</totfact>
</mgrwt>
</event>
<event>
 4    1  0.5069019E-005  0.7173357E+03  0.7818608E-02  0.9688037E-01
          2   -1    0    0  501    0  0.00000000000E+00  0.00000000000E+00  0.14118047714E+04  0.14118047714E+04  0.25500000000E-02 0.  1.
         -2   -1    0    0    0  501 -0.00000000000E+00 -0.00000000000E+00 -0.91119282441E+02  0.91119282476E+02  0.25500000000E-02 0. -1.
    5000001    1    1    2    0    0 -0.53951346217E+02  0.24186733997E+03  0.10086106871E+04  0.10575003905E+04  0.19900000000E+03 0.  0.
   -5000001    1    1    2    0    0  0.53951346217E+02 -0.24186733997E+03  0.31207480192E+03  0.44542366338E+03  0.19900000000E+03 0.  0.
<mgrwt>
<rscale>  0 0.71733573E+03</rscale>
<asrwt>0</asrwt>
<pdfrwt beam="1">  1        2 0.20168638E+00 0.71733573E+03</pdfrwt>
<pdfrwt beam="2">  1       -2 0.13017041E-01 0.71733573E+03</pdfrwt>
<totfact> 0.73170270E+02</totfact>
</mgrwt>
</event>
<event>
 4    1  0.5069019E-005  0.5062526E+03  0.7818608E-02  0.1012160E+00
         -2   -1    0    0    0  501 -0.00000000000E+00  0.00000000000E+00  0.30440890624E+03  0.30440890625E+03  0.25500000000E-02 0. -1.
          2   -1    0    0  501    0  0.00000000000E+00 -0.00000000000E+00 -0.21048305058E+03  0.21048305059E+03  0.25500000000E-02 0.  1.
    5000001    1    1    2    0    0  0.12034157428E+03 -0.58434189013E+02 -0.35508885244E+02  0.24240158803E+03  0.19900000000E+03 0.  0.
   -5000001    1    1    2    0    0 -0.12034157428E+03  0.58434189013E+02  0.12943474091E+03  0.27249036882E+03  0.19900000000E+03 0.  0.
<mgrwt>
<rscale>  0 0.50625257E+03</rscale>
<asrwt>0</asrwt>
<pdfrwt beam="1">  1        2 0.30069007E-01 0.50625257E+03</pdfrwt>
<pdfrwt beam="2">  1       -2 0.43486986E-01 0.50625257E+03</pdfrwt>
<totfact> 0.89268205E+02</totfact>
</mgrwt>
</event>
<event>
 4    1  0.5069019E-005  0.6417751E+03  0.7818608E-02  0.9822336E-01
          2   -1    0    0  501    0  0.00000000000E+00  0.00000000000E+00  0.94040829002E+03  0.94040829002E+03  0.25500000000E-02 0.  1.
         -2   -1    0    0    0  501 -0.00000000000E+00 -0.00000000000E+00 -0.10949374465E+03  0.10949374468E+03  0.25500000000E-02 0. -1.
    5000001    1    1    2    0    0 -0.23219783315E+03  0.10776043561E+02  0.25738952598E+03  0.39985287909E+03  0.19900000000E+03 0.  0.
   -5000001    1    1    2    0    0  0.23219783315E+03 -0.10776043561E+02  0.57352501939E+03  0.65004915561E+03  0.19900000000E+03 0.  0.
<mgrwt>
<rscale>  0 0.64177512E+03</rscale>
<asrwt>0</asrwt>
<pdfrwt beam="1">  1        2 0.13434405E+00 0.64177512E+03</pdfrwt>
<pdfrwt beam="2">  1       -2 0.15641962E-01 0.64177512E+03</pdfrwt>
<totfact> 0.10030571E+03</totfact>
</mgrwt>
</event>
<event>
 4    1  0.5069019E-005  0.4487131E+03  0.7818608E-02  0.1028106E+00
          2   -1    0    0  501    0  0.00000000000E+00  0.00000000000E+00  0.10260253351E+04  0.10260253351E+04  0.25500000000E-02 0.  1.
         -2   -1    0    0    0  501 -0.00000000000E+00 -0.00000000000E+00 -0.49059090299E+02  0.49059090366E+02  0.25500000000E-02 0. -1.
    5000001    1    1    2    0    0  0.40949528725E+02  0.94627513916E+02  0.51287448350E+03  0.55970748264E+03  0.19900000000E+03 0.  0.
   -5000001    1    1    2    0    0 -0.40949528725E+02 -0.94627513916E+02  0.46409176126E+03  0.51537694279E+03  0.19900000000E+03 0.  0.
<mgrwt>
<rscale>  0 0.44871314E+03</rscale>
<asrwt>0</asrwt>
<pdfrwt beam="1">  1        2 0.14657505E+00 0.44871314E+03</pdfrwt>
<pdfrwt beam="2">  1       -2 0.70084414E-02 0.44871314E+03</pdfrwt>
<totfact> 0.32848039E+03</totfact>
</mgrwt>
</event>
<event>
 4    1  0.5069019E-005  0.5057319E+03  0.7818608E-02  0.1012294E+00
         -2   -1    0    0    0  501 -0.00000000000E+00  0.00000000000E+00  0.13109229592E+03  0.13109229595E+03  0.25500000000E-02 0. -1.
          2   -1    0    0  501    0  0.00000000000E+00 -0.00000000000E+00 -0.48775703929E+03  0.48775703930E+03  0.25500000000E-02 0.  1.
    5000001    1    1    2    0    0 -0.55635916130E+02 -0.10703361061E+03 -0.57265371992E+02  0.23964947693E+03  0.19900000000E+03 0.  0.
   -5000001    1    1    2    0    0  0.55635916130E+02  0.10703361061E+03 -0.29939937138E+03  0.37919985832E+03  0.19900000000E+03 0.  0.
<mgrwt>
<rscale>  0 0.50573191E+03</rscale>
<asrwt>0</asrwt>
<pdfrwt beam="1">  1        2 0.69679576E-01 0.50573191E+03</pdfrwt>
<pdfrwt beam="2">  1       -2 0.18727471E-01 0.50573191E+03</pdfrwt>
<totfact> 0.16482688E+03</totfact>
</mgrwt>
</event>
<event>
 4    1  0.5069019E-005  0.5605590E+03  0.7818608E-02  0.9990791E-01
         -2   -1    0    0    0  501 -0.00000000000E+00  0.00000000000E+00  0.79531216855E+02  0.79531216896E+02  0.25500000000E-02 0. -1.
          2   -1    0    0  501    0  0.00000000000E+00 -0.00000000000E+00 -0.98774551017E+03  0.98774551018E+03  0.25500000000E-02 0.  1.
    5000001    1    1    2    0    0  0.62503527480E+02  0.18719885943E+03 -0.44964260688E+03  0.52983919999E+03  0.19900000000E+03 0.  0.
   -5000001    1    1    2    0    0 -0.62503527480E+02 -0.18719885943E+03 -0.45857168644E+03  0.53743752709E+03  0.19900000000E+03 0.  0.
<mgrwt>
<rscale>  0 0.56055902E+03</rscale>
<asrwt>0</asrwt>
<pdfrwt beam="1">  1        2 0.14110649E+00 0.56055902E+03</pdfrwt>
<pdfrwt beam="2">  1       -2 0.11361603E-01 0.56055902E+03</pdfrwt>
<totfact> 0.15980805E+03</totfact>
</mgrwt>
</event>
<event>
 4    1  0.5069019E-005  0.6995884E+03  0.7818608E-02  0.9717936E-01
          2   -1    0    0  501    0  0.00000000000E+00  0.00000000000E+00  0.37500921587E+03  0.37500921588E+03  0.25500000000E-02 0.  1.
         -2   -1    0    0    0  501 -0.00000000000E+00 -0.00000000000E+00 -0.32627461118E+03  0.32627461119E+03  0.25500000000E-02 0. -1.
    5000001    1    1    2    0    0  0.16007795788E+03 -0.21601231629E+03  0.12693198910E+03  0.35776948339E+03  0.19900000000E+03 0.  0.
   -5000001    1    1    2    0    0 -0.16007795788E+03  0.21601231629E+03 -0.78197384414E+02  0.34351434368E+03  0.19900000000E+03 0.  0.
<mgrwt>
<rscale>  0 0.69958841E+03</rscale>
<asrwt>0</asrwt>
<pdfrwt beam="1">  1        2 0.53572745E-01 0.69958841E+03</pdfrwt>
<pdfrwt beam="2">  1       -2 0.46610659E-01 0.69958841E+03</pdfrwt>
<totfact> 0.40880555E+02</totfact>
</mgrwt>
</event>
<event>
 4    1  0.5069019E-005  0.6959987E+03  0.7818608E-02  0.9724099E-01
         -2   -1    0    0    0  501 -0.00000000000E+00  0.00000000000E+00  0.19538768944E+03  0.19538768946E+03  0.25500000000E-02 0. -1.
          2   -1    0    0  501    0  0.00000000000E+00 -0.00000000000E+00 -0.61981158856E+03  0.61981158856E+03  0.25500000000E-02 0.  1.
    5000001    1    1    2    0    0 -0.43338692607E+02  0.28213627023E+03 -0.21788224545E+03  0.41055181176E+03  0.19900000000E+03 0.  0.
   -5000001    1    1    2    0    0  0.43338692607E+02 -0.28213627023E+03 -0.20654165367E+03  0.40464746627E+03  0.19900000000E+03 0.  0.
<mgrwt>
<rscale>  0 0.69599872E+03</rscale>
<asrwt>0</asrwt>
<pdfrwt beam="1">  1        2 0.88544512E-01 0.69599872E+03</pdfrwt>
<pdfrwt beam="2">  1       -2 0.27912527E-01 0.69599872E+03</pdfrwt>
<totfact> 0.61412625E+02</totfact>
</mgrwt>
</event>
<event>
 4    1  0.5069019E-005  0.6970065E+03  0.7818608E-02  0.9722365E-01
         -2   -1    0    0    0  501 -0.00000000000E+00  0.00000000000E+00  0.31135544347E+03  0.31135544348E+03  0.25500000000E-02 0. -1.
          2   -1    0    0  501    0  0.00000000000E+00 -0.00000000000E+00 -0.39008312499E+03  0.39008312500E+03  0.25500000000E-02 0.  1.
    5000001    1    1    2    0    0 -0.13293371113E+03 -0.23211241118E+03  0.62799971154E+02  0.33925267774E+03  0.19900000000E+03 0.  0.
   -5000001    1    1    2    0    0  0.13293371113E+03  0.23211241118E+03 -0.14152765268E+03  0.36218589074E+03  0.19900000000E+03 0.  0.
<mgrwt>
<rscale>  0 0.69700647E+03</rscale>
<asrwt>0</asrwt>
<pdfrwt beam="1">  1        2 0.55726161E-01 0.69700647E+03</pdfrwt>
<pdfrwt beam="2">  1       -2 0.44479349E-01 0.69700647E+03</pdfrwt>
<totfact> 0.42954743E+02</totfact>
</mgrwt>
</event>
<event>
 4    1  0.5069019E-005  0.6339036E+03  0.7818608E-02  0.9837461E-01
         -2   -1    0    0    0  501 -0.00000000000E+00  0.00000000000E+00  0.41560158903E+03  0.41560158904E+03  0.25500000000E-02 0. -1.
          2   -1    0    0  501    0  0.00000000000E+00 -0.00000000000E+00 -0.24171817745E+03  0.24171817746E+03  0.25500000000E-02 0.  1.
    5000001    1    1    2    0    0 -0.18428119875E+03 -0.10529668211E+03 -0.43442907199E+02  0.29416872312E+03  0.19900000000E+03 0.  0.
   -5000001    1    1    2    0    0  0.18428119875E+03  0.10529668211E+03  0.21732631878E+03  0.36315104338E+03  0.19900000000E+03 0.  0.
<mgrwt>
<rscale>  0 0.63390365E+03</rscale>
<asrwt>0</asrwt>
<pdfrwt beam="1">  1        2 0.34531169E-01 0.63390365E+03</pdfrwt>
<pdfrwt beam="2">  1       -2 0.59371655E-01 0.63390365E+03</pdfrwt>
<totfact> 0.40574244E+02</totfact>
</mgrwt>
</event>
<event>
 4    1  0.5069019E-005  0.8221974E+03  0.7818608E-02  0.9528432E-01
         -2   -1    0    0    0  501 -0.00000000000E+00  0.00000000000E+00  0.15703656895E+03  0.15703656897E+03  0.25500000000E-02 0. -1.
          2   -1    0    0  501    0  0.00000000000E+00 -0.00000000000E+00 -0.10761960515E+04  0.10761960515E+04  0.25500000000E-02 0.  1.
    5000001    1    1    2    0    0  0.24410501499E+03 -0.21812184248E+03 -0.23591142896E+03  0.44991065649E+03  0.19900000000E+03 0.  0.
   -5000001    1    1    2    0    0 -0.24410501499E+03  0.21812184248E+03 -0.68324805362E+03  0.78332196400E+03  0.19900000000E+03 0.  0.
<mgrwt>
<rscale>  0 0.82219739E+03</rscale>
<asrwt>0</asrwt>
<pdfrwt beam="1">  1        2 0.15374229E+00 0.82219739E+03</pdfrwt>
<pdfrwt beam="2">  1       -2 0.22433796E-01 0.82219739E+03</pdfrwt>
<totfact> 0.44055339E+02</totfact>
</mgrwt>
</event>
<event>
 4    1  0.5069019E-005  0.6860972E+03  0.7818608E-02  0.9741308E-01
          2   -1    0    0  501    0  0.00000000000E+00  0.00000000000E+00  0.60625508648E+03  0.60625508648E+03  0.25500000000E-02 0.  1.
         -2   -1    0    0    0  501 -0.00000000000E+00 -0.00000000000E+00 -0.19411354924E+03  0.19411354926E+03  0.25500000000E-02 0. -1.
    5000001    1    1    2    0    0  0.15958083861E+03 -0.22938021359E+03  0.20608510651E+03  0.40019170102E+03  0.19900000000E+03 0.  0.
   -5000001    1    1    2    0    0 -0.15958083861E+03  0.22938021359E+03  0.20605643072E+03  0.40017693472E+03  0.19900000000E+03 0.  0.
<mgrwt>
<rscale>  0 0.68609716E+03</rscale>
<asrwt>0</asrwt>
<pdfrwt beam="1">  1        2 0.86607870E-01 0.68609716E+03</pdfrwt>
<pdfrwt beam="2">  1       -2 0.27730507E-01 0.68609716E+03</pdfrwt>
<totfact> 0.63821722E+02</totfact>
</mgrwt>
</event>
<event>
 4    1  0.5069019E-005  0.7310196E+03  0.7818608E-02  0.9665607E-01
         -2   -1    0    0    0  501 -0.00000000000E+00  0.00000000000E+00  0.13348721419E+03  0.13348721422E+03  0.25500000000E-02 0. -1.
          2   -1    0    0  501    0  0.00000000000E+00 -0.00000000000E+00 -0.10008255287E+04  0.10008255287E+04  0.25500000000E-02 0.  1.
    5000001    1    1    2    0    0 -0.15286056670E+03  0.26047304770E+03 -0.51553952336E+03  0.62975754189E+03  0.19900000000E+03 0.  0.
   -5000001    1    1    2    0    0  0.15286056670E+03 -0.26047304770E+03 -0.35179879116E+03  0.50455520103E+03  0.19900000000E+03 0.  0.
<mgrwt>
<rscale>  0 0.73101959E+03</rscale>
<asrwt>0</asrwt>
<pdfrwt beam="1">  1        2 0.14297507E+00 0.73101959E+03</pdfrwt>
<pdfrwt beam="2">  1       -2 0.19069603E-01 0.73101959E+03</pdfrwt>
<totfact> 0.65318353E+02</totfact>
</mgrwt>
</event>
<event>
 4    1  0.5069019E-005  0.5347725E+03  0.7818608E-02  0.1005081E+00
         -2   -1    0    0    0  501 -0.00000000000E+00  0.00000000000E+00  0.45939049189E+03  0.45939049190E+03  0.25500000000E-02 0. -1.
          2   -1    0    0  501    0  0.00000000000E+00 -0.00000000000E+00 -0.15563103227E+03  0.15563103229E+03  0.25500000000E-02 0.  1.
    5000001    1    1    2    0    0  0.24381364973E+02  0.17511300050E+03  0.18086956212E+03  0.32182885577E+03  0.19900000000E+03 0.  0.
   -5000001    1    1    2    0    0 -0.24381364973E+02 -0.17511300050E+03  0.12288989751E+03  0.29319266842E+03  0.19900000000E+03 0.  0.
<mgrwt>
<rscale>  0 0.53477254E+03</rscale>
<asrwt>0</asrwt>
<pdfrwt beam="1">  1        2 0.22233004E-01 0.53477254E+03</pdfrwt>
<pdfrwt beam="2">  1       -2 0.65627215E-01 0.53477254E+03</pdfrwt>
<totfact> 0.54108125E+02</totfact>
</mgrwt>
</event>
<event>
 4    1  0.5069019E-005  0.4263092E+03  0.7818608E-02  0.1035032E+00
          2   -1    0    0  501    0  0.00000000000E+00  0.00000000000E+00  0.66051985071E+03  0.66051985072E+03  0.25500000000E-02 0.  1.
         -2   -1    0    0    0  501 -0.00000000000E+00 -0.00000000000E+00 -0.68786554219E+02  0.68786554267E+02  0.25500000000E-02 0. -1.
    5000001    1    1    2    0    0  0.67672153015E+02 -0.53053412072E+01  0.35577247842E+03  0.41325866396E+03  0.19900000000E+03 0.  0.
   -5000001    1    1    2    0    0 -0.67672153015E+02  0.53053412072E+01  0.23596081807E+03  0.31604774102E+03  0.19900000000E+03 0.  0.
<mgrwt>
<rscale>  0 0.42630920E+03</rscale>
<asrwt>0</asrwt>
<pdfrwt beam="1">  1        2 0.94359979E-01 0.42630920E+03</pdfrwt>
<pdfrwt beam="2">  1       -2 0.98266505E-02 0.42630920E+03</pdfrwt>
<totfact> 0.33793293E+03</totfact>
</mgrwt>
</event>
<event>
 4    1  0.5069019E-005  0.4785751E+03  0.7818608E-02  0.1019528E+00
          2   -1    0    0  501    0  0.00000000000E+00  0.00000000000E+00  0.63800728550E+03  0.63800728550E+03  0.25500000000E-02 0.  1.
         -2   -1    0    0    0  501 -0.00000000000E+00 -0.00000000000E+00 -0.89745886089E+02  0.89745886125E+02  0.25500000000E-02 0. -1.
    5000001    1    1    2    0    0 -0.51204004097E+02  0.10013810935E+03  0.38174446663E+03  0.44494868107E+03  0.19900000000E+03 0.  0.
   -5000001    1    1    2    0    0  0.51204004097E+02 -0.10013810935E+03  0.16651693277E+03  0.28280449056E+03  0.19900000000E+03 0.  0.
<mgrwt>
<rscale>  0 0.47857509E+03</rscale>
<asrwt>0</asrwt>
<pdfrwt beam="1">  1        2 0.91143893E-01 0.47857509E+03</pdfrwt>
<pdfrwt beam="2">  1       -2 0.12820842E-01 0.47857509E+03</pdfrwt>
<totfact> 0.22874947E+03</totfact>
</mgrwt>
</event>
<event>
 4    1  0.5069019E-005  0.6097789E+03  0.7818608E-02  0.9885323E-01
          2   -1    0    0  501    0  0.00000000000E+00  0.00000000000E+00  0.31260977505E+04  0.31260977505E+04  0.25500000000E-02 0.  1.
         -2   -1    0    0    0  501 -0.00000000000E+00 -0.00000000000E+00 -0.29735980223E+02  0.29735980333E+02  0.25500000000E-02 0. -1.
    5000001    1    1    2    0    0  0.14657525952E+00 -0.23037200209E+03  0.16355972555E+04  0.16636858666E+04  0.19900000000E+03 0.  0.
   -5000001    1    1    2    0    0 -0.14657525952E+00  0.23037200209E+03  0.14607645148E+04  0.14921478642E+04  0.19900000000E+03 0.  0.
<mgrwt>
<rscale>  0 0.60977891E+03</rscale>
<asrwt>0</asrwt>
<pdfrwt beam="1">  1        2 0.44658533E+00 0.60977891E+03</pdfrwt>
<pdfrwt beam="2">  1       -2 0.42479978E-02 0.60977891E+03</pdfrwt>
<totfact> 0.56724782E+02</totfact>
</mgrwt>
</event>
<event>
 4    1  0.5069019E-005  0.4999386E+03  0.7818608E-02  0.1013795E+00
         -2   -1    0    0    0  501 -0.00000000000E+00  0.00000000000E+00  0.60468610862E+02  0.60468610915E+02  0.25500000000E-02 0. -1.
          2   -1    0    0  501    0  0.00000000000E+00 -0.00000000000E+00 -0.10333400678E+04  0.10333400678E+04  0.25500000000E-02 0.  1.
    5000001    1    1    2    0    0 -0.99484022941E+02 -0.97471892229E+02 -0.61560994604E+03  0.66179637825E+03  0.19900000000E+03 0.  0.
   -5000001    1    1    2    0    0  0.99484022941E+02  0.97471892229E+02 -0.35726151093E+03  0.43201230050E+03  0.19900000000E+03 0.  0.
<mgrwt>
<rscale>  0 0.49993855E+03</rscale>
<asrwt>0</asrwt>
<pdfrwt beam="1">  1        2 0.14762000E+00 0.49993855E+03</pdfrwt>
<pdfrwt beam="2">  1       -2 0.86383737E-02 0.49993855E+03</pdfrwt>
<totfact> 0.23365161E+03</totfact>
</mgrwt>
</event>
<event>
 4    1  0.5069019E-005  0.6089131E+03  0.7818608E-02  0.9887085E-01
          2   -1    0    0  501    0  0.00000000000E+00  0.00000000000E+00  0.10919827111E+04  0.10919827111E+04  0.25500000000E-02 0.  1.
         -2   -1    0    0    0  501 -0.00000000000E+00 -0.00000000000E+00 -0.84885771160E+02  0.84885771199E+02  0.25500000000E-02 0. -1.
    5000001    1    1    2    0    0 -0.30459392245E+02 -0.22566869014E+03  0.43552652279E+03  0.53022493750E+03  0.19900000000E+03 0.  0.
   -5000001    1    1    2    0    0  0.30459392245E+02  0.22566869014E+03  0.57157041718E+03  0.64664354484E+03  0.19900000000E+03 0.  0.
<mgrwt>
<rscale>  0 0.60891311E+03</rscale>
<asrwt>0</asrwt>
<pdfrwt beam="1">  1        2 0.15599752E+00 0.60891311E+03</pdfrwt>
<pdfrwt beam="2">  1       -2 0.12126540E-01 0.60891311E+03</pdfrwt>
<totfact> 0.12430015E+03</totfact>
</mgrwt>
</event>
<event>
 4    1  0.5069019E-005  0.7724329E+03  0.7818608E-02  0.9600799E-01
         -2   -1    0    0    0  501 -0.00000000000E+00  0.00000000000E+00  0.61699231151E+02  0.61699231204E+02  0.25500000000E-02 0. -1.
          2   -1    0    0  501    0  0.00000000000E+00 -0.00000000000E+00 -0.24175849927E+04  0.24175849927E+04  0.25500000000E-02 0.  1.
    5000001    1    1    2    0    0 -0.30827892298E+03  0.33678850968E+02 -0.15493822223E+04  0.15925942453E+04  0.19900000000E+03 0.  0.
   -5000001    1    1    2    0    0  0.30827892298E+03 -0.33678850968E+02 -0.80650353926E+03  0.88668997863E+03  0.19900000000E+03 0.  0.
<mgrwt>
<rscale>  0 0.77243287E+03</rscale>
<asrwt>0</asrwt>
<pdfrwt beam="1">  1        2 0.34536922E+00 0.77243287E+03</pdfrwt>
<pdfrwt beam="2">  1       -2 0.88141774E-02 0.77243287E+03</pdfrwt>
<totfact> 0.42193555E+02</totfact>
</mgrwt>
</event>
<event>
 4    1  0.5069019E-005  0.5206570E+03  0.7818608E-02  0.1008523E+00
         -2   -1    0    0    0  501 -0.00000000000E+00  0.00000000000E+00  0.26766134208E+04  0.26766134208E+04  0.25500000000E-02 0. -1.
          2   -1    0    0  501    0  0.00000000000E+00 -0.00000000000E+00 -0.25319656903E+02  0.25319657031E+02  0.25500000000E-02 0.  1.
    5000001    1    1    2    0    0 -0.12870689029E+03 -0.95897642584E+02  0.15803071642E+04  0.16008540079E+04  0.19900000000E+03 0.  0.
   -5000001    1    1    2    0    0  0.12870689029E+03  0.95897642584E+02  0.10709865997E+04  0.11010790699E+04  0.19900000000E+03 0.  0.
<mgrwt>
<rscale>  0 0.52065702E+03</rscale>
<asrwt>0</asrwt>
<pdfrwt beam="1">  1        2 0.36170945E-02 0.52065702E+03</pdfrwt>
<pdfrwt beam="2">  1       -2 0.38237328E+00 0.52065702E+03</pdfrwt>
<totfact> 0.27190026E+01</totfact>
</mgrwt>
</event>
<event>
 4    1  0.5069019E-005  0.7400552E+03  0.7818608E-02  0.9651083E-01
          2   -1    0    0  501    0  0.00000000000E+00  0.00000000000E+00  0.47407431004E+03  0.47407431005E+03  0.25500000000E-02 0.  1.
         -2   -1    0    0    0  501 -0.00000000000E+00 -0.00000000000E+00 -0.28881639467E+03  0.28881639468E+03  0.25500000000E-02 0. -1.
    5000001    1    1    2    0    0  0.23147462487E+03 -0.16408223949E+03 -0.41048721277E+02  0.34898349645E+03  0.19900000000E+03 0.  0.
   -5000001    1    1    2    0    0 -0.23147462487E+03  0.16408223949E+03  0.22630663665E+03  0.41390720828E+03  0.19900000000E+03 0.  0.
<mgrwt>
<rscale>  0 0.74005522E+03</rscale>
<asrwt>0</asrwt>
<pdfrwt beam="1">  1        2 0.67724901E-01 0.74005522E+03</pdfrwt>
<pdfrwt beam="2">  1       -2 0.41259485E-01 0.74005522E+03</pdfrwt>
<totfact> 0.39963630E+02</totfact>
</mgrwt>
</event>
<event>
 4    1  0.5069019E-005  0.4741493E+03  0.7818608E-02  0.1020756E+00
         -2   -1    0    0    0  501 -0.00000000000E+00  0.00000000000E+00  0.42680315219E+03  0.42680315219E+03  0.25500000000E-02 0.  1.
          2   -1    0    0  501    0  0.00000000000E+00 -0.00000000000E+00 -0.13168688877E+03  0.13168688880E+03  0.25500000000E-02 0. -1.
    5000001    1    1    2    0    0 -0.11803623458E+03  0.48807328081E+02  0.16757066914E+03  0.28982000812E+03  0.19900000000E+03 0.  0.
   -5000001    1    1    2    0    0  0.11803623458E+03 -0.48807328081E+02  0.12754559427E+03  0.26867003288E+03  0.19900000000E+03 0.  0.
<mgrwt>
<rscale>  0 0.47414926E+03</rscale>
<asrwt>0</asrwt>
<pdfrwt beam="1">  1        2 0.18812412E-01 0.47414926E+03</pdfrwt>
<pdfrwt beam="2">  1       -2 0.60971880E-01 0.47414926E+03</pdfrwt>
<totfact> 0.76822699E+02</totfact>
</mgrwt>
</event>
<event>
 4    1  0.5069019E-005  0.5353754E+03  0.7818608E-02  0.1004937E+00
          2   -1    0    0  501    0  0.00000000000E+00  0.00000000000E+00  0.20284273150E+03  0.20284273151E+03  0.25500000000E-02 0.  1.
         -2   -1    0    0    0  501 -0.00000000000E+00 -0.00000000000E+00 -0.35326237109E+03  0.35326237110E+03  0.25500000000E-02 0. -1.
    5000001    1    1    2    0    0  0.79527696648E+02  0.14444128106E+03 -0.14768066389E+03  0.29765502968E+03  0.19900000000E+03 0.  0.
   -5000001    1    1    2    0    0 -0.79527696648E+02 -0.14444128106E+03 -0.27389756996E+01  0.25845007293E+03  0.19900000000E+03 0.  0.
<mgrwt>
<rscale>  0 0.53537540E+03</rscale>
<asrwt>0</asrwt>
<pdfrwt beam="1">  1        2 0.28977533E-01 0.53537540E+03</pdfrwt>
<pdfrwt beam="2">  1       -2 0.50466053E-01 0.53537540E+03</pdfrwt>
<totfact> 0.69130692E+02</totfact>
</mgrwt>
</event>
<event>
 4    1  0.5069019E-005  0.5559689E+03  0.7818608E-02  0.1000122E+00
          2   -1    0    0  501    0  0.00000000000E+00  0.00000000000E+00  0.84295237402E+03  0.84295237402E+03  0.25500000000E-02 0.  1.
         -2   -1    0    0    0  501 -0.00000000000E+00 -0.00000000000E+00 -0.91672258034E+02  0.91672258069E+02  0.25500000000E-02 0. -1.
    5000001    1    1    2    0    0  0.70677758971E+02 -0.18077294810E+03  0.37500394755E+03  0.46680099085E+03  0.19900000000E+03 0.  0.
   -5000001    1    1    2    0    0 -0.70677758971E+02  0.18077294810E+03  0.37627616843E+03  0.46782364124E+03  0.19900000000E+03 0.  0.
<mgrwt>
<rscale>  0 0.55596888E+03</rscale>
<asrwt>0</asrwt>
<pdfrwt beam="1">  1        2 0.12042176E+00 0.55596888E+03</pdfrwt>
<pdfrwt beam="2">  1       -2 0.13096038E-01 0.55596888E+03</pdfrwt>
<totfact> 0.15650255E+03</totfact>
</mgrwt>
</event>
<event>
 4    1  0.5069019E-005  0.6244466E+03  0.7818608E-02  0.9855946E-01
         -2   -1    0    0    0  501 -0.00000000000E+00  0.00000000000E+00  0.18225923972E+03  0.18225923974E+03  0.25500000000E-02 0. -1.
          2   -1    0    0  501    0  0.00000000000E+00 -0.00000000000E+00 -0.53486124840E+03  0.53486124841E+03  0.25500000000E-02 0.  1.
    5000001    1    1    2    0    0  0.14692650589E+03 -0.18998401159E+03 -0.19258582831E+03  0.36656735269E+03  0.19900000000E+03 0.  0.
   -5000001    1    1    2    0    0 -0.14692650589E+03  0.18998401159E+03 -0.16001618037E+03  0.35055313545E+03  0.19900000000E+03 0.  0.
<mgrwt>
<rscale>  0 0.62444665E+03</rscale>
<asrwt>0</asrwt>
<pdfrwt beam="1">  1        2 0.76408749E-01 0.62444665E+03</pdfrwt>
<pdfrwt beam="2">  1       -2 0.26037034E-01 0.62444665E+03</pdfrwt>
<totfact> 0.82946220E+02</totfact>
</mgrwt>
</event>
<event>
 4    1  0.5069019E-005  0.5252392E+03  0.7818608E-02  0.1007393E+00
         -2   -1    0    0    0  501 -0.00000000000E+00  0.00000000000E+00  0.30621433194E+02  0.30621433301E+02  0.25500000000E-02 0. -1.
          2   -1    0    0  501    0  0.00000000000E+00 -0.00000000000E+00 -0.22523127396E+04  0.22523127396E+04  0.25500000000E-02 0.  1.
    5000001    1    1    2    0    0  0.11852345818E+03  0.68532475675E+02 -0.15588382040E+04  0.15774416175E+04  0.19900000000E+03 0.  0.
   -5000001    1    1    2    0    0 -0.11852345818E+03 -0.68532475675E+02 -0.66285310240E+03  0.70549255540E+03  0.19900000000E+03 0.  0.
<mgrwt>
<rscale>  0 0.52523916E+03</rscale>
<asrwt>0</asrwt>
<pdfrwt beam="1">  1        2 0.32175886E+00 0.52523916E+03</pdfrwt>
<pdfrwt beam="2">  1       -2 0.43744919E-02 0.52523916E+03</pdfrwt>
<totfact> 0.15669419E+03</totfact>
</mgrwt>
</event>
<event>
 4    1  0.5069019E-005  0.7001789E+03  0.7818608E-02  0.9716926E-01
         -2   -1    0    0    0  501 -0.00000000000E+00  0.00000000000E+00  0.57768998955E+03  0.57768998955E+03  0.25500000000E-02 0. -1.
          2   -1    0    0  501    0  0.00000000000E+00 -0.00000000000E+00 -0.21215986562E+03  0.21215986563E+03  0.25500000000E-02 0.  1.
    5000001    1    1    2    0    0 -0.95448799283E+02  0.25678290378E+03  0.82413246006E+02  0.34848368122E+03  0.19900000000E+03 0.  0.
   -5000001    1    1    2    0    0  0.95448799283E+02 -0.25678290378E+03  0.28311687792E+03  0.44136617397E+03  0.19900000000E+03 0.  0.
<mgrwt>
<rscale>  0 0.70017892E+03</rscale>
<asrwt>0</asrwt>
<pdfrwt beam="1">  1        2 0.30308553E-01 0.70017892E+03</pdfrwt>
<pdfrwt beam="2">  1       -2 0.82527140E-01 0.70017892E+03</pdfrwt>
<totfact> 0.22884098E+02</totfact>
</mgrwt>
</event>
<event>
 4    1  0.5069019E-005  0.9032980E+03  0.7818608E-02  0.9421468E-01
          2   -1    0    0  501    0  0.00000000000E+00  0.00000000000E+00  0.71285456858E+03  0.71285456858E+03  0.25500000000E-02 0. -1.
         -2   -1    0    0    0  501 -0.00000000000E+00 -0.00000000000E+00 -0.28615489543E+03  0.28615489544E+03  0.25500000000E-02 0.  1.
    5000001    1    1    2    0    0 -0.13647891450E+03 -0.35857473226E+03  0.35832521744E+03  0.56142701589E+03  0.19900000000E+03 0.  0.
   -5000001    1    1    2    0    0  0.13647891450E+03  0.35857473226E+03  0.68374455704E+02  0.43758244813E+03  0.19900000000E+03 0.  0.
<mgrwt>
<rscale>  0 0.90329801E+03</rscale>
<asrwt>0</asrwt>
<pdfrwt beam="1">  1        2 0.10183637E+00 0.90329801E+03</pdfrwt>
<pdfrwt beam="2">  1       -2 0.40879271E-01 0.90329801E+03</pdfrwt>
<totfact> 0.24970275E+02</totfact>
</mgrwt>
</event>
<event>
 4    1  0.5069019E-005  0.4335196E+03  0.7818608E-02  0.1032754E+00
         -2   -1    0    0    0  501 -0.00000000000E+00  0.00000000000E+00  0.47157277995E+02  0.47157278064E+02  0.25500000000E-02 0. -1.
          2   -1    0    0  501    0  0.00000000000E+00 -0.00000000000E+00 -0.99634289535E+03  0.99634289535E+03  0.25500000000E-02 0.  1.
    5000001    1    1    2    0    0 -0.43765053801E+02 -0.36071410486E+02 -0.62997839653E+03  0.66309147686E+03  0.19900000000E+03 0.  0.
   -5000001    1    1    2    0    0  0.43765053801E+02  0.36071410486E+02 -0.31920722082E+03  0.38040869655E+03  0.19900000000E+03 0.  0.
<mgrwt>
<rscale>  0 0.43351964E+03</rscale>
<asrwt>0</asrwt>
<pdfrwt beam="1">  1        2 0.14233469E+00 0.43351964E+03</pdfrwt>
<pdfrwt beam="2">  1       -2 0.67367546E-02 0.43351964E+03</pdfrwt>
<totfact> 0.36399141E+03</totfact>
</mgrwt>
</event>
<event>
 4    1  0.5069019E-005  0.4859713E+03  0.7818608E-02  0.1017507E+00
         -2   -1    0    0    0  501 -0.00000000000E+00  0.00000000000E+00  0.30622915758E+02  0.30622915865E+02  0.25500000000E-02 0. -1.
          2   -1    0    0  501    0  0.00000000000E+00 -0.00000000000E+00 -0.19280338031E+04  0.19280338031E+04  0.25500000000E-02 0.  1.
    5000001    1    1    2    0    0 -0.12380556129E+03  0.63862457436E+02 -0.97247670559E+03  0.10023563106E+04  0.19900000000E+03 0.  0.
   -5000001    1    1    2    0    0  0.12380556129E+03 -0.63862457436E+02 -0.92493418175E+03  0.95630040837E+03  0.19900000000E+03 0.  0.
<mgrwt>
<rscale>  0 0.48597126E+03</rscale>
<asrwt>0</asrwt>
<pdfrwt beam="1">  1        2 0.27543332E+00 0.48597126E+03</pdfrwt>
<pdfrwt beam="2">  1       -2 0.43747035E-02 0.48597126E+03</pdfrwt>
<totfact> 0.22797770E+03</totfact>
</mgrwt>
</event>
<event>
 4    1  0.5069019E-005  0.6026619E+03  0.7818608E-02  0.9899899E-01
         -2   -1    0    0    0  501 -0.00000000000E+00  0.00000000000E+00  0.54885565303E+02  0.54885565362E+02  0.25500000000E-02 0. -1.
          2   -1    0    0  501    0  0.00000000000E+00 -0.00000000000E+00 -0.16543574557E+04  0.16543574557E+04  0.25500000000E-02 0.  1.
    5000001    1    1    2    0    0  0.70493625445E+02 -0.20936241591E+03 -0.66086935613E+03  0.72467322173E+03  0.19900000000E+03 0.  0.
   -5000001    1    1    2    0    0 -0.70493625445E+02  0.20936241591E+03 -0.93860253428E+03  0.98456979935E+03  0.19900000000E+03 0.  0.
<mgrwt>
<rscale>  0 0.60266191E+03</rscale>
<asrwt>0</asrwt>
<pdfrwt beam="1">  1        2 0.23633675E+00 0.60266191E+03</pdfrwt>
<pdfrwt beam="2">  1       -2 0.78407961E-02 0.60266191E+03</pdfrwt>
<totfact> 0.12535966E+03</totfact>
</mgrwt>
</event>
<event>
 4    1  0.5069019E-005  0.8509782E+03  0.7818608E-02  0.9489025E-01
          2   -1    0    0  501    0  0.00000000000E+00  0.00000000000E+00  0.88183008609E+03  0.88183008609E+03  0.25500000000E-02 0.  1.
         -2   -1    0    0    0  501 -0.00000000000E+00 -0.00000000000E+00 -0.20530141604E+03  0.20530141605E+03  0.25500000000E-02 0. -1.
    5000001    1    1    2    0    0  0.40187032526E+01  0.24976659863E+03 -0.20896018647E+02  0.32005803749E+03  0.19900000000E+03 0.  0.
   -5000001    1    1    2    0    0 -0.40187032526E+01 -0.24976659863E+03  0.69742468870E+03  0.76707346465E+03  0.19900000000E+03 0.  0.
<mgrwt>
<rscale>  0 0.85097818E+03</rscale>
<asrwt>0</asrwt>
<pdfrwt beam="1">  1        2 0.12597573E+00 0.85097818E+03</pdfrwt>
<pdfrwt beam="2">  1       -2 0.29328774E-01 0.85097818E+03</pdfrwt>
<totfact> 0.35791235E+02</totfact>
</mgrwt>
</event>
<event>
 4    1  0.5069019E-005  0.6855655E+03  0.7818608E-02  0.9742241E-01
         -2   -1    0    0    0  501 -0.00000000000E+00  0.00000000000E+00  0.10524201769E+03  0.10524201772E+03  0.25500000000E-02 0. -1.
          2   -1    0    0  501    0  0.00000000000E+00 -0.00000000000E+00 -0.11164743827E+04  0.11164743827E+04  0.25500000000E-02 0.  1.
    5000001    1    1    2    0    0 -0.23322050087E+03  0.13311639566E+03 -0.37004818270E+03  0.49864660266E+03  0.19900000000E+03 0.  0.
   -5000001    1    1    2    0    0  0.23322050087E+03 -0.13311639566E+03 -0.64118418234E+03  0.72306979781E+03  0.19900000000E+03 0.  0.
<mgrwt>
<rscale>  0 0.68556551E+03</rscale>
<asrwt>0</asrwt>
<pdfrwt beam="1">  1        2 0.15949633E+00 0.68556551E+03</pdfrwt>
<pdfrwt beam="2">  1       -2 0.15034575E-01 0.68556551E+03</pdfrwt>
<totfact> 0.83853250E+02</totfact>
</mgrwt>
</event>
<event>
 4    1  0.5069019E-005  0.4420870E+03  0.7818608E-02  0.1030108E+00
         -2   -1    0    0    0  501 -0.00000000000E+00  0.00000000000E+00  0.23752360350E+02  0.23752360487E+02  0.25500000000E-02 0. -1.
          2   -1    0    0  501    0  0.00000000000E+00 -0.00000000000E+00 -0.20570679981E+04  0.20570679981E+04  0.25500000000E-02 0.  1.
    5000001    1    1    2    0    0 -0.51202834101E+02  0.80524744033E+02 -0.95838910270E+03  0.98347172648E+03  0.19900000000E+03 0.  0.
   -5000001    1    1    2    0    0  0.51202834101E+02 -0.80524744033E+02 -0.10749265350E+04  0.10973486321E+04  0.19900000000E+03 0.  0.
<mgrwt>
<rscale>  0 0.44208696E+03</rscale>
<asrwt>0</asrwt>
<pdfrwt beam="1">  1        2 0.29386674E+00 0.44208696E+03</pdfrwt>
<pdfrwt beam="2">  1       -2 0.33931957E-02 0.44208696E+03</pdfrwt>
<totfact> 0.29011089E+03</totfact>
</mgrwt>
</event>
<event>
 4    1  0.5069019E-005  0.5096152E+03  0.7818608E-02  0.1011299E+00
          2   -1    0    0  501    0  0.00000000000E+00  0.00000000000E+00  0.15462417688E+04  0.15462417688E+04  0.25500000000E-02 0.  1.
         -2   -1    0    0    0  501 -0.00000000000E+00 -0.00000000000E+00 -0.41990141823E+02  0.41990141900E+02  0.25500000000E-02 0. -1.
    5000001    1    1    2    0    0 -0.43316430621E+02  0.88025810310E+02  0.11426392354E+04  0.11639803601E+04  0.19900000000E+03 0.  0.
   -5000001    1    1    2    0    0  0.43316430621E+02 -0.88025810310E+02  0.36161239161E+03  0.42425155063E+03  0.19900000000E+03 0.  0.
<mgrwt>
<rscale>  0 0.50961519E+03</rscale>
<asrwt>0</asrwt>
<pdfrwt beam="1">  1        2 0.22089176E+00 0.50961519E+03</pdfrwt>
<pdfrwt beam="2">  1       -2 0.59985895E-02 0.50961519E+03</pdfrwt>
<totfact> 0.21787106E+03</totfact>
</mgrwt>
</event>
<event>
 4    1  0.5069019E-005  0.8064225E+03  0.7818608E-02  0.9550767E-01
          2   -1    0    0  501    0  0.00000000000E+00  0.00000000000E+00  0.21986684171E+04  0.21986684171E+04  0.25500000000E-02 0.  1.
         -2   -1    0    0    0  501 -0.00000000000E+00 -0.00000000000E+00 -0.73944445569E+02  0.73944445613E+02  0.25500000000E-02 0. -1.
    5000001    1    1    2    0    0 -0.16342255894E+03 -0.30296957964E+03  0.87371864527E+03  0.95993894079E+03  0.19900000000E+03 0.  0.
   -5000001    1    1    2    0    0  0.16342255894E+03  0.30296957964E+03  0.12510053262E+04  0.13126739219E+04  0.19900000000E+03 0.  0.
<mgrwt>
<rscale>  0 0.80642251E+03</rscale>
<asrwt>0</asrwt>
<pdfrwt beam="1">  1        2 0.31409546E+00 0.80642251E+03</pdfrwt>
<pdfrwt beam="2">  1       -2 0.10563493E-01 0.80642251E+03</pdfrwt>
<totfact> 0.40573507E+02</totfact>
</mgrwt>
</event>
<event>
 4    1  0.5069019E-005  0.6247086E+03  0.7818608E-02  0.9855429E-01
          2   -1    0    0  501    0  0.00000000000E+00  0.00000000000E+00  0.10704861101E+04  0.10704861101E+04  0.25500000000E-02 0.  1.
         -2   -1    0    0    0  501 -0.00000000000E+00 -0.00000000000E+00 -0.91141043472E+02  0.91141043508E+02  0.25500000000E-02 0. -1.
    5000001    1    1    2    0    0  0.12662314034E+03 -0.13075996163E+03  0.78269480834E+03  0.82785490892E+03  0.19900000000E+03 0.  0.
   -5000001    1    1    2    0    0 -0.12662314034E+03  0.13075996163E+03  0.19665025829E+03  0.33377224468E+03  0.19900000000E+03 0.  0.
<mgrwt>
<rscale>  0 0.62470864E+03</rscale>
<asrwt>0</asrwt>
<pdfrwt beam="1">  1        2 0.15292659E+00 0.62470864E+03</pdfrwt>
<pdfrwt beam="2">  1       -2 0.13020149E-01 0.62470864E+03</pdfrwt>
<totfact> 0.11371934E+03</totfact>
</mgrwt>
</event>
<event>
 4    1  0.5069019E-005  0.6842837E+03  0.7818608E-02  0.9744493E-01
         -2   -1    0    0    0  501 -0.00000000000E+00  0.00000000000E+00  0.74624082669E+02  0.74624082712E+02  0.25500000000E-02 0. -1.
          2   -1    0    0  501    0  0.00000000000E+00 -0.00000000000E+00 -0.15686763004E+04  0.15686763004E+04  0.25500000000E-02 0.  1.
    5000001    1    1    2    0    0 -0.27741449431E+03 -0.22214764904E+02 -0.74034818561E+03  0.81557877202E+03  0.19900000000E+03 0.  0.
   -5000001    1    1    2    0    0  0.27741449431E+03  0.22214764904E+02 -0.75370403208E+03  0.82772161105E+03  0.19900000000E+03 0.  0.
<mgrwt>
<rscale>  0 0.68428365E+03</rscale>
<asrwt>0</asrwt>
<pdfrwt beam="1">  1        2 0.22409659E+00 0.68428365E+03</pdfrwt>
<pdfrwt beam="2">  1       -2 0.10660584E-01 0.68428365E+03</pdfrwt>
<totfact> 0.84253660E+02</totfact>
</mgrwt>
</event>
<event>
 4    1  0.5069019E-005  0.5077106E+03  0.7818608E-02  0.1011786E+00
          2   -1    0    0  501    0  0.00000000000E+00  0.00000000000E+00  0.42687960307E+03  0.42687960308E+03  0.25500000000E-02 0.  1.
         -2   -1    0    0    0  501 -0.00000000000E+00 -0.00000000000E+00 -0.15096178548E+03  0.15096178550E+03  0.25500000000E-02 0. -1.
    5000001    1    1    2    0    0 -0.15110520541E+03  0.43681406060E+02  0.14937764841E+03  0.29437311389E+03  0.19900000000E+03 0.  0.
   -5000001    1    1    2    0    0  0.15110520541E+03 -0.43681406060E+02  0.12654016918E+03  0.28346827469E+03  0.19900000000E+03 0.  0.
<mgrwt>
<rscale>  0 0.50771058E+03</rscale>
<asrwt>0</asrwt>
<pdfrwt beam="1">  1        2 0.60982801E-01 0.50771058E+03</pdfrwt>
<pdfrwt beam="2">  1       -2 0.21565969E-01 0.50771058E+03</pdfrwt>
<totfact> 0.14974783E+03</totfact>
</mgrwt>
</event>
<event>
 4    1  0.5069019E-005  0.8760022E+03  0.7818608E-02  0.9456087E-01
          2   -1    0    0  501    0  0.00000000000E+00  0.00000000000E+00  0.11264234126E+04  0.11264234126E+04  0.25500000000E-02 0.  1.
         -2   -1    0    0    0  501 -0.00000000000E+00 -0.00000000000E+00 -0.17031336858E+03  0.17031336860E+03  0.25500000000E-02 0. -1.
    5000001    1    1    2    0    0  0.30740155187E+03  0.39240640434E+01  0.12237608959E+03  0.38611917807E+03  0.19900000000E+03 0.  0.
   -5000001    1    1    2    0    0 -0.30740155187E+03 -0.39240640434E+01  0.83373395443E+03  0.91061760313E+03  0.19900000000E+03 0.  0.
<mgrwt>
<rscale>  0 0.87600221E+03</rscale>
<asrwt>0</asrwt>
<pdfrwt beam="1">  1        2 0.16091762E+00 0.87600221E+03</pdfrwt>
<pdfrwt beam="2">  1       -2 0.24330482E-01 0.87600221E+03</pdfrwt>
<totfact> 0.35510663E+02</totfact>
</mgrwt>
</event>
<event>
 4    1  0.5069019E-005  0.4913644E+03  0.7818608E-02  0.1016058E+00
          2   -1    0    0  501    0  0.00000000000E+00  0.00000000000E+00  0.71446640129E+02  0.71446640175E+02  0.25500000000E-02 0.  1.
         -2   -1    0    0    0  501 -0.00000000000E+00 -0.00000000000E+00 -0.84482266717E+03  0.84482266717E+03  0.25500000000E-02 0. -1.
    5000001    1    1    2    0    0  0.94667805651E+02  0.10774743044E+03 -0.41220430197E+03  0.47967164682E+03  0.19900000000E+03 0.  0.
   -5000001    1    1    2    0    0 -0.94667805651E+02 -0.10774743044E+03 -0.36117172506E+03  0.43659766053E+03  0.19900000000E+03 0.  0.
<mgrwt>
<rscale>  0 0.49136439E+03</rscale>
<asrwt>0</asrwt>
<pdfrwt beam="1">  1        2 0.10206663E-01 0.49136439E+03</pdfrwt>
<pdfrwt beam="2">  1       -2 0.12068895E+00 0.49136439E+03</pdfrwt>
<totfact> 0.34319509E+02</totfact>
</mgrwt>
</event>
<event>
 4    1  0.5069019E-005  0.4857795E+03  0.7818608E-02  0.1017559E+00
          2   -1    0    0  501    0  0.00000000000E+00  0.00000000000E+00  0.56690754527E+02  0.56690754584E+02  0.25500000000E-02 0.  1.
         -2   -1    0    0    0  501 -0.00000000000E+00 -0.00000000000E+00 -0.10406535629E+04  0.10406535629E+04  0.25500000000E-02 0. -1.
    5000001    1    1    2    0    0  0.40588165139E+02  0.12136828467E+03 -0.61605382381E+03  0.65992497566E+03  0.19900000000E+03 0.  0.
   -5000001    1    1    2    0    0 -0.40588165139E+02 -0.12136828467E+03 -0.36790898452E+03  0.43741934178E+03  0.19900000000E+03 0.  0.
<mgrwt>
<rscale>  0 0.48577952E+03</rscale>
<asrwt>0</asrwt>
<pdfrwt beam="1">  1        2 0.80986798E-02 0.48577952E+03</pdfrwt>
<pdfrwt beam="2">  1       -2 0.14866478E+00 0.48577952E+03</pdfrwt>
<totfact> 0.27192294E+02</totfact>
</mgrwt>
</event>
<event>
 4    1  0.5069019E-005  0.4654206E+03  0.7818608E-02  0.1023221E+00
         -2   -1    0    0    0  501 -0.00000000000E+00  0.00000000000E+00  0.71663722015E+02  0.71663722061E+02  0.25500000000E-02 0. -1.
          2   -1    0    0  501    0  0.00000000000E+00 -0.00000000000E+00 -0.75566929832E+03  0.75566929832E+03  0.25500000000E-02 0.  1.
    5000001    1    1    2    0    0 -0.36924532362E+02  0.10617578818E+03 -0.26418608487E+03  0.34933079813E+03  0.19900000000E+03 0.  0.
   -5000001    1    1    2    0    0  0.36924532362E+02 -0.10617578818E+03 -0.41981949143E+03  0.47800222225E+03  0.19900000000E+03 0.  0.
<mgrwt>
<rscale>  0 0.46542056E+03</rscale>
<asrwt>0</asrwt>
<pdfrwt beam="1">  1        2 0.10795275E+00 0.46542056E+03</pdfrwt>
<pdfrwt beam="2">  1       -2 0.10237675E-01 0.46542056E+03</pdfrwt>
<totfact> 0.26889582E+03</totfact>
</mgrwt>
</event>
<event>
 4    1  0.5069019E-005  0.7946521E+03  0.7818608E-02  0.9567790E-01
         -2   -1    0    0    0  501 -0.00000000000E+00  0.00000000000E+00  0.30408561218E+03  0.30408561219E+03  0.25500000000E-02 0. -1.
          2   -1    0    0  501    0  0.00000000000E+00 -0.00000000000E+00 -0.51915638617E+03  0.51915638618E+03  0.25500000000E-02 0.  1.
    5000001    1    1    2    0    0 -0.20537350377E+03  0.20910343122E+03  0.78838349651E+02  0.36293113172E+03  0.19900000000E+03 0.  0.
   -5000001    1    1    2    0    0  0.20537350377E+03 -0.20910343122E+03 -0.29390912364E+03  0.46031086665E+03  0.19900000000E+03 0.  0.
<mgrwt>
<rscale>  0 0.79465209E+03</rscale>
<asrwt>0</asrwt>
<pdfrwt beam="1">  1        2 0.74165198E-01 0.79465209E+03</pdfrwt>
<pdfrwt beam="2">  1       -2 0.43440802E-01 0.79465209E+03</pdfrwt>
<totfact> 0.32484823E+02</totfact>
</mgrwt>
</event>
<event>
 4    1  0.5069019E-005  0.1462609E+04  0.7818608E-02  0.8909706E-01
          2   -1    0    0  501    0  0.00000000000E+00  0.00000000000E+00  0.11018107866E+04  0.11018107866E+04  0.25500000000E-02 0.  1.
         -2   -1    0    0    0  501 -0.00000000000E+00 -0.00000000000E+00 -0.48538827232E+03  0.48538827233E+03  0.25500000000E-02 0. -1.
    5000001    1    1    2    0    0  0.16553122050E+03  0.67581866948E+03  0.42240628139E+03  0.83794959606E+03  0.19900000000E+03 0.  0.
   -5000001    1    1    2    0    0 -0.16553122050E+03 -0.67581866948E+03  0.19401623287E+03  0.74924946286E+03  0.19900000000E+03 0.  0.
<mgrwt>
<rscale>  0 0.14626087E+04</rscale>
<asrwt>0</asrwt>
<pdfrwt beam="1">  1        2 0.15740154E+00 0.14626087E+04</pdfrwt>
<pdfrwt beam="2">  1       -2 0.69341183E-01 0.14626087E+04</pdfrwt>
<totfact> 0.44888469E+01</totfact>
</mgrwt>
</event>
<event>
 4    1  0.5069019E-005  0.6798188E+03  0.7818608E-02  0.9752381E-01
          2   -1    0    0  501    0  0.00000000000E+00  0.00000000000E+00  0.62073799820E+03  0.62073799821E+03  0.25500000000E-02 0.  1.
         -2   -1    0    0    0  501 -0.00000000000E+00 -0.00000000000E+00 -0.18613067764E+03  0.18613067765E+03  0.25500000000E-02 0. -1.
    5000001    1    1    2    0    0 -0.23221498020E+03  0.31620269663E+02  0.38935634427E+03  0.49610785249E+03  0.19900000000E+03 0.  0.
   -5000001    1    1    2    0    0  0.23221498020E+03 -0.31620269663E+02  0.45250976300E+02  0.31076082337E+03  0.19900000000E+03 0.  0.
<mgrwt>
<rscale>  0 0.67981875E+03</rscale>
<asrwt>0</asrwt>
<pdfrwt beam="1">  1        2 0.88676858E-01 0.67981875E+03</pdfrwt>
<pdfrwt beam="2">  1       -2 0.26590096E-01 0.67981875E+03</pdfrwt>
<totfact> 0.67003528E+02</totfact>
</mgrwt>
</event>
<event>
 4    1  0.5069019E-005  0.7419488E+03  0.7818608E-02  0.9648067E-01
          2   -1    0    0  501    0  0.00000000000E+00  0.00000000000E+00  0.15739137656E+04  0.15739137656E+04  0.25500000000E-02 0.  1.
         -2   -1    0    0    0  501 -0.00000000000E+00 -0.00000000000E+00 -0.87439349954E+02  0.87439349991E+02  0.25500000000E-02 0. -1.
    5000001    1    1    2    0    0 -0.12163897258E+03  0.22331760946E+03  0.33429371093E+03  0.46477960316E+03  0.19900000000E+03 0.  0.
   -5000001    1    1    2    0    0  0.12163897258E+03 -0.22331760946E+03  0.11521807047E+04  0.11965735124E+04  0.19900000000E+03 0.  0.
<mgrwt>
<rscale>  0 0.74194878E+03</rscale>
<asrwt>0</asrwt>
<pdfrwt beam="1">  1        2 0.22484483E+00 0.74194878E+03</pdfrwt>
<pdfrwt beam="2">  1       -2 0.12491336E-01 0.74194878E+03</pdfrwt>
<totfact> 0.64322174E+02</totfact>
</mgrwt>
</event>
<event>
 4    1  0.5069019E-005  0.4394963E+03  0.7818608E-02  0.1030901E+00
          2   -1    0    0  501    0  0.00000000000E+00  0.00000000000E+00  0.17910278456E+04  0.17910278456E+04  0.25500000000E-02 0.  1.
         -2   -1    0    0    0  501 -0.00000000000E+00 -0.00000000000E+00 -0.26961755480E+02  0.26961755601E+02  0.25500000000E-02 0. -1.
    5000001    1    1    2    0    0  0.40809914637E+02  0.62873115724E+02  0.65284626144E+03  0.68660594149E+03  0.19900000000E+03 0.  0.
   -5000001    1    1    2    0    0 -0.40809914637E+02 -0.62873115724E+02  0.11112198287E+04  0.11313836597E+04  0.19900000000E+03 0.  0.
<mgrwt>
<rscale>  0 0.43949633E+03</rscale>
<asrwt>0</asrwt>
<pdfrwt beam="1">  1        2 0.25586108E+00 0.43949633E+03</pdfrwt>
<pdfrwt beam="2">  1       -2 0.38516799E-02 0.43949633E+03</pdfrwt>
<totfact> 0.32457897E+03</totfact>
</mgrwt>
</event>
<event>
 4    1  0.5069019E-005  0.6850898E+03  0.7818608E-02  0.9743076E-01
         -2   -1    0    0    0  501 -0.00000000000E+00  0.00000000000E+00  0.85711166029E+02  0.85711166067E+02  0.25500000000E-02 0.  1.
          2   -1    0    0  501    0  0.00000000000E+00 -0.00000000000E+00 -0.13689817325E+04  0.13689817325E+04  0.25500000000E-02 0. -1.
    5000001    1    1    2    0    0  0.93889279221E+02  0.19768808672E+03 -0.27483895350E+03  0.40377373211E+03  0.19900000000E+03 0.  0.
   -5000001    1    1    2    0    0 -0.93889279221E+02 -0.19768808672E+03 -0.10084316130E+04  0.10509191665E+04  0.19900000000E+03 0.  0.
<mgrwt>
<rscale>  0 0.68508984E+03</rscale>
<asrwt>0</asrwt>
<pdfrwt beam="1">  1        2 0.19556881E+00 0.68508984E+03</pdfrwt>
<pdfrwt beam="2">  1       -2 0.12244453E-01 0.68508984E+03</pdfrwt>
<totfact> 0.85492524E+02</totfact>
</mgrwt>
</event>
<event>
 4    1  0.5069019E-005  0.1148060E+04  0.7818608E-02  0.9159575E-01
          2   -1    0    0  501    0  0.00000000000E+00  0.00000000000E+00  0.19644968248E+03  0.19644968250E+03  0.25500000000E-02 0.  1.
         -2   -1    0    0    0  501 -0.00000000000E+00 -0.00000000000E+00 -0.16773281855E+04  0.16773281855E+04  0.25500000000E-02 0. -1.
    5000001    1    1    2    0    0 -0.15290955745E+03 -0.32539042020E+03 -0.13946126535E+04  0.14538932944E+04  0.19900000000E+03 0.  0.
   -5000001    1    1    2    0    0  0.15290955745E+03  0.32539042020E+03 -0.86265849514E+02  0.41988457356E+03  0.19900000000E+03 0.  0.
<mgrwt>
<rscale>  0 0.11480603E+04</rscale>
<asrwt>0</asrwt>
<pdfrwt beam="1">  1        2 0.28064241E-01 0.11480603E+04</pdfrwt>
<pdfrwt beam="2">  1       -2 0.23961830E+00 0.11480603E+04</pdfrwt>
<totfact> 0.14217946E+01</totfact>
</mgrwt>
</event>
<event>
 4    1  0.5069019E-005  0.5428115E+03  0.7818608E-02  0.1003172E+00
          2   -1    0    0  501    0  0.00000000000E+00  0.00000000000E+00  0.16937851911E+04  0.16937851911E+04  0.25500000000E-02 0.  1.
         -2   -1    0    0    0  501 -0.00000000000E+00 -0.00000000000E+00 -0.43489031289E+02  0.43489031364E+02  0.25500000000E-02 0. -1.
    5000001    1    1    2    0    0 -0.14419464174E+03 -0.11203527302E+03  0.73950344578E+03  0.78728034615E+03  0.19900000000E+03 0.  0.
   -5000001    1    1    2    0    0  0.14419464174E+03  0.11203527302E+03  0.91079271399E+03  0.94999387628E+03  0.19900000000E+03 0.  0.
<mgrwt>
<rscale>  0 0.54281149E+03</rscale>
<asrwt>0</asrwt>
<pdfrwt beam="1">  1        2 0.24196929E+00 0.54281149E+03</pdfrwt>
<pdfrwt beam="2">  1       -2 0.62127194E-02 0.54281149E+03</pdfrwt>
<totfact> 0.17324265E+03</totfact>
</mgrwt>
</event>
<event>
 4    1  0.5069019E-005  0.5251880E+03  0.7818608E-02  0.1007406E+00
         -2   -1    0    0    0  501 -0.00000000000E+00  0.00000000000E+00  0.63276610879E+03  0.63276610879E+03  0.25500000000E-02 0. -1.
          2   -1    0    0  501    0  0.00000000000E+00 -0.00000000000E+00 -0.10897487310E+03  0.10897487313E+03  0.25500000000E-02 0.  1.
    5000001    1    1    2    0    0  0.14682198311E+02 -0.16349468654E+03  0.33120838585E+03  0.41981671516E+03  0.19900000000E+03 0.  0.
   -5000001    1    1    2    0    0 -0.14682198311E+02  0.16349468654E+03  0.19258284984E+03  0.32192426676E+03  0.19900000000E+03 0.  0.
<mgrwt>
<rscale>  0 0.52518799E+03</rscale>
<asrwt>0</asrwt>
<pdfrwt beam="1">  1        2 0.15567838E-01 0.52518799E+03</pdfrwt>
<pdfrwt beam="2">  1       -2 0.90395162E-01 0.52518799E+03</pdfrwt>
<totfact> 0.40509688E+02</totfact>
</mgrwt>
</event>
<event>
 4    1  0.5069019E-005  0.7402476E+03  0.7818608E-02  0.9650776E-01
         -2   -1    0    0    0  501 -0.00000000000E+00  0.00000000000E+00  0.68143642398E+02  0.68143642445E+02  0.25500000000E-02 0. -1.
          2   -1    0    0  501    0  0.00000000000E+00 -0.00000000000E+00 -0.20103362644E+04  0.20103362644E+04  0.25500000000E-02 0.  1.
    5000001    1    1    2    0    0  0.30037844590E+03 -0.85032554220E+01 -0.12075391742E+04  0.12601791037E+04  0.19900000000E+03 0.  0.
   -5000001    1    1    2    0    0 -0.30037844590E+03  0.85032554220E+01 -0.73465344786E+03  0.81830080323E+03  0.19900000000E+03 0.  0.
<mgrwt>
<rscale>  0 0.74024762E+03</rscale>
<asrwt>0</asrwt>
<pdfrwt beam="1">  1        2 0.28719086E+00 0.74024762E+03</pdfrwt>
<pdfrwt beam="2">  1       -2 0.97348073E-02 0.74024762E+03</pdfrwt>
<totfact> 0.58005026E+02</totfact>
</mgrwt>
</event>
<event>
 4    1  0.5069019E-005  0.6958834E+03  0.7818608E-02  0.9724298E-01
         -2   -1    0    0    0  501 -0.00000000000E+00  0.00000000000E+00  0.75535006213E+02  0.75535006256E+02  0.25500000000E-02 0. -1.
          2   -1    0    0  501    0  0.00000000000E+00 -0.00000000000E+00 -0.16027457415E+04  0.16027457415E+04  0.25500000000E-02 0.  1.
    5000001    1    1    2    0    0  0.14038075898E+03  0.11517933466E+03 -0.23253575707E+03  0.35587485853E+03  0.19900000000E+03 0.  0.
   -5000001    1    1    2    0    0 -0.14038075898E+03 -0.11517933466E+03 -0.12946749782E+04  0.13224058892E+04  0.19900000000E+03 0.  0.
<mgrwt>
<rscale>  0 0.69588335E+03</rscale>
<asrwt>0</asrwt>
<pdfrwt beam="1">  1        2 0.22896366E+00 0.69588335E+03</pdfrwt>
<pdfrwt beam="2">  1       -2 0.10790716E-01 0.69588335E+03</pdfrwt>
<totfact> 0.79270051E+02</totfact>
</mgrwt>
</event>
<event>
 4    1  0.5069019E-005  0.4626511E+03  0.7818608E-02  0.1024015E+00
          2   -1    0    0  501    0  0.00000000000E+00  0.00000000000E+00  0.47342221246E+03  0.47342221247E+03  0.25500000000E-02 0.  1.
         -2   -1    0    0    0  501 -0.00000000000E+00 -0.00000000000E+00 -0.11303123790E+03  0.11303123793E+03  0.25500000000E-02 0. -1.
    5000001    1    1    2    0    0 -0.29561302816E+02 -0.11382002887E+03  0.19164804802E+03  0.30026462313E+03  0.19900000000E+03 0.  0.
   -5000001    1    1    2    0    0  0.29561302816E+02  0.11382002887E+03  0.16874292654E+03  0.28618882727E+03  0.19900000000E+03 0.  0.
<mgrwt>
<rscale>  0 0.46265105E+03</rscale>
<asrwt>0</asrwt>
<pdfrwt beam="1">  1        2 0.67631745E-01 0.46265105E+03</pdfrwt>
<pdfrwt beam="2">  1       -2 0.16147320E-01 0.46265105E+03</pdfrwt>
<totfact> 0.21928131E+03</totfact>
</mgrwt>
</event>
<event>
 4    1  0.5069019E-005  0.5534842E+03  0.7818608E-02  0.1000691E+00
         -2   -1    0    0    0  501 -0.00000000000E+00  0.00000000000E+00  0.50463287951E+02  0.50463288015E+02  0.25500000000E-02 0. -1.
          2   -1    0    0  501    0  0.00000000000E+00 -0.00000000000E+00 -0.15176613904E+04  0.15176613904E+04  0.25500000000E-02 0.  1.
    5000001    1    1    2    0    0  0.14264368321E+03  0.32449520048E+02 -0.37990425338E+03  0.45313180583E+03  0.19900000000E+03 0.  0.
   -5000001    1    1    2    0    0 -0.14264368321E+03 -0.32449520048E+02 -0.10872938490E+04  0.11149928726E+04  0.19900000000E+03 0.  0.
<mgrwt>
<rscale>  0 0.55348418E+03</rscale>
<asrwt>0</asrwt>
<pdfrwt beam="1">  1        2 0.21680874E+00 0.55348418E+03</pdfrwt>
<pdfrwt beam="2">  1       -2 0.72090421E-02 0.55348418E+03</pdfrwt>
<totfact> 0.16869307E+03</totfact>
</mgrwt>
</event>
<event>
 4    1  0.5069019E-005  0.5094129E+03  0.7818608E-02  0.1011351E+00
          2   -1    0    0  501    0  0.00000000000E+00  0.00000000000E+00  0.16552268753E+04  0.16552268753E+04  0.25500000000E-02 0.  1.
         -2   -1    0    0    0  501 -0.00000000000E+00 -0.00000000000E+00 -0.39194245165E+02  0.39194245248E+02  0.25500000000E-02 0. -1.
    5000001    1    1    2    0    0  0.11170330046E+03  0.27573504057E+02  0.44309391950E+03  0.49917045882E+03  0.19900000000E+03 0.  0.
   -5000001    1    1    2    0    0 -0.11170330046E+03 -0.27573504057E+02  0.11729387106E+04  0.11952506617E+04  0.19900000000E+03 0.  0.
<mgrwt>
<rscale>  0 0.50941287E+03</rscale>
<asrwt>0</asrwt>
<pdfrwt beam="1">  1        2 0.23646098E+00 0.50941287E+03</pdfrwt>
<pdfrwt beam="2">  1       -2 0.55991779E-02 0.50941287E+03</pdfrwt>
<totfact> 0.21336204E+03</totfact>
</mgrwt>
</event>
<event>
 4    1  0.5069019E-005  0.6080400E+03  0.7818608E-02  0.9888865E-01
         -2   -1    0    0    0  501 -0.00000000000E+00  0.00000000000E+00  0.10811284425E+03  0.10811284428E+03  0.25500000000E-02 0.  1.
          2   -1    0    0  501    0  0.00000000000E+00 -0.00000000000E+00 -0.85492297232E+03  0.85492297233E+03  0.25500000000E-02 0. -1.
    5000001    1    1    2    0    0 -0.19643610129E+03 -0.11759705268E+03 -0.34129786598E+03  0.45661958129E+03  0.19900000000E+03 0.  0.
   -5000001    1    1    2    0    0  0.19643610129E+03  0.11759705268E+03 -0.40551226209E+03  0.50641623533E+03  0.19900000000E+03 0.  0.
<mgrwt>
<rscale>  0 0.60803998E+03</rscale>
<asrwt>0</asrwt>
<pdfrwt beam="1">  1        2 0.12213185E+00 0.60803998E+03</pdfrwt>
<pdfrwt beam="2">  1       -2 0.15444692E-01 0.60803998E+03</pdfrwt>
<totfact> 0.11650646E+03</totfact>
</mgrwt>
</event>
<event>
 4    1  0.5069019E-005  0.8523092E+03  0.7818608E-02  0.9487243E-01
          2   -1    0    0  501    0  0.00000000000E+00  0.00000000000E+00  0.17029112570E+03  0.17029112572E+03  0.25500000000E-02 0.  1.
         -2   -1    0    0    0  501 -0.00000000000E+00 -0.00000000000E+00 -0.10664545031E+04  0.10664545031E+04  0.25500000000E-02 0. -1.
    5000001    1    1    2    0    0 -0.31786070266E+03 -0.36680317239E+02 -0.73693183821E+03  0.82767771876E+03  0.19900000000E+03 0.  0.
   -5000001    1    1    2    0    0  0.31786070266E+03  0.36680317239E+02 -0.15923153919E+03  0.40906791006E+03  0.19900000000E+03 0.  0.
<mgrwt>
<rscale>  0 0.85230919E+03</rscale>
<asrwt>0</asrwt>
<pdfrwt beam="1">  1        2 0.24327304E-01 0.85230919E+03</pdfrwt>
<pdfrwt beam="2">  1       -2 0.15235064E+00 0.85230919E+03</pdfrwt>
<totfact> 0.65425393E+01</totfact>
</mgrwt>
</event>
<event>
 4    1  0.5069019E-005  0.8226807E+03  0.7818608E-02  0.9527756E-01
          2   -1    0    0  501    0  0.00000000000E+00  0.00000000000E+00  0.10298094039E+04  0.10298094039E+04  0.25500000000E-02 0.  1.
         -2   -1    0    0    0  501 -0.00000000000E+00 -0.00000000000E+00 -0.16430311629E+03  0.16430311631E+03  0.25500000000E-02 0. -1.
    5000001    1    1    2    0    0 -0.35720031803E+03  0.40030910401E+02  0.46197654585E+03  0.61823771310E+03  0.19900000000E+03 0.  0.
   -5000001    1    1    2    0    0  0.35720031803E+03 -0.40030910401E+02  0.40352974180E+03  0.57587480715E+03  0.19900000000E+03 0.  0.
<mgrwt>
<rscale>  0 0.82268073E+03</rscale>
<asrwt>0</asrwt>
<pdfrwt beam="1">  1        2 0.14711563E+00 0.82268073E+03</pdfrwt>
<pdfrwt beam="2">  1       -2 0.23471874E-01 0.82268073E+03</pdfrwt>
<totfact> 0.43330174E+02</totfact>
</mgrwt>
</event>
<event>
 4    1  0.5069019E-005  0.4794733E+03  0.7818608E-02  0.1019280E+00
         -2   -1    0    0    0  501 -0.00000000000E+00  0.00000000000E+00  0.18386420802E+02  0.18386420979E+02  0.25500000000E-02 0. -1.
          2   -1    0    0  501    0  0.00000000000E+00 -0.00000000000E+00 -0.31258750894E+04  0.31258750894E+04  0.25500000000E-02 0.  1.
    5000001    1    1    2    0    0  0.12677576128E+03  0.83041625071E+01 -0.18266284964E+04  0.18418234760E+04  0.19900000000E+03 0.  0.
   -5000001    1    1    2    0    0 -0.12677576128E+03 -0.83041625071E+01 -0.12808601722E+04  0.13024380344E+04  0.19900000000E+03 0.  0.
<mgrwt>
<rscale>  0 0.47947327E+03</rscale>
<asrwt>0</asrwt>
<pdfrwt beam="1">  1        2 0.44655324E+00 0.47947327E+03</pdfrwt>
<pdfrwt beam="2">  1       -2 0.26266336E-02 0.47947327E+03</pdfrwt>
<totfact> 0.11951772E+03</totfact>
</mgrwt>
</event>
<event>
 4    1  0.5069019E-005  0.4937116E+03  0.7818608E-02  0.1015433E+00
         -2   -1    0    0    0  501 -0.00000000000E+00  0.00000000000E+00  0.18723810753E+02  0.18723810926E+02  0.25500000000E-02 0. -1.
          2   -1    0    0  501    0  0.00000000000E+00 -0.00000000000E+00 -0.32545606364E+04  0.32545606364E+04  0.25500000000E-02 0.  1.
    5000001    1    1    2    0    0 -0.10442727234E+03 -0.66319033649E+02 -0.21329043883E+04  0.21457365633E+04  0.19900000000E+03 0.  0.
   -5000001    1    1    2    0    0  0.10442727234E+03  0.66319033649E+02 -0.11029324373E+04  0.11275478840E+04  0.19900000000E+03 0.  0.
<mgrwt>
<rscale>  0 0.49371157E+03</rscale>
<asrwt>0</asrwt>
<pdfrwt beam="1">  1        2 0.46493687E+00 0.49371157E+03</pdfrwt>
<pdfrwt beam="2">  1       -2 0.26748322E-02 0.49371157E+03</pdfrwt>
<totfact> 0.98444669E+02</totfact>
</mgrwt>
</event>
<event>
 4    1  0.5069019E-005  0.1011631E+04  0.7818608E-02  0.9295879E-01
         -2   -1    0    0    0  501 -0.00000000000E+00  0.00000000000E+00  0.12873714158E+03  0.12873714161E+03  0.25500000000E-02 0. -1.
          2   -1    0    0  501    0  0.00000000000E+00 -0.00000000000E+00 -0.19873795880E+04  0.19873795881E+04  0.25500000000E-02 0.  1.
    5000001    1    1    2    0    0 -0.64219956896E+02  0.45962801869E+03 -0.86774843997E+03  0.10039773272E+04  0.19900000000E+03 0.  0.
   -5000001    1    1    2    0    0  0.64219956896E+02 -0.45962801869E+03 -0.99089400650E+03  0.11121394025E+04  0.19900000000E+03 0.  0.
<mgrwt>
<rscale>  0 0.10116315E+04</rscale>
<asrwt>0</asrwt>
<pdfrwt beam="1">  1        2 0.28391135E+00 0.10116315E+04</pdfrwt>
<pdfrwt beam="2">  1       -2 0.18391021E-01 0.10116315E+04</pdfrwt>
<totfact> 0.20142703E+02</totfact>
</mgrwt>
</event>
<event>
 4    1  0.5069019E-005  0.5263942E+03  0.7818608E-02  0.1007110E+00
         -2   -1    0    0    0  501 -0.00000000000E+00  0.00000000000E+00  0.35390472256E+02  0.35390472347E+02  0.25500000000E-02 0. -1.
          2   -1    0    0  501    0  0.00000000000E+00 -0.00000000000E+00 -0.19573829965E+04  0.19573829965E+04  0.25500000000E-02 0.  1.
    5000001    1    1    2    0    0  0.15759989810E+02 -0.13934147770E+03 -0.58228783855E+03  0.63112958385E+03  0.19900000000E+03 0.  0.
   -5000001    1    1    2    0    0 -0.15759989810E+02  0.13934147770E+03 -0.13397046857E+04  0.13616438850E+04  0.19900000000E+03 0.  0.
<mgrwt>
<rscale>  0 0.52639418E+03</rscale>
<asrwt>0</asrwt>
<pdfrwt beam="1">  1        2 0.27962607E+00 0.52639418E+03</pdfrwt>
<pdfrwt beam="2">  1       -2 0.50557830E-02 0.52639418E+03</pdfrwt>
<totfact> 0.17607529E+03</totfact>
</mgrwt>
</event>
<event>
 4    1  0.5069019E-005  0.6596542E+03  0.7818608E-02  0.9788830E-01
          2   -1    0    0  501    0  0.00000000000E+00  0.00000000000E+00  0.13266889382E+04  0.13266889382E+04  0.25500000000E-02 0.  1.
         -2   -1    0    0    0  501 -0.00000000000E+00 -0.00000000000E+00 -0.81998067703E+02  0.81998067743E+02  0.25500000000E-02 0. -1.
    5000001    1    1    2    0    0  0.24947876056E+03 -0.30836179511E+02  0.45700796818E+03  0.55825424755E+03  0.19900000000E+03 0.  0.
   -5000001    1    1    2    0    0 -0.24947876056E+03  0.30836179511E+02  0.78768290232E+03  0.85043275839E+03  0.19900000000E+03 0.  0.
<mgrwt>
<rscale>  0 0.65965424E+03</rscale>
<asrwt>0</asrwt>
<pdfrwt beam="1">  1        2 0.18952698E+00 0.65965424E+03</pdfrwt>
<pdfrwt beam="2">  1       -2 0.11714010E-01 0.65965424E+03</pdfrwt>
<totfact> 0.97029170E+02</totfact>
</mgrwt>
</event>
<event>
 4    1  0.5069019E-005  0.7476356E+03  0.7818608E-02  0.9639067E-01
         -2   -1    0    0    0  501 -0.00000000000E+00  0.00000000000E+00  0.65287369207E+02  0.65287369256E+02  0.25500000000E-02 0. -1.
          2   -1    0    0  501    0  0.00000000000E+00 -0.00000000000E+00 -0.21403792967E+04  0.21403792967E+04  0.25500000000E-02 0.  1.
    5000001    1    1    2    0    0 -0.35227085069E+02 -0.20499235939E+03 -0.33396490285E+03  0.44090403861E+03  0.19900000000E+03 0.  0.
   -5000001    1    1    2    0    0  0.35227085069E+02  0.20499235939E+03 -0.17411270247E+04  0.17647626274E+04  0.19900000000E+03 0.  0.
<mgrwt>
<rscale>  0 0.74763556E+03</rscale>
<asrwt>0</asrwt>
<pdfrwt beam="1">  1        2 0.30576843E+00 0.74763556E+03</pdfrwt>
<pdfrwt beam="2">  1       -2 0.93267684E-02 0.74763556E+03</pdfrwt>
<totfact> 0.53409795E+02</totfact>
</mgrwt>
</event>
<event>
 4    1  0.5069019E-005  0.6635358E+03  0.7818608E-02  0.9781707E-01
          2   -1    0    0  501    0  0.00000000000E+00  0.00000000000E+00  0.79644603921E+03  0.79644603922E+03  0.25500000000E-02 0.  1.
         -2   -1    0    0    0  501 -0.00000000000E+00 -0.00000000000E+00 -0.13820138573E+03  0.13820138575E+03  0.25500000000E-02 0. -1.
    5000001    1    1    2    0    0  0.10335031952E+03 -0.34785451140E+02  0.67003986173E+03  0.70742189142E+03  0.19900000000E+03 0.  0.
   -5000001    1    1    2    0    0 -0.10335031952E+03  0.34785451140E+02 -0.11795208245E+02  0.22722553354E+03  0.19900000000E+03 0.  0.
<mgrwt>
<rscale>  0 0.66353582E+03</rscale>
<asrwt>0</asrwt>
<pdfrwt beam="1">  1        2 0.11377800E+00 0.66353582E+03</pdfrwt>
<pdfrwt beam="2">  1       -2 0.19743055E-01 0.66353582E+03</pdfrwt>
<totfact> 0.83720198E+02</totfact>
</mgrwt>
</event>
<event>
 4    1  0.5069019E-005  0.8287863E+03  0.7818608E-02  0.9519260E-01
          2   -1    0    0  501    0  0.00000000000E+00  0.00000000000E+00  0.21645585441E+04  0.21645585441E+04  0.25500000000E-02 0.  1.
         -2   -1    0    0    0  501 -0.00000000000E+00 -0.00000000000E+00 -0.79333357935E+02  0.79333357976E+02  0.25500000000E-02 0. -1.
    5000001    1    1    2    0    0 -0.21410187149E+03 -0.17823641397E+03  0.41047901345E+03  0.53451085221E+03  0.19900000000E+03 0.  0.
   -5000001    1    1    2    0    0  0.21410187149E+03  0.17823641397E+03  0.16747461727E+04  0.17093810498E+04  0.19900000000E+03 0.  0.
<mgrwt>
<rscale>  0 0.82878634E+03</rscale>
<asrwt>0</asrwt>
<pdfrwt beam="1">  1        2 0.30922267E+00 0.82878634E+03</pdfrwt>
<pdfrwt beam="2">  1       -2 0.11333336E-01 0.82878634E+03</pdfrwt>
<totfact> 0.37560055E+02</totfact>
</mgrwt>
</event>
<event>
 4    1  0.5069019E-005  0.1077357E+04  0.7818608E-02  0.9227547E-01
          2   -1    0    0  501    0  0.00000000000E+00  0.00000000000E+00  0.31112244182E+04  0.31112244182E+04  0.25500000000E-02 0. -1.
         -2   -1    0    0    0  501 -0.00000000000E+00 -0.00000000000E+00 -0.93266992353E+02  0.93266992388E+02  0.25500000000E-02 0.  1.
    5000001    1    1    2    0    0 -0.28550739640E+03  0.32978254807E+03  0.22393896531E+04  0.22901393016E+04  0.19900000000E+03 0.  0.
   -5000001    1    1    2    0    0  0.28550739640E+03 -0.32978254807E+03  0.77856777274E+03  0.91435210897E+03  0.19900000000E+03 0.  0.
<mgrwt>
<rscale>  0 0.10773570E+04</rscale>
<asrwt>0</asrwt>
<pdfrwt beam="1">  1        2 0.44446055E+00 0.10773570E+04</pdfrwt>
<pdfrwt beam="2">  1       -2 0.13323859E-01 0.10773570E+04</pdfrwt>
<totfact> 0.88592963E+01</totfact>
</mgrwt>
</event>
<event>
 4    1  0.5069019E-005  0.6106321E+03  0.7818608E-02  0.9883590E-01
          2   -1    0    0  501    0  0.00000000000E+00  0.00000000000E+00  0.29316106839E+03  0.29316106841E+03  0.25500000000E-02 0.  1.
         -2   -1    0    0    0  501 -0.00000000000E+00 -0.00000000000E+00 -0.31797502470E+03  0.31797502471E+03  0.25500000000E-02 0. -1.
    5000001    1    1    2    0    0 -0.22994917983E+03  0.12007515082E+02 -0.36842128884E+02  0.30656018688E+03  0.19900000000E+03 0.  0.
   -5000001    1    1    2    0    0  0.22994917983E+03 -0.12007515082E+02  0.12028172577E+02  0.30457590623E+03  0.19900000000E+03 0.  0.
<mgrwt>
<rscale>  0 0.61063212E+03</rscale>
<asrwt>0</asrwt>
<pdfrwt beam="1">  1        2 0.41880153E-01 0.61063212E+03</pdfrwt>
<pdfrwt beam="2">  1       -2 0.45425004E-01 0.61063212E+03</pdfrwt>
<totfact> 0.56636245E+02</totfact>
</mgrwt>
</event>
<event>
 4    1  0.5069019E-005  0.4689007E+03  0.7818608E-02  0.1022231E+00
          2   -1    0    0  501    0  0.00000000000E+00  0.00000000000E+00  0.37479509896E+03  0.37479509897E+03  0.25500000000E-02 0.  1.
         -2   -1    0    0    0  501 -0.00000000000E+00 -0.00000000000E+00 -0.14665869349E+03  0.14665869351E+03  0.25500000000E-02 0. -1.
    5000001    1    1    2    0    0  0.57263962691E+02  0.89880949838E+02  0.43662089089E+02  0.22992417139E+03  0.19900000000E+03 0.  0.
   -5000001    1    1    2    0    0 -0.57263962691E+02 -0.89880949838E+02  0.18447431638E+03  0.29152962109E+03  0.19900000000E+03 0.  0.
<mgrwt>
<rscale>  0 0.46890067E+03</rscale>
<asrwt>0</asrwt>
<pdfrwt beam="1">  1        2 0.53542156E-01 0.46890067E+03</pdfrwt>
<pdfrwt beam="2">  1       -2 0.20951242E-01 0.46890067E+03</pdfrwt>
<totfact> 0.18178771E+03</totfact>
</mgrwt>
</event>
<event>
 4    1  0.5069019E-005  0.1115054E+04  0.7818608E-02  0.9190642E-01
         -2   -1    0    0    0  501 -0.00000000000E+00  0.00000000000E+00  0.58809350136E+03  0.58809350136E+03  0.25500000000E-02 0. -1.
          2   -1    0    0  501    0  0.00000000000E+00 -0.00000000000E+00 -0.52854894695E+03  0.52854894696E+03  0.25500000000E-02 0.  1.
    5000001    1    1    2    0    0  0.51464178292E+03 -0.79774658617E+02  0.25888611191E+02  0.55811412908E+03  0.19900000000E+03 0.  0.
   -5000001    1    1    2    0    0 -0.51464178292E+03  0.79774658617E+02  0.33655943211E+02  0.55852831924E+03  0.19900000000E+03 0.  0.
<mgrwt>
<rscale>  0 0.11150537E+04</rscale>
<asrwt>0</asrwt>
<pdfrwt beam="1">  1        2 0.75506992E-01 0.11150537E+04</pdfrwt>
<pdfrwt beam="2">  1       -2 0.84013358E-01 0.11150537E+04</pdfrwt>
<totfact> 0.77387244E+01</totfact>
</mgrwt>
</event>
<event>
 4    1  0.5069019E-005  0.1263642E+04  0.7818608E-02  0.9058905E-01
          2   -1    0    0  501    0  0.00000000000E+00  0.00000000000E+00  0.36002008262E+03  0.36002008263E+03  0.25500000000E-02 0. -1.
         -2   -1    0    0    0  501 -0.00000000000E+00 -0.00000000000E+00 -0.11088200066E+04  0.11088200066E+04  0.25500000000E-02 0.  1.
    5000001    1    1    2    0    0  0.44493500267E+03 -0.35136171202E+03 -0.60150980188E+03  0.85019835981E+03  0.19900000000E+03 0.  0.
   -5000001    1    1    2    0    0 -0.44493500267E+03  0.35136171202E+03 -0.14729012206E+03  0.61864172938E+03  0.19900000000E+03 0.  0.
<mgrwt>
<rscale>  0 0.12636415E+04</rscale>
<asrwt>0</asrwt>
<pdfrwt beam="1">  1        2 0.51431441E-01 0.12636415E+04</pdfrwt>
<pdfrwt beam="2">  1       -2 0.15840286E+00 0.12636415E+04</pdfrwt>
<totfact> 0.24756124E+01</totfact>
</mgrwt>
</event>
<event>
 4    1  0.5069019E-005  0.6051161E+03  0.7818608E-02  0.9894848E-01
         -2   -1    0    0    0  501 -0.00000000000E+00  0.00000000000E+00  0.15006123376E+03  0.15006123378E+03  0.25500000000E-02 0. -1.
          2   -1    0    0  501    0  0.00000000000E+00 -0.00000000000E+00 -0.61002683282E+03  0.61002683283E+03  0.25500000000E-02 0.  1.
    5000001    1    1    2    0    0  0.46935549362E+01  0.20093480477E+03 -0.95025940734E+02  0.29837519106E+03  0.19900000000E+03 0.  0.
   -5000001    1    1    2    0    0 -0.46935549362E+01 -0.20093480477E+03 -0.36493965833E+03  0.46171287555E+03  0.19900000000E+03 0.  0.
<mgrwt>
<rscale>  0 0.60511612E+03</rscale>
<asrwt>0</asrwt>
<pdfrwt beam="1">  1        2 0.87146689E-01 0.60511612E+03</pdfrwt>
<pdfrwt beam="2">  1       -2 0.21437319E-01 0.60511612E+03</pdfrwt>
<totfact> 0.10064618E+03</totfact>
</mgrwt>
</event>
<event>
 4    1  0.5069019E-005  0.4341915E+03  0.7818608E-02  0.1032544E+00
         -2   -1    0    0    0  501 -0.00000000000E+00  0.00000000000E+00  0.98329867806E+02  0.98329867839E+02  0.25500000000E-02 0. -1.
          2   -1    0    0  501    0  0.00000000000E+00 -0.00000000000E+00 -0.47931070089E+03  0.47931070089E+03  0.25500000000E-02 0.  1.
    5000001    1    1    2    0    0  0.17619616636E+02  0.42616850595E+02 -0.28827948494E+03  0.35331672517E+03  0.19900000000E+03 0.  0.
   -5000001    1    1    2    0    0 -0.17619616636E+02 -0.42616850595E+02 -0.92701348139E+02  0.22432384357E+03  0.19900000000E+03 0.  0.
<mgrwt>
<rscale>  0 0.43419147E+03</rscale>
<asrwt>0</asrwt>
<pdfrwt beam="1">  1        2 0.68472956E-01 0.43419147E+03</pdfrwt>
<pdfrwt beam="2">  1       -2 0.14047124E-01 0.43419147E+03</pdfrwt>
<totfact> 0.27286295E+03</totfact>
</mgrwt>
</event>
<event>
 4    1  0.5069019E-005  0.1119245E+04  0.7818608E-02  0.9186635E-01
         -2   -1    0    0    0  501 -0.00000000000E+00  0.00000000000E+00  0.54429271987E+03  0.54429271988E+03  0.25500000000E-02 0. -1.
          2   -1    0    0  501    0  0.00000000000E+00 -0.00000000000E+00 -0.57538367170E+03  0.57538367170E+03  0.25500000000E-02 0.  1.
    5000001    1    1    2    0    0 -0.31461364832E+03 -0.40796338645E+03 -0.10591454191E+03  0.56234754608E+03  0.19900000000E+03 0.  0.
   -5000001    1    1    2    0    0  0.31461364832E+03  0.40796338645E+03  0.74823590083E+02  0.55732884550E+03  0.19900000000E+03 0.  0.
<mgrwt>
<rscale>  0 0.11192446E+04</rscale>
<asrwt>0</asrwt>
<pdfrwt beam="1">  1        2 0.82197667E-01 0.11192446E+04</pdfrwt>
<pdfrwt beam="2">  1       -2 0.77756103E-01 0.11192446E+04</pdfrwt>
<totfact> 0.83421198E+01</totfact>
</mgrwt>
</event>
<event>
 4    1  0.5069019E-005  0.5336530E+03  0.7818608E-02  0.1005350E+00
         -2   -1    0    0    0  501 -0.00000000000E+00  0.00000000000E+00  0.50358095157E+02  0.50358095221E+02  0.25500000000E-02 0. -1.
          2   -1    0    0  501    0  0.00000000000E+00 -0.00000000000E+00 -0.14138020543E+04  0.14138020543E+04  0.25500000000E-02 0.  1.
    5000001    1    1    2    0    0 -0.12485074826E+03  0.12504809602E+03 -0.73454307483E+03  0.78126772905E+03  0.19900000000E+03 0.  0.
   -5000001    1    1    2    0    0  0.12485074826E+03 -0.12504809602E+03 -0.62890088428E+03  0.68289242045E+03  0.19900000000E+03 0.  0.
<mgrwt>
<rscale>  0 0.53365299E+03</rscale>
<asrwt>0</asrwt>
<pdfrwt beam="1">  1        2 0.20197170E+00 0.53365299E+03</pdfrwt>
<pdfrwt beam="2">  1       -2 0.71940144E-02 0.53365299E+03</pdfrwt>
<totfact> 0.19187970E+03</totfact>
</mgrwt>
</event>
<event>
 4    1  0.5069019E-005  0.8757773E+03  0.7818608E-02  0.9456378E-01
          2   -1    0    0  501    0  0.00000000000E+00  0.00000000000E+00  0.20458837632E+04  0.20458837632E+04  0.25500000000E-02 0.  1.
         -2   -1    0    0    0  501 -0.00000000000E+00 -0.00000000000E+00 -0.93723047789E+02  0.93723047824E+02  0.25500000000E-02 0. -1.
    5000001    1    1    2    0    0  0.78176306260E+02  0.37767267856E+03  0.11184789292E+04  0.11997267614E+04  0.19900000000E+03 0.  0.
   -5000001    1    1    2    0    0 -0.78176306260E+02 -0.37767267856E+03  0.83368178616E+03  0.93988004956E+03  0.19900000000E+03 0.  0.
<mgrwt>
<rscale>  0 0.87577728E+03</rscale>
<asrwt>0</asrwt>
<pdfrwt beam="1">  1        2 0.29226913E+00 0.87577728E+03</pdfrwt>
<pdfrwt beam="2">  1       -2 0.13389006E-01 0.87577728E+03</pdfrwt>
<totfact> 0.32613027E+02</totfact>
</mgrwt>
</event>
<event>
 4    1  0.5069019E-005  0.4794616E+03  0.7818608E-02  0.1019283E+00
          2   -1    0    0  501    0  0.00000000000E+00  0.00000000000E+00  0.11261781876E+03  0.11261781879E+03  0.25500000000E-02 0.  1.
         -2   -1    0    0    0  501 -0.00000000000E+00 -0.00000000000E+00 -0.51031753555E+03  0.51031753556E+03  0.25500000000E-02 0. -1.
    5000001    1    1    2    0    0 -0.12474775600E+03  0.34790169107E+02 -0.24189154879E+03  0.33894672128E+03  0.19900000000E+03 0.  0.
   -5000001    1    1    2    0    0  0.12474775600E+03 -0.34790169107E+02 -0.15580816801E+03  0.28398863307E+03  0.19900000000E+03 0.  0.
<mgrwt>
<rscale>  0 0.47946156E+03</rscale>
<asrwt>0</asrwt>
<pdfrwt beam="1">  1        2 0.16088260E-01 0.47946156E+03</pdfrwt>
<pdfrwt beam="2">  1       -2 0.72902504E-01 0.47946156E+03</pdfrwt>
<totfact> 0.63049684E+02</totfact>
</mgrwt>
</event>
<event>
 4    1  0.5069019E-005  0.8681834E+03  0.7818608E-02  0.9466252E-01
         -2   -1    0    0    0  501 -0.00000000000E+00  0.00000000000E+00  0.94514846457E+02  0.94514846491E+02  0.25500000000E-02 0. -1.
          2   -1    0    0  501    0  0.00000000000E+00 -0.00000000000E+00 -0.19937141214E+04  0.19937141214E+04  0.25500000000E-02 0.  1.
    5000001    1    1    2    0    0 -0.18636290245E+03 -0.23338873459E+03 -0.36223128740E+03  0.50991561891E+03  0.19900000000E+03 0.  0.
   -5000001    1    1    2    0    0  0.18636290245E+03  0.23338873459E+03 -0.15369679876E+04  0.15783133490E+04  0.19900000000E+03 0.  0.
<mgrwt>
<rscale>  0 0.86818335E+03</rscale>
<asrwt>0</asrwt>
<pdfrwt beam="1">  1        2 0.28481628E+00 0.86818335E+03</pdfrwt>
<pdfrwt beam="2">  1       -2 0.13502122E-01 0.86818335E+03</pdfrwt>
<totfact> 0.34197918E+02</totfact>
</mgrwt>
</event>
<event>
 4    1  0.5069019E-005  0.6881338E+03  0.7818608E-02  0.9737743E-01
          2   -1    0    0  501    0  0.00000000000E+00  0.00000000000E+00  0.10612558876E+04  0.10612558876E+04  0.25500000000E-02 0.  1.
         -2   -1    0    0    0  501 -0.00000000000E+00 -0.00000000000E+00 -0.11154901344E+03  0.11154901347E+03  0.25500000000E-02 0. -1.
    5000001    1    1    2    0    0 -0.16996497325E+03  0.16399937468E+03  0.21639544907E+03  0.37710990096E+03  0.19900000000E+03 0.  0.
   -5000001    1    1    2    0    0  0.16996497325E+03 -0.16399937468E+03  0.73331142507E+03  0.79569500008E+03  0.19900000000E+03 0.  0.
<mgrwt>
<rscale>  0 0.68813385E+03</rscale>
<asrwt>0</asrwt>
<pdfrwt beam="1">  1        2 0.15160798E+00 0.68813385E+03</pdfrwt>
<pdfrwt beam="2">  1       -2 0.15935574E-01 0.68813385E+03</pdfrwt>
<totfact> 0.81866852E+02</totfact>
</mgrwt>
</event>
<event>
 4    1  0.5069019E-005  0.7247302E+03  0.7818608E-02  0.9675850E-01
          2   -1    0    0  501    0  0.00000000000E+00  0.00000000000E+00  0.55157614519E+03  0.55157614519E+03  0.25500000000E-02 0.  1.
         -2   -1    0    0    0  501 -0.00000000000E+00 -0.00000000000E+00 -0.23806048064E+03  0.23806048066E+03  0.25500000000E-02 0. -1.
    5000001    1    1    2    0    0 -0.14921637909E+03  0.22437735233E+03  0.30732515301E+03  0.45459924516E+03  0.19900000000E+03 0.  0.
   -5000001    1    1    2    0    0  0.14921637909E+03 -0.22437735233E+03  0.61905115270E+01  0.33503738069E+03  0.19900000000E+03 0.  0.
<mgrwt>
<rscale>  0 0.72473025E+03</rscale>
<asrwt>0</asrwt>
<pdfrwt beam="1">  1        2 0.78796591E-01 0.72473025E+03</pdfrwt>
<pdfrwt beam="2">  1       -2 0.34008641E-01 0.72473025E+03</pdfrwt>
<totfact> 0.48737306E+02</totfact>
</mgrwt>
</event>
<event>
 4    1  0.5069019E-005  0.5622326E+03  0.7818608E-02  0.9987016E-01
         -2   -1    0    0    0  501 -0.00000000000E+00  0.00000000000E+00  0.15925048092E+03  0.15925048094E+03  0.25500000000E-02 0. -1.
          2   -1    0    0  501    0  0.00000000000E+00 -0.00000000000E+00 -0.49623945978E+03  0.49623945978E+03  0.25500000000E-02 0.  1.
    5000001    1    1    2    0    0  0.66163264152E+02 -0.18296259313E+03 -0.21472654624E+03  0.35151298364E+03  0.19900000000E+03 0.  0.
   -5000001    1    1    2    0    0 -0.66163264152E+02  0.18296259313E+03 -0.12226243262E+03  0.30397695709E+03  0.19900000000E+03 0.  0.
<mgrwt>
<rscale>  0 0.56223259E+03</rscale>
<asrwt>0</asrwt>
<pdfrwt beam="1">  1        2 0.70891350E-01 0.56223259E+03</pdfrwt>
<pdfrwt beam="2">  1       -2 0.22750069E-01 0.56223259E+03</pdfrwt>
<totfact> 0.11510970E+03</totfact>
</mgrwt>
</event>
<event>
 4    1  0.5069019E-005  0.5146818E+03  0.7818608E-02  0.1010016E+00
          2   -1    0    0  501    0  0.00000000000E+00  0.00000000000E+00  0.31458896271E+04  0.31458896271E+04  0.25500000000E-02 0.  1.
         -2   -1    0    0    0  501 -0.00000000000E+00 -0.00000000000E+00 -0.21051068766E+02  0.21051068920E+02  0.25500000000E-02 0. -1.
    5000001    1    1    2    0    0  0.10073040163E+03 -0.75037650589E+02  0.92159723012E+03  0.95116755485E+03  0.19900000000E+03 0.  0.
   -5000001    1    1    2    0    0 -0.10073040163E+03  0.75037650589E+02  0.22032413282E+04  0.22157731412E+04  0.19900000000E+03 0.  0.
<mgrwt>
<rscale>  0 0.51468180E+03</rscale>
<asrwt>0</asrwt>
<pdfrwt beam="1">  1        2 0.44941337E+00 0.51468180E+03</pdfrwt>
<pdfrwt beam="2">  1       -2 0.30072918E-02 0.51468180E+03</pdfrwt>
<totfact> 0.94643766E+02</totfact>
</mgrwt>
</event>
<event>
 4    1  0.5069019E-005  0.4607425E+03  0.7818608E-02  0.1024566E+00
          2   -1    0    0  501    0  0.00000000000E+00  0.00000000000E+00  0.19845317916E+04  0.19845317916E+04  0.25500000000E-02 0.  1.
         -2   -1    0    0    0  501 -0.00000000000E+00 -0.00000000000E+00 -0.26742278682E+02  0.26742278803E+02  0.25500000000E-02 0. -1.
    5000001    1    1    2    0    0  0.29225860419E+02  0.10930590781E+03  0.86607335643E+03  0.89581582433E+03  0.19900000000E+03 0.  0.
   -5000001    1    1    2    0    0 -0.29225860419E+02 -0.10930590781E+03  0.10917161565E+04  0.11154582460E+04  0.19900000000E+03 0.  0.
<mgrwt>
<rscale>  0 0.46074245E+03</rscale>
<asrwt>0</asrwt>
<pdfrwt beam="1">  1        2 0.28350455E+00 0.46074245E+03</pdfrwt>
<pdfrwt beam="2">  1       -2 0.38203254E-02 0.46074245E+03</pdfrwt>
<totfact> 0.26309189E+03</totfact>
</mgrwt>
</event>
<event>
 4    1  0.5069019E-005  0.4598071E+03  0.7818608E-02  0.1024837E+00
         -2   -1    0    0    0  501 -0.00000000000E+00  0.00000000000E+00  0.50828560750E+02  0.50828560814E+02  0.25500000000E-02 0. -1.
          2   -1    0    0  501    0  0.00000000000E+00 -0.00000000000E+00 -0.10398807794E+04  0.10398807794E+04  0.25500000000E-02 0.  1.
    5000001    1    1    2    0    0  0.57227297927E+02 -0.86456851801E+02 -0.37580501104E+03  0.43769870593E+03  0.19900000000E+03 0.  0.
   -5000001    1    1    2    0    0 -0.57227297927E+02  0.86456851801E+02 -0.61324720764E+03  0.65301063432E+03  0.19900000000E+03 0.  0.
<mgrwt>
<rscale>  0 0.45980710E+03</rscale>
<asrwt>0</asrwt>
<pdfrwt beam="1">  1        2 0.14855438E+00 0.45980710E+03</pdfrwt>
<pdfrwt beam="2">  1       -2 0.72612236E-02 0.45980710E+03</pdfrwt>
<totfact> 0.30489769E+03</totfact>
</mgrwt>
</event>
<event>
 4    1  0.5069019E-005  0.4771109E+03  0.7818608E-02  0.1019932E+00
         -2   -1    0    0    0  501 -0.00000000000E+00  0.00000000000E+00  0.21823426820E+02  0.21823426969E+02  0.25500000000E-02 0. -1.
          2   -1    0    0  501    0  0.00000000000E+00 -0.00000000000E+00 -0.26076891204E+04  0.26076891204E+04  0.25500000000E-02 0.  1.
    5000001    1    1    2    0    0  0.97631450849E+02  0.87816250738E+02 -0.13370643327E+04  0.13581552282E+04  0.19900000000E+03 0.  0.
   -5000001    1    1    2    0    0 -0.97631450849E+02 -0.87816250738E+02 -0.12488013609E+04  0.12713573192E+04  0.19900000000E+03 0.  0.
<mgrwt>
<rscale>  0 0.47711094E+03</rscale>
<asrwt>0</asrwt>
<pdfrwt beam="1">  1        2 0.37252682E+00 0.47711094E+03</pdfrwt>
<pdfrwt beam="2">  1       -2 0.31176341E-02 0.47711094E+03</pdfrwt>
<totfact> 0.17390351E+03</totfact>
</mgrwt>
</event>
<event>
 4    1  0.5069019E-005  0.6595712E+03  0.7818608E-02  0.9788983E-01
          2   -1    0    0  501    0  0.00000000000E+00  0.00000000000E+00  0.49423358128E+03  0.49423358129E+03  0.25500000000E-02 0.  1.
         -2   -1    0    0    0  501 -0.00000000000E+00 -0.00000000000E+00 -0.22005494115E+03  0.22005494117E+03  0.25500000000E-02 0. -1.
    5000001    1    1    2    0    0 -0.35384279630E+02 -0.24268223095E+03  0.34289023645E+02  0.31768451269E+03  0.19900000000E+03 0.  0.
   -5000001    1    1    2    0    0  0.35384279630E+02  0.24268223095E+03  0.23988961648E+03  0.39660400976E+03  0.19900000000E+03 0.  0.
<mgrwt>
<rscale>  0 0.65957120E+03</rscale>
<asrwt>0</asrwt>
<pdfrwt beam="1">  1        2 0.70604797E-01 0.65957120E+03</pdfrwt>
<pdfrwt beam="2">  1       -2 0.31436420E-01 0.65957120E+03</pdfrwt>
<totfact> 0.64205039E+02</totfact>
</mgrwt>
</event>
<event>
 4    1  0.5069019E-005  0.8626197E+03  0.7818608E-02  0.9473554E-01
         -2   -1    0    0    0  501 -0.00000000000E+00  0.00000000000E+00  0.15663762972E+03  0.15663762974E+03  0.25500000000E-02 0. -1.
          2   -1    0    0  501    0  0.00000000000E+00 -0.00000000000E+00 -0.11876341467E+04  0.11876341467E+04  0.25500000000E-02 0.  1.
    5000001    1    1    2    0    0 -0.19111073175E+03 -0.29895682607E+03 -0.73877754803E+03  0.84338114819E+03  0.19900000000E+03 0.  0.
   -5000001    1    1    2    0    0  0.19111073175E+03  0.29895682607E+03 -0.29221896890E+03  0.50089062821E+03  0.19900000000E+03 0.  0.
<mgrwt>
<rscale>  0 0.86261973E+03</rscale>
<asrwt>0</asrwt>
<pdfrwt beam="1">  1        2 0.16966201E+00 0.86261973E+03</pdfrwt>
<pdfrwt beam="2">  1       -2 0.22376805E-01 0.86261973E+03</pdfrwt>
<totfact> 0.38055087E+02</totfact>
</mgrwt>
</event>
<event>
 4    1  0.5069019E-005  0.5716272E+03  0.7818608E-02  0.9966084E-01
          2   -1    0    0  501    0  0.00000000000E+00  0.00000000000E+00  0.12884165464E+04  0.12884165464E+04  0.25500000000E-02 0.  1.
         -2   -1    0    0    0  501 -0.00000000000E+00 -0.00000000000E+00 -0.63402963341E+02  0.63402963392E+02  0.25500000000E-02 0. -1.
    5000001    1    1    2    0    0  0.16558949265E+03 -0.10703491432E+03  0.74653572737E+03  0.79736625536E+03  0.19900000000E+03 0.  0.
   -5000001    1    1    2    0    0 -0.16558949265E+03  0.10703491432E+03  0.47847785568E+03  0.55445325441E+03  0.19900000000E+03 0.  0.
<mgrwt>
<rscale>  0 0.57162725E+03</rscale>
<asrwt>0</asrwt>
<pdfrwt beam="1">  1        2 0.18405951E+00 0.57162725E+03</pdfrwt>
<pdfrwt beam="2">  1       -2 0.90575658E-02 0.57162725E+03</pdfrwt>
<totfact> 0.15505684E+03</totfact>
</mgrwt>
</event>
<event>
 4    1  0.5069019E-005  0.6381375E+03  0.7818608E-02  0.9829297E-01
         -2   -1    0    0    0  501 -0.00000000000E+00  0.00000000000E+00  0.21598892371E+03  0.21598892373E+03  0.25500000000E-02 0. -1.
          2   -1    0    0  501    0  0.00000000000E+00 -0.00000000000E+00 -0.47134295110E+03  0.47134295111E+03  0.25500000000E-02 0.  1.
    5000001    1    1    2    0    0  0.16151935273E+03 -0.78766732689E+02 -0.31395813711E+03  0.41287214890E+03  0.19900000000E+03 0.  0.
   -5000001    1    1    2    0    0 -0.16151935273E+03  0.78766732689E+02  0.58604109719E+02  0.27445972594E+03  0.19900000000E+03 0.  0.
<mgrwt>
<rscale>  0 0.63813747E+03</rscale>
<asrwt>0</asrwt>
<pdfrwt beam="1">  1        2 0.67334707E-01 0.63813747E+03</pdfrwt>
<pdfrwt beam="2">  1       -2 0.30855561E-01 0.63813747E+03</pdfrwt>
<totfact> 0.70178369E+02</totfact>
</mgrwt>
</event>
<event>
 4    1  0.5069019E-005  0.1061685E+04  0.7818608E-02  0.9243363E-01
         -2   -1    0    0    0  501 -0.00000000000E+00  0.00000000000E+00  0.21782225332E+03  0.21782225333E+03  0.25500000000E-02 0. -1.
          2   -1    0    0  501    0  0.00000000000E+00 -0.00000000000E+00 -0.12936855937E+04  0.12936855937E+04  0.25500000000E-02 0.  1.
    5000001    1    1    2    0    0  0.81598902412E+02  0.36827359439E+03 -0.98793585072E+03  0.10760585794E+04  0.19900000000E+03 0.  0.
   -5000001    1    1    2    0    0 -0.81598902412E+02 -0.36827359439E+03 -0.87927489624E+02  0.43544926757E+03  0.19900000000E+03 0.  0.
<mgrwt>
<rscale>  0 0.10616845E+04</rscale>
<asrwt>0</asrwt>
<pdfrwt beam="1">  1        2 0.18481222E+00 0.10616845E+04</pdfrwt>
<pdfrwt beam="2">  1       -2 0.31117466E-01 0.10616845E+04</pdfrwt>
<totfact> 0.17992541E+02</totfact>
</mgrwt>
</event>
<event>
 4    1  0.5069019E-005  0.4828720E+03  0.7818608E-02  0.1018349E+00
          2   -1    0    0  501    0  0.00000000000E+00  0.00000000000E+00  0.86227244391E+02  0.86227244428E+02  0.25500000000E-02 0.  1.
         -2   -1    0    0    0  501 -0.00000000000E+00 -0.00000000000E+00 -0.67602003949E+03  0.67602003949E+03  0.25500000000E-02 0. -1.
    5000001    1    1    2    0    0  0.48441930156E+02  0.12166371356E+03 -0.23291535016E+03  0.33316548461E+03  0.19900000000E+03 0.  0.
   -5000001    1    1    2    0    0 -0.48441930156E+02 -0.12166371356E+03 -0.35687744494E+03  0.42908179932E+03  0.19900000000E+03 0.  0.
<mgrwt>
<rscale>  0 0.48287201E+03</rscale>
<asrwt>0</asrwt>
<pdfrwt beam="1">  1        2 0.12318178E-01 0.48287201E+03</pdfrwt>
<pdfrwt beam="2">  1       -2 0.96574288E-01 0.48287201E+03</pdfrwt>
<totfact> 0.46268034E+02</totfact>
</mgrwt>
</event>
<event>
 4    1  0.5069019E-005  0.6466309E+03  0.7818608E-02  0.9813122E-01
          2   -1    0    0  501    0  0.00000000000E+00  0.00000000000E+00  0.29394172976E+04  0.29394172976E+04  0.25500000000E-02 0.  1.
         -2   -1    0    0    0  501 -0.00000000000E+00 -0.00000000000E+00 -0.35562453521E+02  0.35562453613E+02  0.25500000000E-02 0. -1.
    5000001    1    1    2    0    0 -0.18228143176E+03 -0.64761856349E+02  0.68882491792E+03  0.74263139306E+03  0.19900000000E+03 0.  0.
   -5000001    1    1    2    0    0  0.18228143176E+03  0.64761856349E+02  0.22150299261E+04  0.22323483581E+04  0.19900000000E+03 0.  0.
<mgrwt>
<rscale>  0 0.64663093E+03</rscale>
<asrwt>0</asrwt>
<pdfrwt beam="1">  1        2 0.41991676E+00 0.64663093E+03</pdfrwt>
<pdfrwt beam="2">  1       -2 0.50803505E-02 0.64663093E+03</pdfrwt>
<totfact> 0.54221733E+02</totfact>
</mgrwt>
</event>
<event>
 4    1  0.5069019E-005  0.6075024E+03  0.7818608E-02  0.9889962E-01
         -2   -1    0    0    0  501 -0.00000000000E+00  0.00000000000E+00  0.26259964002E+03  0.26259964003E+03  0.25500000000E-02 0. -1.
          2   -1    0    0  501    0  0.00000000000E+00 -0.00000000000E+00 -0.35135150720E+03  0.35135150721E+03  0.25500000000E-02 0.  1.
    5000001    1    1    2    0    0 -0.15523349777E+03  0.57375314945E+02  0.11629095784E+03  0.28374980611E+03  0.19900000000E+03 0.  0.
   -5000001    1    1    2    0    0  0.15523349777E+03 -0.57375314945E+02 -0.20504282502E+03  0.33020134113E+03  0.19900000000E+03 0.  0.
<mgrwt>
<rscale>  0 0.60750236E+03</rscale>
<asrwt>0</asrwt>
<pdfrwt beam="1">  1        2 0.50193072E-01 0.60750236E+03</pdfrwt>
<pdfrwt beam="2">  1       -2 0.37514234E-01 0.60750236E+03</pdfrwt>
<totfact> 0.67388528E+02</totfact>
</mgrwt>
</event>
<event>
 4    1  0.5069019E-005  0.4485917E+03  0.7818608E-02  0.1028143E+00
         -2   -1    0    0    0  501 -0.00000000000E+00  0.00000000000E+00  0.84902755477E+02  0.84902755515E+02  0.25500000000E-02 0. -1.
          2   -1    0    0  501    0  0.00000000000E+00 -0.00000000000E+00 -0.59254418158E+03  0.59254418159E+03  0.25500000000E-02 0.  1.
    5000001    1    1    2    0    0 -0.40735362489E+02 -0.69541311937E+02 -0.15580806472E+03  0.26527818767E+03  0.19900000000E+03 0.  0.
   -5000001    1    1    2    0    0  0.40735362489E+02  0.69541311937E+02 -0.35183336139E+03  0.41216874943E+03  0.19900000000E+03 0.  0.
<mgrwt>
<rscale>  0 0.44859172E+03</rscale>
<asrwt>0</asrwt>
<pdfrwt beam="1">  1        2 0.84649166E-01 0.44859172E+03</pdfrwt>
<pdfrwt beam="2">  1       -2 0.12128965E-01 0.44859172E+03</pdfrwt>
<totfact> 0.27310293E+03</totfact>
</mgrwt>
</event>
<event>
 4    1  0.5069019E-005  0.6721951E+03  0.7818608E-02  0.9766000E-01
         -2   -1    0    0    0  501 -0.00000000000E+00  0.00000000000E+00  0.43828393468E+03  0.43828393469E+03  0.25500000000E-02 0. -1.
          2   -1    0    0  501    0  0.00000000000E+00 -0.00000000000E+00 -0.25773605245E+03  0.25773605246E+03  0.25500000000E-02 0.  1.
    5000001    1    1    2    0    0 -0.12211049194E+03 -0.12406211745E+03 -0.12458539920E+03  0.29227538884E+03  0.19900000000E+03 0.  0.
   -5000001    1    1    2    0    0  0.12211049194E+03  0.12406211745E+03  0.30513328143E+03  0.40374459831E+03  0.19900000000E+03 0.  0.
<mgrwt>
<rscale>  0 0.67219512E+03</rscale>
<asrwt>0</asrwt>
<pdfrwt beam="1">  1        2 0.36819436E-01 0.67219512E+03</pdfrwt>
<pdfrwt beam="2">  1       -2 0.62611991E-01 0.67219512E+03</pdfrwt>
<totfact> 0.33733686E+02</totfact>
</mgrwt>
</event>
<event>
 4    1  0.5069019E-005  0.8900339E+03  0.7818608E-02  0.9438126E-01
          2   -1    0    0  501    0  0.00000000000E+00  0.00000000000E+00  0.11282877011E+04  0.11282877011E+04  0.25500000000E-02 0.  1.
         -2   -1    0    0    0  501 -0.00000000000E+00 -0.00000000000E+00 -0.17552266751E+03  0.17552266753E+03  0.25500000000E-02 0. -1.
    5000001    1    1    2    0    0  0.19250594635E+03 -0.33443788703E+03  0.33336277599E+03  0.54739289370E+03  0.19900000000E+03 0.  0.
   -5000001    1    1    2    0    0 -0.19250594635E+03  0.33443788703E+03  0.61940225758E+03  0.75641747491E+03  0.19900000000E+03 0.  0.
<mgrwt>
<rscale>  0 0.89003386E+03</rscale>
<asrwt>0</asrwt>
<pdfrwt beam="1">  1        2 0.16118396E+00 0.89003386E+03</pdfrwt>
<pdfrwt beam="2">  1       -2 0.25074667E-01 0.89003386E+03</pdfrwt>
<totfact> 0.33526158E+02</totfact>
</mgrwt>
</event>
<event>
 4    1  0.5069019E-005  0.4578909E+03  0.7818608E-02  0.1025395E+00
          2   -1    0    0  501    0  0.00000000000E+00  0.00000000000E+00  0.11946249722E+03  0.11946249725E+03  0.25500000000E-02 0.  1.
         -2   -1    0    0    0  501 -0.00000000000E+00 -0.00000000000E+00 -0.43876554486E+03  0.43876554487E+03  0.25500000000E-02 0. -1.
    5000001    1    1    2    0    0  0.57514168027E+02 -0.94026598768E+02 -0.19111702146E+03  0.29711209449E+03  0.19900000000E+03 0.  0.
   -5000001    1    1    2    0    0 -0.57514168027E+02  0.94026598768E+02 -0.12818602618E+03  0.26111594763E+03  0.19900000000E+03 0.  0.
<mgrwt>
<rscale>  0 0.45789094E+03</rscale>
<asrwt>0</asrwt>
<pdfrwt beam="1">  1        2 0.17066071E-01 0.45789094E+03</pdfrwt>
<pdfrwt beam="2">  1       -2 0.62680792E-01 0.45789094E+03</pdfrwt>
<totfact> 0.81293684E+02</totfact>
</mgrwt>
</event>
<event>
 4    1  0.5069019E-005  0.4720095E+03  0.7818608E-02  0.1021355E+00
          2   -1    0    0  501    0  0.00000000000E+00  0.00000000000E+00  0.11608563491E+03  0.11608563494E+03  0.25500000000E-02 0.  1.
         -2   -1    0    0    0  501 -0.00000000000E+00 -0.00000000000E+00 -0.47980299541E+03  0.47980299542E+03  0.25500000000E-02 0. -1.
    5000001    1    1    2    0    0  0.93139472707E+02 -0.82989417387E+02 -0.21106008151E+03  0.31576821053E+03  0.19900000000E+03 0.  0.
   -5000001    1    1    2    0    0 -0.93139472707E+02  0.82989417387E+02 -0.15265727899E+03  0.28012041982E+03  0.19900000000E+03 0.  0.
<mgrwt>
<rscale>  0 0.47200947E+03</rscale>
<asrwt>0</asrwt>
<pdfrwt beam="1">  1        2 0.16583662E-01 0.47200947E+03</pdfrwt>
<pdfrwt beam="2">  1       -2 0.68543284E-01 0.47200947E+03</pdfrwt>
<totfact> 0.69511451E+02</totfact>
</mgrwt>
</event>
<event>
 4    1  0.5069019E-005  0.5025092E+03  0.7818608E-02  0.1013126E+00
         -2   -1    0    0    0  501 -0.00000000000E+00  0.00000000000E+00  0.33861672681E+02  0.33861672777E+02  0.25500000000E-02 0.  1.
          2   -1    0    0  501    0  0.00000000000E+00 -0.00000000000E+00 -0.18643164343E+04  0.18643164343E+04  0.25500000000E-02 0. -1.
    5000001    1    1    2    0    0 -0.50132085155E+02  0.76769744356E+02 -0.45072925143E+03  0.50116332438E+03  0.19900000000E+03 0.  0.
   -5000001    1    1    2    0    0  0.50132085155E+02 -0.76769744356E+02 -0.13797255102E+04  0.13970147827E+04  0.19900000000E+03 0.  0.
<mgrwt>
<rscale>  0 0.50250920E+03</rscale>
<asrwt>0</asrwt>
<pdfrwt beam="1">  1        2 0.26633085E+00 0.50250920E+03</pdfrwt>
<pdfrwt beam="2">  1       -2 0.48373830E-02 0.50250920E+03</pdfrwt>
<totfact> 0.21003210E+03</totfact>
</mgrwt>
</event>
<event>
 4    1  0.5069019E-005  0.5900335E+03  0.7818608E-02  0.9926302E-01
          2   -1    0    0  501    0  0.00000000000E+00  0.00000000000E+00  0.25612835894E+03  0.25612835895E+03  0.25500000000E-02 0.  1.
         -2   -1    0    0    0  501 -0.00000000000E+00 -0.00000000000E+00 -0.33980966354E+03  0.33980966355E+03  0.25500000000E-02 0. -1.
    5000001    1    1    2    0    0 -0.18043728368E+03  0.10998248710E+03 -0.95095237716E+02  0.30544699220E+03  0.19900000000E+03 0.  0.
   -5000001    1    1    2    0    0  0.18043728368E+03 -0.10998248710E+03  0.11413933117E+02  0.29049103029E+03  0.19900000000E+03 0.  0.
<mgrwt>
<rscale>  0 0.59003353E+03</rscale>
<asrwt>0</asrwt>
<pdfrwt beam="1">  1        2 0.36589766E-01 0.59003353E+03</pdfrwt>
<pdfrwt beam="2">  1       -2 0.48544238E-01 0.59003353E+03</pdfrwt>
<totfact> 0.57601898E+02</totfact>
</mgrwt>
</event>
<event>
 4    1  0.5069019E-005  0.6625664E+03  0.7818608E-02  0.9783481E-01
          2   -1    0    0  501    0  0.00000000000E+00  0.00000000000E+00  0.37964389635E+03  0.37964389636E+03  0.25500000000E-02 0.  1.
         -2   -1    0    0    0  501 -0.00000000000E+00 -0.00000000000E+00 -0.28908287624E+03  0.28908287625E+03  0.25500000000E-02 0. -1.
    5000001    1    1    2    0    0 -0.11327534871E+03 -0.23648290057E+03  0.76229803696E+01  0.32926368873E+03  0.19900000000E+03 0.  0.
   -5000001    1    1    2    0    0  0.11327534871E+03  0.23648290057E+03  0.82938039741E+02  0.33946308389E+03  0.19900000000E+03 0.  0.
<mgrwt>
<rscale>  0 0.66256637E+03</rscale>
<asrwt>0</asrwt>
<pdfrwt beam="1">  1        2 0.54234843E-01 0.66256637E+03</pdfrwt>
<pdfrwt beam="2">  1       -2 0.41297554E-01 0.66256637E+03</pdfrwt>
<totfact> 0.51286029E+02</totfact>
</mgrwt>
</event>
<event>
 4    1  0.5069019E-005  0.8904480E+03  0.7818608E-02  0.9437601E-01
         -2   -1    0    0    0  501 -0.00000000000E+00  0.00000000000E+00  0.40505448841E+03  0.40505448842E+03  0.25500000000E-02 0. -1.
          2   -1    0    0  501    0  0.00000000000E+00 -0.00000000000E+00 -0.48937712446E+03  0.48937712447E+03  0.25500000000E-02 0.  1.
    5000001    1    1    2    0    0 -0.36544352360E+03 -0.14366037876E+03 -0.10906354811E+03  0.45352302135E+03  0.19900000000E+03 0.  0.
   -5000001    1    1    2    0    0  0.36544352360E+03  0.14366037876E+03  0.24740912063E+02  0.44090859154E+03  0.19900000000E+03 0.  0.
<mgrwt>
<rscale>  0 0.89044798E+03</rscale>
<asrwt>0</asrwt>
<pdfrwt beam="1">  1        2 0.69911018E-01 0.89044798E+03</pdfrwt>
<pdfrwt beam="2">  1       -2 0.57864927E-01 0.89044798E+03</pdfrwt>
<totfact> 0.19313029E+02</totfact>
</mgrwt>
</event>
<event>
 4    1  0.5069019E-005  0.6398455E+03  0.7818608E-02  0.9826022E-01
         -2   -1    0    0    0  501 -0.00000000000E+00  0.00000000000E+00  0.76309198563E+02  0.76309198606E+02  0.25500000000E-02 0. -1.
          2   -1    0    0  501    0  0.00000000000E+00 -0.00000000000E+00 -0.13412613088E+04  0.13412613088E+04  0.25500000000E-02 0.  1.
    5000001    1    1    2    0    0  0.90094284473E+02  0.21964437339E+03 -0.80956200034E+03  0.86680578174E+03  0.19900000000E+03 0.  0.
   -5000001    1    1    2    0    0 -0.90094284473E+02 -0.21964437339E+03 -0.45539010991E+03  0.55076472568E+03  0.19900000000E+03 0.  0.
<mgrwt>
<rscale>  0 0.63984553E+03</rscale>
<asrwt>0</asrwt>
<pdfrwt beam="1">  1        2 0.19160874E+00 0.63984553E+03</pdfrwt>
<pdfrwt beam="2">  1       -2 0.10901315E-01 0.63984553E+03</pdfrwt>
<totfact> 0.10728778E+03</totfact>
</mgrwt>
</event>
<event>
 4    1  0.5069019E-005  0.5378616E+03  0.7818608E-02  0.1004343E+00
         -2   -1    0    0    0  501 -0.00000000000E+00  0.00000000000E+00  0.11993091118E+03  0.11993091121E+03  0.25500000000E-02 0. -1.
          2   -1    0    0  501    0  0.00000000000E+00 -0.00000000000E+00 -0.60304538582E+03  0.60304538582E+03  0.25500000000E-02 0.  1.
    5000001    1    1    2    0    0 -0.93321844749E+01 -0.10417332012E+03 -0.43994662959E+03  0.49405789861E+03  0.19900000000E+03 0.  0.
   -5000001    1    1    2    0    0  0.93321844749E+01  0.10417332012E+03 -0.43167845045E+02  0.22891839843E+03  0.19900000000E+03 0.  0.
<mgrwt>
<rscale>  0 0.53786163E+03</rscale>
<asrwt>0</asrwt>
<pdfrwt beam="1">  1        2 0.86149339E-01 0.53786163E+03</pdfrwt>
<pdfrwt beam="2">  1       -2 0.17132988E-01 0.53786163E+03</pdfrwt>
<totfact> 0.15043720E+03</totfact>
</mgrwt>
</event>
<event>
 4    1  0.5069019E-005  0.5147891E+03  0.7818608E-02  0.1009989E+00
          2   -1    0    0  501    0  0.00000000000E+00  0.00000000000E+00  0.27538144235E+03  0.27538144236E+03  0.25500000000E-02 0.  1.
         -2   -1    0    0    0  501 -0.00000000000E+00 -0.00000000000E+00 -0.24058245136E+03  0.24058245137E+03  0.25500000000E-02 0. -1.
    5000001    1    1    2    0    0  0.33356180299E+02 -0.15792119836E+03  0.41933979480E+02  0.25963666592E+03  0.19900000000E+03 0.  0.
   -5000001    1    1    2    0    0 -0.33356180299E+02  0.15792119836E+03 -0.71349884944E+01  0.25632722781E+03  0.19900000000E+03 0.  0.
<mgrwt>
<rscale>  0 0.51478905E+03</rscale>
<asrwt>0</asrwt>
<pdfrwt beam="1">  1        2 0.39340206E-01 0.51478905E+03</pdfrwt>
<pdfrwt beam="2">  1       -2 0.34368922E-01 0.51478905E+03</pdfrwt>
<totfact> 0.10418043E+03</totfact>
</mgrwt>
</event>
<event>
 4    1  0.5069019E-005  0.7060255E+03  0.7818608E-02  0.9706983E-01
          2   -1    0    0  501    0  0.00000000000E+00  0.00000000000E+00  0.35586836402E+04  0.35586836402E+04  0.25500000000E-02 0.  1.
         -2   -1    0    0    0  501 -0.00000000000E+00 -0.00000000000E+00 -0.35018004382E+02  0.35018004475E+02  0.25500000000E-02 0. -1.
    5000001    1    1    2    0    0 -0.12173265834E+03  0.53181920188E+02  0.44067590379E+03  0.50144133148E+03  0.19900000000E+03 0.  0.
   -5000001    1    1    2    0    0  0.12173265834E+03 -0.53181920188E+02  0.30829897320E+04  0.30922603132E+04  0.19900000000E+03 0.  0.
<mgrwt>
<rscale>  0 0.70602549E+03</rscale>
<asrwt>0</asrwt>
<pdfrwt beam="1">  1        2 0.50838364E+00 0.70602549E+03</pdfrwt>
<pdfrwt beam="2">  1       -2 0.50025695E-02 0.70602549E+03</pdfrwt>
<totfact> 0.24498068E+02</totfact>
</mgrwt>
</event>
<event>
 4    1  0.5069019E-005  0.6531219E+03  0.7818608E-02  0.9800939E-01
          2   -1    0    0  501    0  0.00000000000E+00  0.00000000000E+00  0.23525309787E+04  0.23525309787E+04  0.25500000000E-02 0.  1.
         -2   -1    0    0    0  501 -0.00000000000E+00 -0.00000000000E+00 -0.45330769234E+02  0.45330769306E+02  0.25500000000E-02 0. -1.
    5000001    1    1    2    0    0  0.92794350691E+02 -0.13427713270E+02  0.20396897877E+04  0.20515181026E+04  0.19900000000E+03 0.  0.
   -5000001    1    1    2    0    0 -0.92794350691E+02  0.13427713270E+02  0.26751042178E+03  0.34634364548E+03  0.19900000000E+03 0.  0.
<mgrwt>
<rscale>  0 0.65312185E+03</rscale>
<asrwt>0</asrwt>
<pdfrwt beam="1">  1        2 0.33607587E+00 0.65312185E+03</pdfrwt>
<pdfrwt beam="2">  1       -2 0.64758239E-02 0.65312185E+03</pdfrwt>
<totfact> 0.75113820E+02</totfact>
</mgrwt>
</event>
<event>
 4    1  0.5069019E-005  0.6945494E+03  0.7818608E-02  0.9726599E-01
         -2   -1    0    0    0  501 -0.00000000000E+00  0.00000000000E+00  0.30304055689E+02  0.30304055796E+02  0.25500000000E-02 0. -1.
          2   -1    0    0  501    0  0.00000000000E+00 -0.00000000000E+00 -0.39796564330E+04  0.39796564330E+04  0.25500000000E-02 0.  1.
    5000001    1    1    2    0    0  0.65901909750E+02  0.17084436081E+03 -0.32325492474E+04  0.32438413176E+04  0.19900000000E+03 0.  0.
   -5000001    1    1    2    0    0 -0.65901909750E+02 -0.17084436081E+03 -0.71680312995E+03  0.76611917117E+03  0.19900000000E+03 0.  0.
<mgrwt>
<rscale>  0 0.69454944E+03</rscale>
<asrwt>0</asrwt>
<pdfrwt beam="1">  1        2 0.56852202E+00 0.69454944E+03</pdfrwt>
<pdfrwt beam="2">  1       -2 0.43291533E-02 0.69454944E+03</pdfrwt>
<totfact> 0.16619186E+02</totfact>
</mgrwt>
</event>
<event>
 4    1  0.5069019E-005  0.4839067E+03  0.7818608E-02  0.1018067E+00
         -2   -1    0    0    0  501 -0.00000000000E+00  0.00000000000E+00  0.12263745072E+03  0.12263745075E+03  0.25500000000E-02 0. -1.
          2   -1    0    0  501    0  0.00000000000E+00 -0.00000000000E+00 -0.47735363999E+03  0.47735364000E+03  0.25500000000E-02 0.  1.
    5000001    1    1    2    0    0  0.89975177060E+02 -0.91072808776E+02 -0.11473881056E+03  0.26297487263E+03  0.19900000000E+03 0.  0.
   -5000001    1    1    2    0    0 -0.89975177060E+02  0.91072808776E+02 -0.23997737871E+03  0.33701621812E+03  0.19900000000E+03 0.  0.
<mgrwt>
<rscale>  0 0.48390674E+03</rscale>
<asrwt>0</asrwt>
<pdfrwt beam="1">  1        2 0.68193376E-01 0.48390674E+03</pdfrwt>
<pdfrwt beam="2">  1       -2 0.17519636E-01 0.48390674E+03</pdfrwt>
<totfact> 0.18925844E+03</totfact>
</mgrwt>
</event>
<event>
 4    1  0.5069019E-005  0.5924880E+03  0.7818608E-02  0.9921115E-01
          2   -1    0    0  501    0  0.00000000000E+00  0.00000000000E+00  0.50452254266E+03  0.50452254267E+03  0.25500000000E-02 0.  1.
         -2   -1    0    0    0  501 -0.00000000000E+00 -0.00000000000E+00 -0.17394766151E+03  0.17394766153E+03  0.25500000000E-02 0. -1.
    5000001    1    1    2    0    0 -0.16055274693E+03 -0.92841267007E+02  0.29962736162E+03  0.40469030287E+03  0.19900000000E+03 0.  0.
   -5000001    1    1    2    0    0  0.16055274693E+03  0.92841267007E+02  0.30947519530E+02  0.27377990133E+03  0.19900000000E+03 0.  0.
<mgrwt>
<rscale>  0 0.59248803E+03</rscale>
<asrwt>0</asrwt>
<pdfrwt beam="1">  1        2 0.72074648E-01 0.59248803E+03</pdfrwt>
<pdfrwt beam="2">  1       -2 0.24849666E-01 0.59248803E+03</pdfrwt>
<totfact> 0.96503778E+02</totfact>
</mgrwt>
</event>
<event>
 4    1  0.5069019E-005  0.4487473E+03  0.7818608E-02  0.1028096E+00
          2   -1    0    0  501    0  0.00000000000E+00  0.00000000000E+00  0.25282944422E+04  0.25282944422E+04  0.25500000000E-02 0.  1.
         -2   -1    0    0    0  501 -0.00000000000E+00 -0.00000000000E+00 -0.19912049332E+02  0.19912049495E+02  0.25500000000E-02 0. -1.
    5000001    1    1    2    0    0 -0.83985402031E+02 -0.59762407767E+02  0.11926559844E+04  0.12135297237E+04  0.19900000000E+03 0.  0.
   -5000001    1    1    2    0    0  0.83985402031E+02  0.59762407767E+02  0.13157264085E+04  0.13346767680E+04  0.19900000000E+03 0.  0.
<mgrwt>
<rscale>  0 0.44874725E+03</rscale>
<asrwt>0</asrwt>
<pdfrwt beam="1">  1        2 0.36118512E+00 0.44874725E+03</pdfrwt>
<pdfrwt beam="2">  1       -2 0.28445769E-02 0.44874725E+03</pdfrwt>
<totfact> 0.21972146E+03</totfact>
</mgrwt>
</event>
<event>
 4    1  0.5069019E-005  0.6106016E+03  0.7818608E-02  0.9883652E-01
         -2   -1    0    0    0  501 -0.00000000000E+00  0.00000000000E+00  0.40126387666E+03  0.40126387667E+03  0.25500000000E-02 0. -1.
          2   -1    0    0  501    0  0.00000000000E+00 -0.00000000000E+00 -0.23228745862E+03  0.23228745863E+03  0.25500000000E-02 0.  1.
    5000001    1    1    2    0    0  0.10507147987E+03 -0.20399908401E+03  0.11650111050E+03  0.32531392670E+03  0.19900000000E+03 0.  0.
   -5000001    1    1    2    0    0 -0.10507147987E+03  0.20399908401E+03  0.52475307552E+02  0.30823740860E+03  0.19900000000E+03 0.  0.
<mgrwt>
<rscale>  0 0.61060156E+03</rscale>
<asrwt>0</asrwt>
<pdfrwt beam="1">  1        2 0.33183923E-01 0.61060156E+03</pdfrwt>
<pdfrwt beam="2">  1       -2 0.57323411E-01 0.61060156E+03</pdfrwt>
<totfact> 0.45669949E+02</totfact>
</mgrwt>
</event>
<event>
 4    1  0.5069019E-005  0.6728385E+03  0.7818608E-02  0.9764844E-01
          2   -1    0    0  501    0  0.00000000000E+00  0.00000000000E+00  0.75807754471E+02  0.75807754514E+02  0.25500000000E-02 0.  1.
         -2   -1    0    0    0  501 -0.00000000000E+00 -0.00000000000E+00 -0.14929594781E+04  0.14929594781E+04  0.25500000000E-02 0. -1.
    5000001    1    1    2    0    0 -0.14555676315E+03 -0.22594646134E+03 -0.62327970970E+03  0.70733101954E+03  0.19900000000E+03 0.  0.
   -5000001    1    1    2    0    0  0.14555676315E+03  0.22594646134E+03 -0.79387201392E+03  0.86143621306E+03  0.19900000000E+03 0.  0.
<mgrwt>
<rscale>  0 0.67283848E+03</rscale>
<asrwt>0</asrwt>
<pdfrwt beam="1">  1        2 0.10829680E-01 0.67283848E+03</pdfrwt>
<pdfrwt beam="2">  1       -2 0.21327991E+00 0.67283848E+03</pdfrwt>
<totfact> 0.67160829E+01</totfact>
</mgrwt>
</event>
<event>
 4    1  0.5069019E-005  0.4816992E+03  0.7818608E-02  0.1018669E+00
          2   -1    0    0  501    0  0.00000000000E+00  0.00000000000E+00  0.19201758544E+04  0.19201758544E+04  0.25500000000E-02 0.  1.
         -2   -1    0    0    0  501 -0.00000000000E+00 -0.00000000000E+00 -0.30210014956E+02  0.30210015064E+02  0.25500000000E-02 0. -1.
    5000001    1    1    2    0    0 -0.13104037122E+03 -0.30060777527E+02  0.87117249852E+03  0.90366904972E+03  0.19900000000E+03 0.  0.
   -5000001    1    1    2    0    0  0.13104037122E+03  0.30060777527E+02  0.10187933409E+04  0.10467168197E+04  0.19900000000E+03 0.  0.
<mgrwt>
<rscale>  0 0.48169925E+03</rscale>
<asrwt>0</asrwt>
<pdfrwt beam="1">  1        2 0.27431097E+00 0.48169925E+03</pdfrwt>
<pdfrwt beam="2">  1       -2 0.43157143E-02 0.48169925E+03</pdfrwt>
<totfact> 0.23492059E+03</totfact>
</mgrwt>
</event>
<event>
 4    1  0.5069019E-005  0.4727488E+03  0.7818608E-02  0.1021147E+00
         -2   -1    0    0    0  501 -0.00000000000E+00  0.00000000000E+00  0.21110514183E+02  0.21110514337E+02  0.25500000000E-02 0. -1.
          2   -1    0    0  501    0  0.00000000000E+00 -0.00000000000E+00 -0.26466837607E+04  0.26466837607E+04  0.25500000000E-02 0.  1.
    5000001    1    1    2    0    0  0.46056653057E+02  0.10926896074E+03 -0.10474422902E+04  0.10727521953E+04  0.19900000000E+03 0.  0.
   -5000001    1    1    2    0    0 -0.46056653057E+02 -0.10926896074E+03 -0.15781309563E+04  0.15950420798E+04  0.19900000000E+03 0.  0.
<mgrwt>
<rscale>  0 0.47274879E+03</rscale>
<asrwt>0</asrwt>
<pdfrwt beam="1">  1        2 0.37809747E+00 0.47274879E+03</pdfrwt>
<pdfrwt beam="2">  1       -2 0.30157894E-02 0.47274879E+03</pdfrwt>
<totfact> 0.17465137E+03</totfact>
</mgrwt>
</event>
<event>
 4    1  0.5069019E-005  0.5105452E+03  0.7818608E-02  0.1011063E+00
         -2   -1    0    0    0  501 -0.00000000000E+00  0.00000000000E+00  0.12339510836E+03  0.12339510838E+03  0.25500000000E-02 0. -1.
          2   -1    0    0  501    0  0.00000000000E+00 -0.00000000000E+00 -0.52809309744E+03  0.52809309745E+03  0.25500000000E-02 0.  1.
    5000001    1    1    2    0    0  0.95786625463E+02  0.46474733333E+02 -0.50137936678E+02  0.23119210875E+03  0.19900000000E+03 0.  0.
   -5000001    1    1    2    0    0 -0.95786625463E+02 -0.46474733333E+02 -0.35456005240E+03  0.42029609708E+03  0.19900000000E+03 0.  0.
<mgrwt>
<rscale>  0 0.51054522E+03</rscale>
<asrwt>0</asrwt>
<pdfrwt beam="1">  1        2 0.75441870E-01 0.51054522E+03</pdfrwt>
<pdfrwt beam="2">  1       -2 0.17627873E-01 0.51054522E+03</pdfrwt>
<totfact> 0.16708246E+03</totfact>
</mgrwt>
</event>
<event>
 4    1  0.5069019E-005  0.6884598E+03  0.7818608E-02  0.9737174E-01
         -2   -1    0    0    0  501 -0.00000000000E+00  0.00000000000E+00  0.67180484193E+02  0.67180484242E+02  0.25500000000E-02 0. -1.
          2   -1    0    0  501    0  0.00000000000E+00 -0.00000000000E+00 -0.17638188926E+04  0.17638188926E+04  0.25500000000E-02 0.  1.
    5000001    1    1    2    0    0  0.26422251957E+03 -0.61093097838E+01 -0.59541843649E+03  0.68115708763E+03  0.19900000000E+03 0.  0.
   -5000001    1    1    2    0    0 -0.26422251957E+03  0.61093097838E+01 -0.11012199719E+04  0.11498422892E+04  0.19900000000E+03 0.  0.
<mgrwt>
<rscale>  0 0.68845975E+03</rscale>
<asrwt>0</asrwt>
<pdfrwt beam="1">  1        2 0.25197410E+00 0.68845975E+03</pdfrwt>
<pdfrwt beam="2">  1       -2 0.95972131E-02 0.68845975E+03</pdfrwt>
<totfact> 0.79369274E+02</totfact>
</mgrwt>
</event>
<event>
 4    1  0.5069019E-005  0.1209805E+04  0.7818608E-02  0.9104317E-01
         -2   -1    0    0    0  501 -0.00000000000E+00  0.00000000000E+00  0.28495997086E+03  0.28495997087E+03  0.25500000000E-02 0. -1.
          2   -1    0    0  501    0  0.00000000000E+00 -0.00000000000E+00 -0.12840647293E+04  0.12840647293E+04  0.25500000000E-02 0.  1.
    5000001    1    1    2    0    0 -0.50433717560E+03 -0.25161669784E+03 -0.37900754307E+03  0.70775325293E+03  0.19900000000E+03 0.  0.
   -5000001    1    1    2    0    0  0.50433717560E+03  0.25161669784E+03 -0.62009721538E+03  0.86127144725E+03  0.19900000000E+03 0.  0.
<mgrwt>
<rscale>  0 0.12098050E+04</rscale>
<asrwt>0</asrwt>
<pdfrwt beam="1">  1        2 0.18343781E+00 0.12098050E+04</pdfrwt>
<pdfrwt beam="2">  1       -2 0.40708568E-01 0.12098050E+04</pdfrwt>
<totfact> 0.10789159E+02</totfact>
</mgrwt>
</event>
<event>
 4    1  0.5069019E-005  0.4833648E+03  0.7818608E-02  0.1018215E+00
          2   -1    0    0  501    0  0.00000000000E+00  0.00000000000E+00  0.10494477301E+04  0.10494477301E+04  0.25500000000E-02 0. -1.
         -2   -1    0    0    0  501 -0.00000000000E+00 -0.00000000000E+00 -0.55658206845E+02  0.55658206903E+02  0.25500000000E-02 0.  1.
    5000001    1    1    2    0    0  0.12733911286E+03 -0.49723118157E+02  0.47166885126E+03  0.52986804338E+03  0.19900000000E+03 0.  0.
   -5000001    1    1    2    0    0 -0.12733911286E+03  0.49723118157E+02  0.52212067197E+03  0.57523789361E+03  0.19900000000E+03 0.  0.
<mgrwt>
<rscale>  0 0.48336479E+03</rscale>
<asrwt>0</asrwt>
<pdfrwt beam="1">  1        2 0.14992112E+00 0.48336479E+03</pdfrwt>
<pdfrwt beam="2">  1       -2 0.79511717E-02 0.48336479E+03</pdfrwt>
<totfact> 0.26078665E+03</totfact>
</mgrwt>
</event>
<event>
 4    1  0.5069019E-005  0.8189709E+03  0.7818608E-02  0.9532956E-01
         -2   -1    0    0    0  501 -0.00000000000E+00  0.00000000000E+00  0.12514706016E+03  0.12514706018E+03  0.25500000000E-02 0. -1.
          2   -1    0    0  501    0  0.00000000000E+00 -0.00000000000E+00 -0.13398502906E+04  0.13398502906E+04  0.25500000000E-02 0.  1.
    5000001    1    1    2    0    0  0.29322882595E+03  0.18590362824E+03 -0.45208366842E+03  0.60375818555E+03  0.19900000000E+03 0.  0.
   -5000001    1    1    2    0    0 -0.29322882595E+03 -0.18590362824E+03 -0.76261956201E+03  0.86123916523E+03  0.19900000000E+03 0.  0.
<mgrwt>
<rscale>  0 0.81897088E+03</rscale>
<asrwt>0</asrwt>
<pdfrwt beam="1">  1        2 0.19140718E+00 0.81897088E+03</pdfrwt>
<pdfrwt beam="2">  1       -2 0.17878152E-01 0.81897088E+03</pdfrwt>
<totfact> 0.46502167E+02</totfact>
</mgrwt>
</event>
<event>
 4    1  0.5069019E-005  0.9857827E+03  0.7818608E-02  0.9324277E-01
          2   -1    0    0  501    0  0.00000000000E+00  0.00000000000E+00  0.16106378716E+04  0.16106378716E+04  0.25500000000E-02 0.  1.
         -2   -1    0    0    0  501 -0.00000000000E+00 -0.00000000000E+00 -0.15083581518E+03  0.15083581520E+03  0.25500000000E-02 0. -1.
    5000001    1    1    2    0    0 -0.32499972141E+03  0.31168467354E+03  0.68728775719E+03  0.84542156101E+03  0.19900000000E+03 0.  0.
   -5000001    1    1    2    0    0  0.32499972141E+03 -0.31168467354E+03  0.77251429923E+03  0.91605212578E+03  0.19900000000E+03 0.  0.
<mgrwt>
<rscale>  0 0.98578269E+03</rscale>
<asrwt>0</asrwt>
<pdfrwt beam="1">  1        2 0.23009114E+00 0.98578269E+03</pdfrwt>
<pdfrwt beam="2">  1       -2 0.21547972E-01 0.98578269E+03</pdfrwt>
<totfact> 0.23867719E+02</totfact>
</mgrwt>
</event>
<event>
 4    1  0.5069019E-005  0.6506845E+03  0.7818608E-02  0.9805496E-01
         -2   -1    0    0    0  501 -0.00000000000E+00  0.00000000000E+00  0.37727910280E+03  0.37727910281E+03  0.25500000000E-02 0. -1.
          2   -1    0    0  501    0  0.00000000000E+00 -0.00000000000E+00 -0.28055511053E+03  0.28055511054E+03  0.25500000000E-02 0.  1.
    5000001    1    1    2    0    0 -0.19271922546E+03 -0.16829004713E+03  0.76675807507E+02  0.33308019947E+03  0.19900000000E+03 0.  0.
   -5000001    1    1    2    0    0  0.19271922546E+03  0.16829004713E+03  0.20048184764E+02  0.32475401389E+03  0.19900000000E+03 0.  0.
<mgrwt>
<rscale>  0 0.65068450E+03</rscale>
<asrwt>0</asrwt>
<pdfrwt beam="1">  1        2 0.40079302E-01 0.65068450E+03</pdfrwt>
<pdfrwt beam="2">  1       -2 0.53897015E-01 0.65068450E+03</pdfrwt>
<totfact> 0.42028640E+02</totfact>
</mgrwt>
</event>
<event>
 4    1  0.5069019E-005  0.9901984E+03  0.7818608E-02  0.9319361E-01
         -2   -1    0    0    0  501 -0.00000000000E+00  0.00000000000E+00  0.36820676091E+03  0.36820676092E+03  0.25500000000E-02 0. -1.
          2   -1    0    0  501    0  0.00000000000E+00 -0.00000000000E+00 -0.66572171182E+03  0.66572171183E+03  0.25500000000E-02 0.  1.
    5000001    1    1    2    0    0  0.42503876169E+03  0.15727777337E+03 -0.13694466288E+03  0.51356507633E+03  0.19900000000E+03 0.  0.
   -5000001    1    1    2    0    0 -0.42503876169E+03 -0.15727777337E+03 -0.16057028803E+03  0.52036339642E+03  0.19900000000E+03 0.  0.
<mgrwt>
<rscale>  0 0.99019844E+03</rscale>
<asrwt>0</asrwt>
<pdfrwt beam="1">  1        2 0.95103102E-01 0.99019844E+03</pdfrwt>
<pdfrwt beam="2">  1       -2 0.52600966E-01 0.99019844E+03</pdfrwt>
<totfact> 0.16307289E+02</totfact>
</mgrwt>
</event>
<event>
 4    1  0.5069019E-005  0.6078587E+03  0.7818608E-02  0.9889235E-01
         -2   -1    0    0    0  501 -0.00000000000E+00  0.00000000000E+00  0.55201779560E+03  0.55201779561E+03  0.25500000000E-02 0. -1.
          2   -1    0    0  501    0  0.00000000000E+00 -0.00000000000E+00 -0.16733706107E+03  0.16733706109E+03  0.25500000000E-02 0.  1.
    5000001    1    1    2    0    0  0.88359562240E+02 -0.14177711275E+03  0.37894609569E+03  0.45946632671E+03  0.19900000000E+03 0.  0.
   -5000001    1    1    2    0    0 -0.88359562240E+02  0.14177711275E+03  0.57346388428E+01  0.25988852999E+03  0.19900000000E+03 0.  0.
<mgrwt>
<rscale>  0 0.60785865E+03</rscale>
<asrwt>0</asrwt>
<pdfrwt beam="1">  1        2 0.23905294E-01 0.60785865E+03</pdfrwt>
<pdfrwt beam="2">  1       -2 0.78859685E-01 0.60785865E+03</pdfrwt>
<totfact> 0.33280764E+02</totfact>
</mgrwt>
</event>
<event>
 4    1  0.5069019E-005  0.4706846E+03  0.7818608E-02  0.1021727E+00
         -2   -1    0    0    0  501 -0.00000000000E+00  0.00000000000E+00  0.36793875279E+02  0.36793875367E+02  0.25500000000E-02 0.  1.
          2   -1    0    0  501    0  0.00000000000E+00 -0.00000000000E+00 -0.15053046640E+04  0.15053046640E+04  0.25500000000E-02 0. -1.
    5000001    1    1    2    0    0  0.10110757546E+03  0.74571106808E+02 -0.73037835545E+03  0.76735724007E+03  0.19900000000E+03 0.  0.
   -5000001    1    1    2    0    0 -0.10110757546E+03 -0.74571106808E+02 -0.73813243327E+03  0.77474129929E+03  0.19900000000E+03 0.  0.
<mgrwt>
<rscale>  0 0.47068457E+03</rscale>
<asrwt>0</asrwt>
<pdfrwt beam="1">  1        2 0.21504349E+00 0.47068457E+03</pdfrwt>
<pdfrwt beam="2">  1       -2 0.52562688E-02 0.47068457E+03</pdfrwt>
<totfact> 0.28100123E+03</totfact>
</mgrwt>
</event>
<event>
 4    1  0.5069019E-005  0.8557193E+03  0.7818608E-02  0.9482693E-01
          2   -1    0    0  501    0  0.00000000000E+00  0.00000000000E+00  0.10979051345E+04  0.10979051345E+04  0.25500000000E-02 0.  1.
         -2   -1    0    0    0  501 -0.00000000000E+00 -0.00000000000E+00 -0.16673923268E+03  0.16673923270E+03  0.25500000000E-02 0. -1.
    5000001    1    1    2    0    0  0.37927504967E+02  0.36118041411E+03  0.62456989014E+03  0.74938530466E+03  0.19900000000E+03 0.  0.
   -5000001    1    1    2    0    0 -0.37927504967E+02 -0.36118041411E+03  0.30659601169E+03  0.51525906256E+03  0.19900000000E+03 0.  0.
<mgrwt>
<rscale>  0 0.85571925E+03</rscale>
<asrwt>0</asrwt>
<pdfrwt beam="1">  1        2 0.15684359E+00 0.85571925E+03</pdfrwt>
<pdfrwt beam="2">  1       -2 0.23819890E-01 0.85571925E+03</pdfrwt>
<totfact> 0.38372563E+02</totfact>
</mgrwt>
</event>
<event>
 4    1  0.5069019E-005  0.5487343E+03  0.7818608E-02  0.1001787E+00
         -2   -1    0    0    0  501 -0.00000000000E+00  0.00000000000E+00  0.11361457269E+03  0.11361457272E+03  0.25500000000E-02 0. -1.
          2   -1    0    0  501    0  0.00000000000E+00 -0.00000000000E+00 -0.66256765121E+03  0.66256765121E+03  0.25500000000E-02 0.  1.
    5000001    1    1    2    0    0 -0.86032107652E+02 -0.80809041508E+02 -0.48305930952E+03  0.53561079269E+03  0.19900000000E+03 0.  0.
   -5000001    1    1    2    0    0  0.86032107652E+02  0.80809041508E+02 -0.65893768994E+02  0.24057143124E+03  0.19900000000E+03 0.  0.
<mgrwt>
<rscale>  0 0.54873433E+03</rscale>
<asrwt>0</asrwt>
<pdfrwt beam="1">  1        2 0.94652520E-01 0.54873433E+03</pdfrwt>
<pdfrwt beam="2">  1       -2 0.16230654E-01 0.54873433E+03</pdfrwt>
<totfact> 0.14748392E+03</totfact>
</mgrwt>
</event>
<event>
 4    1  0.5069019E-005  0.7543667E+03  0.7818608E-02  0.9628524E-01
          2   -1    0    0  501    0  0.00000000000E+00  0.00000000000E+00  0.16452803448E+04  0.16452803448E+04  0.25500000000E-02 0.  1.
         -2   -1    0    0    0  501 -0.00000000000E+00 -0.00000000000E+00 -0.86469938618E+02  0.86469938655E+02  0.25500000000E-02 0. -1.
    5000001    1    1    2    0    0  0.24642348059E+03 -0.17662185906E+03  0.10173826549E+04  0.10800871628E+04  0.19900000000E+03 0.  0.
   -5000001    1    1    2    0    0 -0.24642348059E+03  0.17662185906E+03  0.54142775127E+03  0.65166312058E+03  0.19900000000E+03 0.  0.
<mgrwt>
<rscale>  0 0.75436673E+03</rscale>
<asrwt>0</asrwt>
<pdfrwt beam="1">  1        2 0.23504004E+00 0.75436673E+03</pdfrwt>
<pdfrwt beam="2">  1       -2 0.12352849E-01 0.75436673E+03</pdfrwt>
<totfact> 0.60144518E+02</totfact>
</mgrwt>
</event>
<event>
 4    1  0.5069019E-005  0.6173899E+03  0.7818608E-02  0.9869970E-01
         -2   -1    0    0    0  501 -0.00000000000E+00  0.00000000000E+00  0.80064195625E+02  0.80064195666E+02  0.25500000000E-02 0. -1.
          2   -1    0    0  501    0  0.00000000000E+00 -0.00000000000E+00 -0.11902019249E+04  0.11902019249E+04  0.25500000000E-02 0.  1.
    5000001    1    1    2    0    0  0.11336026281E+03  0.12276449672E+03 -0.21220454352E+03  0.33548984952E+03  0.19900000000E+03 0.  0.
   -5000001    1    1    2    0    0 -0.11336026281E+03 -0.12276449672E+03 -0.89793318572E+03  0.93477627102E+03  0.19900000000E+03 0.  0.
<mgrwt>
<rscale>  0 0.61738986E+03</rscale>
<asrwt>0</asrwt>
<pdfrwt beam="1">  1        2 0.17002884E+00 0.61738986E+03</pdfrwt>
<pdfrwt beam="2">  1       -2 0.11437743E-01 0.61738986E+03</pdfrwt>
<totfact> 0.12018414E+03</totfact>
</mgrwt>
</event>
<event>
 4    1  0.5069019E-005  0.5451666E+03  0.7818608E-02  0.1002619E+00
         -2   -1    0    0    0  501 -0.00000000000E+00  0.00000000000E+00  0.21022202938E+02  0.21022203092E+02  0.25500000000E-02 0. -1.
          2   -1    0    0  501    0  0.00000000000E+00 -0.00000000000E+00 -0.35344370161E+04  0.35344370161E+04  0.25500000000E-02 0.  1.
    5000001    1    1    2    0    0  0.64205073847E+02 -0.16499916327E+03 -0.13790269581E+04  0.14045153494E+04  0.19900000000E+03 0.  0.
   -5000001    1    1    2    0    0 -0.64205073847E+02  0.16499916327E+03 -0.21343878550E+04  0.21509438698E+04  0.19900000000E+03 0.  0.
<mgrwt>
<rscale>  0 0.54516659E+03</rscale>
<asrwt>0</asrwt>
<pdfrwt beam="1">  1        2 0.50491919E+00 0.54516659E+03</pdfrwt>
<pdfrwt beam="2">  1       -2 0.30031741E-02 0.54516659E+03</pdfrwt>
<totfact> 0.56556476E+02</totfact>
</mgrwt>
</event>
<event>
 4    1  0.5069019E-005  0.6399744E+03  0.7818608E-02  0.9825775E-01
          2   -1    0    0  501    0  0.00000000000E+00  0.00000000000E+00  0.85420486266E+03  0.85420486267E+03  0.25500000000E-02 0.  1.
         -2   -1    0    0    0  501 -0.00000000000E+00 -0.00000000000E+00 -0.11986798052E+03  0.11986798055E+03  0.25500000000E-02 0. -1.
    5000001    1    1    2    0    0  0.22933385881E+03 -0.57154692006E+02  0.49387516128E+03  0.58255845419E+03  0.19900000000E+03 0.  0.
   -5000001    1    1    2    0    0 -0.22933385881E+03  0.57154692006E+02  0.24046172086E+03  0.39151438902E+03  0.19900000000E+03 0.  0.
<mgrwt>
<rscale>  0 0.63997441E+03</rscale>
<asrwt>0</asrwt>
<pdfrwt beam="1">  1        2 0.12202927E+00 0.63997441E+03</pdfrwt>
<pdfrwt beam="2">  1       -2 0.17123997E-01 0.63997441E+03</pdfrwt>
<totfact> 0.97802115E+02</totfact>
</mgrwt>
</event>
<event>
 4    1  0.5069019E-005  0.5242759E+03  0.7818608E-02  0.1007630E+00
         -2   -1    0    0    0  501 -0.00000000000E+00  0.00000000000E+00  0.15172387385E+03  0.15172387387E+03  0.25500000000E-02 0. -1.
          2   -1    0    0  501    0  0.00000000000E+00 -0.00000000000E+00 -0.45290375579E+03  0.45290375580E+03  0.25500000000E-02 0.  1.
    5000001    1    1    2    0    0 -0.14876634079E+03 -0.76991443466E+02 -0.18807017943E+03  0.32098364275E+03  0.19900000000E+03 0.  0.
   -5000001    1    1    2    0    0  0.14876634079E+03  0.76991443466E+02 -0.11310970250E+03  0.28364398692E+03  0.19900000000E+03 0.  0.
<mgrwt>
<rscale>  0 0.52427593E+03</rscale>
<asrwt>0</asrwt>
<pdfrwt beam="1">  1        2 0.64700536E-01 0.52427593E+03</pdfrwt>
<pdfrwt beam="2">  1       -2 0.21674839E-01 0.52427593E+03</pdfrwt>
<totfact> 0.13896279E+03</totfact>
</mgrwt>
</event>
<event>
 4    1  0.5069019E-005  0.4621974E+03  0.7818608E-02  0.1024146E+00
         -2   -1    0    0    0  501 -0.00000000000E+00  0.00000000000E+00  0.29127372154E+03  0.29127372155E+03  0.25500000000E-02 0. -1.
          2   -1    0    0  501    0  0.00000000000E+00 -0.00000000000E+00 -0.18335541287E+03  0.18335541289E+03  0.25500000000E-02 0.  1.
    5000001    1    1    2    0    0 -0.84191779050E+02 -0.81171550162E+02  0.65601524459E+02  0.23996173909E+03  0.19900000000E+03 0.  0.
   -5000001    1    1    2    0    0  0.84191779050E+02  0.81171550162E+02  0.42316784210E+02  0.23466739535E+03  0.19900000000E+03 0.  0.
<mgrwt>
<rscale>  0 0.46219742E+03</rscale>
<asrwt>0</asrwt>
<pdfrwt beam="1">  1        2 0.26193631E-01 0.46219742E+03</pdfrwt>
<pdfrwt beam="2">  1       -2 0.41610531E-01 0.46219742E+03</pdfrwt>
<totfact> 0.11360748E+03</totfact>
</mgrwt>
</event>
<event>
 4    1  0.5069019E-005  0.5730990E+03  0.7818608E-02  0.9962844E-01
          2   -1    0    0  501    0  0.00000000000E+00  0.00000000000E+00  0.51669513169E+03  0.51669513169E+03  0.25500000000E-02 0.  1.
         -2   -1    0    0    0  501 -0.00000000000E+00 -0.00000000000E+00 -0.15891499528E+03  0.15891499530E+03  0.25500000000E-02 0. -1.
    5000001    1    1    2    0    0 -0.58215903646E+02 -0.18664117553E+03  0.25606416688E+03  0.37867384040E+03  0.19900000000E+03 0.  0.
   -5000001    1    1    2    0    0  0.58215903646E+02  0.18664117553E+03  0.10171596952E+03  0.29693628659E+03  0.19900000000E+03 0.  0.
<mgrwt>
<rscale>  0 0.57309896E+03</rscale>
<asrwt>0</asrwt>
<pdfrwt beam="1">  1        2 0.73813590E-01 0.57309896E+03</pdfrwt>
<pdfrwt beam="2">  1       -2 0.22702142E-01 0.57309896E+03</pdfrwt>
<totfact> 0.11034010E+03</totfact>
</mgrwt>
</event>
<event>
 4    1  0.5069019E-005  0.6929679E+03  0.7818608E-02  0.9729334E-01
          2   -1    0    0  501    0  0.00000000000E+00  0.00000000000E+00  0.49911417095E+03  0.49911417096E+03  0.25500000000E-02 0.  1.
         -2   -1    0    0    0  501 -0.00000000000E+00 -0.00000000000E+00 -0.24052838179E+03  0.24052838180E+03  0.25500000000E-02 0. -1.
    5000001    1    1    2    0    0  0.64574084504E+02  0.26110227894E+03  0.22538986689E+03  0.40341765523E+03  0.19900000000E+03 0.  0.
   -5000001    1    1    2    0    0 -0.64574084504E+02 -0.26110227894E+03  0.33195922274E+02  0.33622489752E+03  0.19900000000E+03 0.  0.
<mgrwt>
<rscale>  0 0.69296789E+03</rscale>
<asrwt>0</asrwt>
<pdfrwt beam="1">  1        2 0.71302024E-01 0.69296789E+03</pdfrwt>
<pdfrwt beam="2">  1       -2 0.34361198E-01 0.69296789E+03</pdfrwt>
<totfact> 0.53674858E+02</totfact>
</mgrwt>
</event>
<event>
 4    1  0.5069019E-005  0.7013514E+03  0.7818608E-02  0.9714924E-01
         -2   -1    0    0    0  501 -0.00000000000E+00  0.00000000000E+00  0.10511769073E+03  0.10511769076E+03  0.25500000000E-02 0. -1.
          2   -1    0    0  501    0  0.00000000000E+00 -0.00000000000E+00 -0.11698644812E+04  0.11698644812E+04  0.25500000000E-02 0.  1.
    5000001    1    1    2    0    0  0.24973804647E+02  0.27384592742E+03 -0.69248399479E+03  0.77120060032E+03  0.19900000000E+03 0.  0.
   -5000001    1    1    2    0    0 -0.24973804647E+02 -0.27384592742E+03 -0.37226279567E+03  0.50378157164E+03  0.19900000000E+03 0.  0.
<mgrwt>
<rscale>  0 0.70135142E+03</rscale>
<asrwt>0</asrwt>
<pdfrwt beam="1">  1        2 0.16712349E+00 0.70135142E+03</pdfrwt>
<pdfrwt beam="2">  1       -2 0.15016814E-01 0.70135142E+03</pdfrwt>
<totfact> 0.78244738E+02</totfact>
</mgrwt>
</event>
<event>
 4    1  0.5069019E-005  0.5231469E+03  0.7818608E-02  0.1007908E+00
          2   -1    0    0  501    0  0.00000000000E+00  0.00000000000E+00  0.20805323593E+04  0.20805323593E+04  0.25500000000E-02 0.  1.
         -2   -1    0    0    0  501 -0.00000000000E+00 -0.00000000000E+00 -0.32886135534E+02  0.32886135633E+02  0.25500000000E-02 0. -1.
    5000001    1    1    2    0    0  0.11851269055E+03  0.10230628830E+03  0.75867327167E+03  0.79981120747E+03  0.19900000000E+03 0.  0.
   -5000001    1    1    2    0    0 -0.11851269055E+03 -0.10230628830E+03  0.12889729521E+04  0.13136072874E+04  0.19900000000E+03 0.  0.
<mgrwt>
<rscale>  0 0.52314690E+03</rscale>
<asrwt>0</asrwt>
<pdfrwt beam="1">  1        2 0.29721890E+00 0.52314690E+03</pdfrwt>
<pdfrwt beam="2">  1       -2 0.46980195E-02 0.52314690E+03</pdfrwt>
<totfact> 0.17117923E+03</totfact>
</mgrwt>
</event>
<event>
 4    1  0.5069019E-005  0.6677718E+03  0.7818608E-02  0.9773991E-01
          2   -1    0    0  501    0  0.00000000000E+00  0.00000000000E+00  0.14922380402E+04  0.14922380402E+04  0.25500000000E-02 0.  1.
         -2   -1    0    0    0  501 -0.00000000000E+00 -0.00000000000E+00 -0.74706449220E+02  0.74706449263E+02  0.25500000000E-02 0. -1.
    5000001    1    1    2    0    0  0.13459035414E+03  0.22272321172E+03  0.86008699157E+03  0.92036450688E+03  0.19900000000E+03 0.  0.
   -5000001    1    1    2    0    0 -0.13459035414E+03 -0.22272321172E+03  0.55744459943E+03  0.64657998260E+03  0.19900000000E+03 0.  0.
<mgrwt>
<rscale>  0 0.66777183E+03</rscale>
<asrwt>0</asrwt>
<pdfrwt beam="1">  1        2 0.21317686E+00 0.66777183E+03</pdfrwt>
<pdfrwt beam="2">  1       -2 0.10672350E-01 0.66777183E+03</pdfrwt>
<totfact> 0.92246880E+02</totfact>
</mgrwt>
</event>
<event>
 4    1  0.5069019E-005  0.5987451E+03  0.7818608E-02  0.9908013E-01
         -2   -1    0    0    0  501 -0.00000000000E+00  0.00000000000E+00  0.20383096116E+03  0.20383096117E+03  0.25500000000E-02 0. -1.
          2   -1    0    0  501    0  0.00000000000E+00 -0.00000000000E+00 -0.43969730293E+03  0.43969730293E+03  0.25500000000E-02 0.  1.
    5000001    1    1    2    0    0  0.30468979807E+02  0.21619148679E+03 -0.17010011931E+03  0.34088439137E+03  0.19900000000E+03 0.  0.
   -5000001    1    1    2    0    0 -0.30468979807E+02 -0.21619148679E+03 -0.65766222463E+02  0.30264387274E+03  0.19900000000E+03 0.  0.
<mgrwt>
<rscale>  0 0.59874510E+03</rscale>
<asrwt>0</asrwt>
<pdfrwt beam="1">  1        2 0.62813900E-01 0.59874510E+03</pdfrwt>
<pdfrwt beam="2">  1       -2 0.29118709E-01 0.59874510E+03</pdfrwt>
<totfact> 0.84516300E+02</totfact>
</mgrwt>
</event>
<event>
 4    1  0.5069019E-005  0.6060410E+03  0.7818608E-02  0.9892952E-01
          2   -1    0    0  501    0  0.00000000000E+00  0.00000000000E+00  0.11698415732E+04  0.11698415732E+04  0.25500000000E-02 0.  1.
         -2   -1    0    0    0  501 -0.00000000000E+00 -0.00000000000E+00 -0.78490479938E+02  0.78490479980E+02  0.25500000000E-02 0. -1.
    5000001    1    1    2    0    0 -0.15972409354E+03  0.15986103041E+03  0.61562107998E+03  0.68531572959E+03  0.19900000000E+03 0.  0.
   -5000001    1    1    2    0    0  0.15972409354E+03 -0.15986103041E+03  0.47573001326E+03  0.56301632358E+03  0.19900000000E+03 0.  0.
<mgrwt>
<rscale>  0 0.60604101E+03</rscale>
<asrwt>0</asrwt>
<pdfrwt beam="1">  1        2 0.16712022E+00 0.60604101E+03</pdfrwt>
<pdfrwt beam="2">  1       -2 0.11212926E-01 0.60604101E+03</pdfrwt>
<totfact> 0.12752819E+03</totfact>
</mgrwt>
</event>
<event>
 4    1  0.5069019E-005  0.8943833E+03  0.7818608E-02  0.9432630E-01
         -2   -1    0    0    0  501 -0.00000000000E+00  0.00000000000E+00  0.39309040460E+03  0.39309040461E+03  0.25500000000E-02 0. -1.
          2   -1    0    0  501    0  0.00000000000E+00 -0.00000000000E+00 -0.50873886919E+03  0.50873886919E+03  0.25500000000E-02 0.  1.
    5000001    1    1    2    0    0  0.77636237480E+02 -0.37645073938E+03  0.55525267837E+02  0.43637896365E+03  0.19900000000E+03 0.  0.
   -5000001    1    1    2    0    0 -0.77636237480E+02  0.37645073938E+03 -0.17117373243E+03  0.46545031015E+03  0.19900000000E+03 0.  0.
<mgrwt>
<rscale>  0 0.89438329E+03</rscale>
<asrwt>0</asrwt>
<pdfrwt beam="1">  1        2 0.72676980E-01 0.89438329E+03</pdfrwt>
<pdfrwt beam="2">  1       -2 0.56155773E-01 0.89438329E+03</pdfrwt>
<totfact> 0.19663282E+02</totfact>
</mgrwt>
</event>
<event>
 4    1  0.5069019E-005  0.4629187E+03  0.7818608E-02  0.1023938E+00
          2   -1    0    0  501    0  0.00000000000E+00  0.00000000000E+00  0.13026167745E+04  0.13026167745E+04  0.25500000000E-02 0.  1.
         -2   -1    0    0    0  501 -0.00000000000E+00 -0.00000000000E+00 -0.41127553890E+02  0.41127553969E+02  0.25500000000E-02 0. -1.
    5000001    1    1    2    0    0  0.93141093842E+02 -0.71393586156E+02  0.67180967058E+03  0.71042349411E+03  0.19900000000E+03 0.  0.
   -5000001    1    1    2    0    0 -0.93141093842E+02  0.71393586156E+02  0.58967955005E+03  0.63332083437E+03  0.19900000000E+03 0.  0.
<mgrwt>
<rscale>  0 0.46291875E+03</rscale>
<asrwt>0</asrwt>
<pdfrwt beam="1">  1        2 0.18608813E+00 0.46291875E+03</pdfrwt>
<pdfrwt beam="2">  1       -2 0.58753644E-02 0.46291875E+03</pdfrwt>
<totfact> 0.30227315E+03</totfact>
</mgrwt>
</event>
<event>
 4    1  0.5069019E-005  0.4917474E+03  0.7818608E-02  0.1015956E+00
          2   -1    0    0  501    0  0.00000000000E+00  0.00000000000E+00  0.44567346444E+04  0.44567346444E+04  0.25500000000E-02 0.  1.
         -2   -1    0    0    0  501 -0.00000000000E+00 -0.00000000000E+00 -0.13564612471E+02  0.13564612711E+02  0.25500000000E-02 0. -1.
    5000001    1    1    2    0    0 -0.10760820646E+03 -0.90738197294E+02  0.19284301849E+04  0.19437738872E+04  0.19900000000E+03 0.  0.
   -5000001    1    1    2    0    0  0.10760820646E+03  0.90738197294E+02  0.25147398471E+04  0.25265253699E+04  0.19900000000E+03 0.  0.
<mgrwt>
<rscale>  0 0.49174741E+03</rscale>
<asrwt>0</asrwt>
<pdfrwt beam="1">  1        2 0.63667610E+00 0.49174741E+03</pdfrwt>
<pdfrwt beam="2">  1       -2 0.19378026E-02 0.49174741E+03</pdfrwt>
<totfact> 0.26671035E+02</totfact>
</mgrwt>
</event>
<event>
 4    1  0.5069019E-005  0.4905168E+03  0.7818608E-02  0.1016284E+00
         -2   -1    0    0    0  501 -0.00000000000E+00  0.00000000000E+00  0.18455610749E+04  0.18455610749E+04  0.25500000000E-02 0. -1.
          2   -1    0    0  501    0  0.00000000000E+00 -0.00000000000E+00 -0.32592629569E+02  0.32592629669E+02  0.25500000000E-02 0.  1.
    5000001    1    1    2    0    0  0.11310349980E+03  0.73829405354E+02  0.72255589414E+03  0.76153214175E+03  0.19900000000E+03 0.  0.
   -5000001    1    1    2    0    0 -0.11310349980E+03 -0.73829405354E+02  0.10904125512E+04  0.11166215628E+04  0.19900000000E+03 0.  0.
<mgrwt>
<rscale>  0 0.49051682E+03</rscale>
<asrwt>0</asrwt>
<pdfrwt beam="1">  1        2 0.46560898E-02 0.49051682E+03</pdfrwt>
<pdfrwt beam="2">  1       -2 0.26365159E+00 0.49051682E+03</pdfrwt>
<totfact> 0.10143920E+02</totfact>
</mgrwt>
</event>
<event>
 4    1  0.5069019E-005  0.1720513E+04  0.7818608E-02  0.8749751E-01
         -2   -1    0    0    0  501 -0.00000000000E+00  0.00000000000E+00  0.20009234683E+03  0.20009234684E+03  0.25500000000E-02 0. -1.
          2   -1    0    0  501    0  0.00000000000E+00 -0.00000000000E+00 -0.36984981687E+04  0.36984981687E+04  0.25500000000E-02 0.  1.
    5000001    1    1    2    0    0 -0.75721011797E+03  0.14268972191E+03 -0.24894175226E+04  0.26135279071E+04  0.19900000000E+03 0.  0.
   -5000001    1    1    2    0    0  0.75721011797E+03 -0.14268972191E+03 -0.10089882993E+04  0.12850626084E+04  0.19900000000E+03 0.  0.
<mgrwt>
<rscale>  0 0.17205129E+04</rscale>
<asrwt>0</asrwt>
<pdfrwt beam="1">  1        2 0.52835684E+00 0.17205129E+04</pdfrwt>
<pdfrwt beam="2">  1       -2 0.28584623E-01 0.17205129E+04</pdfrwt>
<totfact> 0.97279485E+00</totfact>
</mgrwt>
</event>
<event>
 4    1  0.5069019E-005  0.5924908E+03  0.7818608E-02  0.9921109E-01
         -2   -1    0    0    0  501 -0.00000000000E+00  0.00000000000E+00  0.60392771364E+03  0.60392771365E+03  0.25500000000E-02 0. -1.
          2   -1    0    0  501    0  0.00000000000E+00 -0.00000000000E+00 -0.14531761229E+03  0.14531761231E+03  0.25500000000E-02 0.  1.
    5000001    1    1    2    0    0  0.16188545327E+03 -0.63281827047E+02  0.59886610619E+02  0.27092230574E+03  0.19900000000E+03 0.  0.
   -5000001    1    1    2    0    0 -0.16188545327E+03  0.63281827047E+02  0.39872349073E+03  0.47832302022E+03  0.19900000000E+03 0.  0.
<mgrwt>
<rscale>  0 0.59249079E+03</rscale>
<asrwt>0</asrwt>
<pdfrwt beam="1">  1        2 0.20759659E-01 0.59249079E+03</pdfrwt>
<pdfrwt beam="2">  1       -2 0.86275387E-01 0.59249079E+03</pdfrwt>
<totfact> 0.32012130E+02</totfact>
</mgrwt>
</event>
<event>
 4    1  0.5069019E-005  0.4568559E+03  0.7818608E-02  0.1025697E+00
          2   -1    0    0  501    0  0.00000000000E+00  0.00000000000E+00  0.64392125278E+03  0.64392125278E+03  0.25500000000E-02 0.  1.
         -2   -1    0    0    0  501 -0.00000000000E+00 -0.00000000000E+00 -0.81033718809E+02  0.81033718850E+02  0.25500000000E-02 0. -1.
    5000001    1    1    2    0    0 -0.14452896354E+02 -0.10089839133E+03  0.35568597840E+03  0.42012246645E+03  0.19900000000E+03 0.  0.
   -5000001    1    1    2    0    0  0.14452896354E+02  0.10089839133E+03  0.20720155557E+03  0.30483250518E+03  0.19900000000E+03 0.  0.
<mgrwt>
<rscale>  0 0.45685592E+03</rscale>
<asrwt>0</asrwt>
<pdfrwt beam="1">  1        2 0.91988756E-01 0.45685592E+03</pdfrwt>
<pdfrwt beam="2">  1       -2 0.11576245E-01 0.45685592E+03</pdfrwt>
<totfact> 0.26739161E+03</totfact>
</mgrwt>
</event>
<event>
 4    1  0.5069019E-005  0.6950086E+03  0.7818608E-02  0.9725806E-01
          2   -1    0    0  501    0  0.00000000000E+00  0.00000000000E+00  0.32696446132E+04  0.32696446132E+04  0.25500000000E-02 0.  1.
         -2   -1    0    0    0  501 -0.00000000000E+00 -0.00000000000E+00 -0.36933444805E+02  0.36933444893E+02  0.25500000000E-02 0. -1.
    5000001    1    1    2    0    0 -0.28143778967E+03 -0.43975368958E+02  0.15966379134E+04  0.16340118388E+04  0.19900000000E+03 0.  0.
   -5000001    1    1    2    0    0  0.28143778967E+03  0.43975368958E+02  0.16360732549E+04  0.16725662193E+04  0.19900000000E+03 0.  0.
<mgrwt>
<rscale>  0 0.69500860E+03</rscale>
<asrwt>0</asrwt>
<pdfrwt beam="1">  1        2 0.46709218E+00 0.69500860E+03</pdfrwt>
<pdfrwt beam="2">  1       -2 0.52762053E-02 0.69500860E+03</pdfrwt>
<totfact> 0.33358141E+02</totfact>
</mgrwt>
</event>
<event>
 4    1  0.5069019E-005  0.5191390E+03  0.7818608E-02  0.1008901E+00
          2   -1    0    0  501    0  0.00000000000E+00  0.00000000000E+00  0.17312865989E+04  0.17312865989E+04  0.25500000000E-02 0.  1.
         -2   -1    0    0    0  501 -0.00000000000E+00 -0.00000000000E+00 -0.38916907686E+02  0.38916907769E+02  0.25500000000E-02 0. -1.
    5000001    1    1    2    0    0 -0.16071710088E+03  0.34891835489E+02  0.75418784648E+03  0.79714975662E+03  0.19900000000E+03 0.  0.
   -5000001    1    1    2    0    0  0.16071710088E+03 -0.34891835489E+02  0.93818184470E+03  0.97305375001E+03  0.19900000000E+03 0.  0.
<mgrwt>
<rscale>  0 0.51913898E+03</rscale>
<asrwt>0</asrwt>
<pdfrwt beam="1">  1        2 0.24732666E+00 0.51913898E+03</pdfrwt>
<pdfrwt beam="2">  1       -2 0.55595581E-02 0.51913898E+03</pdfrwt>
<totfact> 0.19737184E+03</totfact>
</mgrwt>
</event>
<event>
 4    1  0.5069019E-005  0.6738014E+03  0.7818608E-02  0.9763115E-01
         -2   -1    0    0    0  501 -0.00000000000E+00  0.00000000000E+00  0.63797894655E+02  0.63797894706E+02  0.25500000000E-02 0. -1.
          2   -1    0    0  501    0  0.00000000000E+00 -0.00000000000E+00 -0.17790879808E+04  0.17790879808E+04  0.25500000000E-02 0.  1.
    5000001    1    1    2    0    0 -0.19639254875E+03 -0.17626307107E+03 -0.10362081926E+04  0.10876429202E+04  0.19900000000E+03 0.  0.
   -5000001    1    1    2    0    0  0.19639254875E+03  0.17626307107E+03 -0.67908189360E+03  0.75524295537E+03  0.19900000000E+03 0.  0.
<mgrwt>
<rscale>  0 0.67380136E+03</rscale>
<asrwt>0</asrwt>
<pdfrwt beam="1">  1        2 0.25415539E+00 0.67380136E+03</pdfrwt>
<pdfrwt beam="2">  1       -2 0.91139861E-02 0.67380136E+03</pdfrwt>
<totfact> 0.84820442E+02</totfact>
</mgrwt>
</event>
<event>
 4    1  0.5069019E-005  0.8375256E+03  0.7818608E-02  0.9507234E-01
         -2   -1    0    0    0  501 -0.00000000000E+00  0.00000000000E+00  0.56522119381E+02  0.56522119439E+02  0.25500000000E-02 0. -1.
          2   -1    0    0  501    0  0.00000000000E+00 -0.00000000000E+00 -0.31025427860E+04  0.31025427860E+04  0.25500000000E-02 0.  1.
    5000001    1    1    2    0    0 -0.24477131044E+03 -0.26512700427E+03 -0.12418588167E+04  0.13084416852E+04  0.19900000000E+03 0.  0.
   -5000001    1    1    2    0    0  0.24477131044E+03  0.26512700427E+03 -0.18041618499E+04  0.18506232203E+04  0.19900000000E+03 0.  0.
<mgrwt>
<rscale>  0 0.83752563E+03</rscale>
<asrwt>0</asrwt>
<pdfrwt beam="1">  1        2 0.44322029E+00 0.83752563E+03</pdfrwt>
<pdfrwt beam="2">  1       -2 0.80745904E-02 0.83752563E+03</pdfrwt>
<totfact> 0.20839749E+02</totfact>
</mgrwt>
</event>
<event>
 4    1  0.5069019E-005  0.8918355E+03  0.7818608E-02  0.9435845E-01
         -2   -1    0    0    0  501 -0.00000000000E+00  0.00000000000E+00  0.21741081437E+03  0.21741081439E+03  0.25500000000E-02 0. -1.
          2   -1    0    0  501    0  0.00000000000E+00 -0.00000000000E+00 -0.91459411550E+03  0.91459411550E+03  0.25500000000E-02 0.  1.
    5000001    1    1    2    0    0 -0.15367379036E+03 -0.33433294567E+03 -0.15257860795E+03  0.44528124147E+03  0.19900000000E+03 0.  0.
   -5000001    1    1    2    0    0  0.15367379036E+03  0.33433294567E+03 -0.54460469318E+03  0.68672368842E+03  0.19900000000E+03 0.  0.
<mgrwt>
<rscale>  0 0.89183553E+03</rscale>
<asrwt>0</asrwt>
<pdfrwt beam="1">  1        2 0.13065630E+00 0.89183553E+03</pdfrwt>
<pdfrwt beam="2">  1       -2 0.31058688E-01 0.89183553E+03</pdfrwt>
<totfact> 0.30570115E+02</totfact>
</mgrwt>
</event>
<event>
 4    1  0.5069019E-005  0.6227786E+03  0.7818608E-02  0.9859243E-01
          2   -1    0    0  501    0  0.00000000000E+00  0.00000000000E+00  0.74549698562E+03  0.74549698563E+03  0.25500000000E-02 0.  1.
         -2   -1    0    0    0  501 -0.00000000000E+00 -0.00000000000E+00 -0.13006529921E+03  0.13006529923E+03  0.25500000000E-02 0. -1.
    5000001    1    1    2    0    0 -0.17879584748E+03 -0.14102706323E+02  0.53087484851E+03  0.59463934127E+03  0.19900000000E+03 0.  0.
   -5000001    1    1    2    0    0  0.17879584748E+03  0.14102706323E+02  0.84556837903E+02  0.28092294359E+03  0.19900000000E+03 0.  0.
<mgrwt>
<rscale>  0 0.62277858E+03</rscale>
<asrwt>0</asrwt>
<pdfrwt beam="1">  1        2 0.10649957E+00 0.62277858E+03</pdfrwt>
<pdfrwt beam="2">  1       -2 0.18580756E-01 0.62277858E+03</pdfrwt>
<totfact> 0.10120790E+03</totfact>
</mgrwt>
</event>
<event>
 4    1  0.5069019E-005  0.6675776E+03  0.7818608E-02  0.9774344E-01
          2   -1    0    0  501    0  0.00000000000E+00  0.00000000000E+00  0.16516222133E+04  0.16516222133E+04  0.25500000000E-02 0.  1.
         -2   -1    0    0    0  501 -0.00000000000E+00 -0.00000000000E+00 -0.67457894048E+02  0.67457894097E+02  0.25500000000E-02 0. -1.
    5000001    1    1    2    0    0 -0.22379786629E+03  0.74715053830E+02  0.46487061152E+03  0.55800852115E+03  0.19900000000E+03 0.  0.
   -5000001    1    1    2    0    0  0.22379786629E+03 -0.74715053830E+02  0.11192937078E+04  0.11610715863E+04  0.19900000000E+03 0.  0.
<mgrwt>
<rscale>  0 0.66757758E+03</rscale>
<asrwt>0</asrwt>
<pdfrwt beam="1">  1        2 0.23594602E+00 0.66757758E+03</pdfrwt>
<pdfrwt beam="2">  1       -2 0.96368424E-02 0.66757758E+03</pdfrwt>
<totfact> 0.90051635E+02</totfact>
</mgrwt>
</event>
<event>
 4    1  0.5069019E-005  0.4872397E+03  0.7818608E-02  0.1017164E+00
         -2   -1    0    0    0  501 -0.00000000000E+00  0.00000000000E+00  0.21836104111E+03  0.21836104113E+03  0.25500000000E-02 0. -1.
          2   -1    0    0  501    0  0.00000000000E+00 -0.00000000000E+00 -0.27180047841E+03  0.27180047842E+03  0.25500000000E-02 0.  1.
    5000001    1    1    2    0    0 -0.13117315087E+03  0.12304672472E+02 -0.75919382696E+02  0.25044471075E+03  0.19900000000E+03 0.  0.
   -5000001    1    1    2    0    0  0.13117315087E+03 -0.12304672472E+02  0.22479945401E+02  0.23971680880E+03  0.19900000000E+03 0.  0.
<mgrwt>
<rscale>  0 0.48723972E+03</rscale>
<asrwt>0</asrwt>
<pdfrwt beam="1">  1        2 0.38828640E-01 0.48723972E+03</pdfrwt>
<pdfrwt beam="2">  1       -2 0.31194434E-01 0.48723972E+03</pdfrwt>
<totfact> 0.12664863E+03</totfact>
</mgrwt>
</event>
<event>
 4    1  0.5069019E-005  0.4879393E+03  0.7818608E-02  0.1016976E+00
         -2   -1    0    0    0  501 -0.00000000000E+00  0.00000000000E+00  0.24747688613E+02  0.24747688744E+02  0.25500000000E-02 0. -1.
          2   -1    0    0  501    0  0.00000000000E+00 -0.00000000000E+00 -0.24051216340E+04  0.24051216340E+04  0.25500000000E-02 0.  1.
    5000001    1    1    2    0    0 -0.63402705073E+02 -0.12385144376E+03 -0.10722243837E+04  0.10993749188E+04  0.19900000000E+03 0.  0.
   -5000001    1    1    2    0    0  0.63402705073E+02  0.12385144376E+03 -0.13081495617E+04  0.13304944039E+04  0.19900000000E+03 0.  0.
<mgrwt>
<rscale>  0 0.48793935E+03</rscale>
<asrwt>0</asrwt>
<pdfrwt beam="1">  1        2 0.34358866E+00 0.48793935E+03</pdfrwt>
<pdfrwt beam="2">  1       -2 0.35353856E-02 0.48793935E+03</pdfrwt>
<totfact> 0.18213545E+03</totfact>
</mgrwt>
</event>
<event>
 4    1  0.5069019E-005  0.1044917E+04  0.7818608E-02  0.9260607E-01
          2   -1    0    0  501    0  0.00000000000E+00  0.00000000000E+00  0.11505842892E+04  0.11505842892E+04  0.25500000000E-02 0.  1.
         -2   -1    0    0    0  501 -0.00000000000E+00 -0.00000000000E+00 -0.23723859629E+03  0.23723859631E+03  0.25500000000E-02 0. -1.
    5000001    1    1    2    0    0 -0.45619609423E+03  0.11178588150E+03  0.30669573159E+03  0.59520940136E+03  0.19900000000E+03 0.  0.
   -5000001    1    1    2    0    0  0.45619609423E+03 -0.11178588150E+03  0.60664996133E+03  0.79261348416E+03  0.19900000000E+03 0.  0.
<mgrwt>
<rscale>  0 0.10449172E+04</rscale>
<asrwt>0</asrwt>
<pdfrwt beam="1">  1        2 0.16436919E+00 0.10449172E+04</pdfrwt>
<pdfrwt beam="2">  1       -2 0.33891228E-01 0.10449172E+04</pdfrwt>
<totfact> 0.18475606E+02</totfact>
</mgrwt>
</event>
<event>
 4    1  0.5069019E-005  0.4376176E+03  0.7818608E-02  0.1031480E+00
         -2   -1    0    0    0  501 -0.00000000000E+00  0.00000000000E+00  0.65258716937E+02  0.65258716986E+02  0.25500000000E-02 0. -1.
          2   -1    0    0  501    0  0.00000000000E+00 -0.00000000000E+00 -0.73365370854E+03  0.73365370855E+03  0.25500000000E-02 0.  1.
    5000001    1    1    2    0    0  0.40728166402E+01  0.85944648839E+02 -0.38814464321E+03  0.44459007474E+03  0.19900000000E+03 0.  0.
   -5000001    1    1    2    0    0 -0.40728166402E+01 -0.85944648839E+02 -0.28025034839E+03  0.35432235079E+03  0.19900000000E+03 0.  0.
<mgrwt>
<rscale>  0 0.43761764E+03</rscale>
<asrwt>0</asrwt>
<pdfrwt beam="1">  1        2 0.10480767E+00 0.43761764E+03</pdfrwt>
<pdfrwt beam="2">  1       -2 0.93226742E-02 0.43761764E+03</pdfrwt>
<totfact> 0.32399810E+03</totfact>
</mgrwt>
</event>
<event>
 4    1  0.5069019E-005  0.9576171E+03  0.7818608E-02  0.9356291E-01
          2   -1    0    0  501    0  0.00000000000E+00  0.00000000000E+00  0.88958336017E+03  0.88958336017E+03  0.25500000000E-02 0.  1.
         -2   -1    0    0    0  501 -0.00000000000E+00 -0.00000000000E+00 -0.25771349853E+03  0.25771349854E+03  0.25500000000E-02 0. -1.
    5000001    1    1    2    0    0  0.23052791585E+03 -0.21258187109E+03  0.67798840586E+03  0.77304815528E+03  0.19900000000E+03 0.  0.
   -5000001    1    1    2    0    0 -0.23052791585E+03  0.21258187109E+03 -0.46118544216E+02  0.37424870343E+03  0.19900000000E+03 0.  0.
<mgrwt>
<rscale>  0 0.95761713E+03</rscale>
<asrwt>0</asrwt>
<pdfrwt beam="1">  1        2 0.12708334E+00 0.95761713E+03</pdfrwt>
<pdfrwt beam="2">  1       -2 0.36816214E-01 0.95761713E+03</pdfrwt>
<totfact> 0.22921831E+02</totfact>
</mgrwt>
</event>
<event>
 4    1  0.5069019E-005  0.5371080E+03  0.7818608E-02  0.1004523E+00
         -2   -1    0    0    0  501 -0.00000000000E+00  0.00000000000E+00  0.57710969272E+02  0.57710969329E+02  0.25500000000E-02 0. -1.
          2   -1    0    0  501    0  0.00000000000E+00 -0.00000000000E+00 -0.12496974282E+04  0.12496974282E+04  0.25500000000E-02 0.  1.
    5000001    1    1    2    0    0 -0.14285173958E+03 -0.56584711821E+02 -0.36620256158E+03  0.44420014095E+03  0.19900000000E+03 0.  0.
   -5000001    1    1    2    0    0  0.14285173958E+03  0.56584711821E+02 -0.82578389738E+03  0.86320825662E+03  0.19900000000E+03 0.  0.
<mgrwt>
<rscale>  0 0.53710800E+03</rscale>
<asrwt>0</asrwt>
<pdfrwt beam="1">  1        2 0.17852819E+00 0.53710800E+03</pdfrwt>
<pdfrwt beam="2">  1       -2 0.82444249E-02 0.53710800E+03</pdfrwt>
<totfact> 0.18938456E+03</totfact>
</mgrwt>
</event>
<event>
 4    1  0.5069019E-005  0.9219861E+03  0.7818608E-02  0.9398508E-01
          2   -1    0    0  501    0  0.00000000000E+00  0.00000000000E+00  0.13647442640E+03  0.13647442642E+03  0.25500000000E-02 0.  1.
         -2   -1    0    0    0  501 -0.00000000000E+00 -0.00000000000E+00 -0.15571751219E+04  0.15571751219E+04  0.25500000000E-02 0. -1.
    5000001    1    1    2    0    0  0.41289604399E+03  0.42551974060E+01 -0.80057343916E+03  0.92250749663E+03  0.19900000000E+03 0.  0.
   -5000001    1    1    2    0    0 -0.41289604399E+03 -0.42551974060E+01 -0.62012725636E+03  0.77114205172E+03  0.19900000000E+03 0.  0.
<mgrwt>
<rscale>  0 0.92198608E+03</rscale>
<asrwt>0</asrwt>
<pdfrwt beam="1">  1        2 0.19496348E-01 0.92198608E+03</pdfrwt>
<pdfrwt beam="2">  1       -2 0.22245358E+00 0.92198608E+03</pdfrwt>
<totfact> 0.28189112E+01</totfact>
</mgrwt>
</event>
<event>
 4    1  0.5069019E-005  0.7413460E+03  0.7818608E-02  0.9649026E-01
          2   -1    0    0  501    0  0.00000000000E+00  0.00000000000E+00  0.26057728018E+03  0.26057728019E+03  0.25500000000E-02 0.  1.
         -2   -1    0    0    0  501 -0.00000000000E+00 -0.00000000000E+00 -0.52728486186E+03  0.52728486187E+03  0.25500000000E-02 0. -1.
    5000001    1    1    2    0    0  0.31791763273E+02 -0.30690829060E+03 -0.18748125210E+03  0.41225433283E+03  0.19900000000E+03 0.  0.
   -5000001    1    1    2    0    0 -0.31791763273E+02  0.30690829060E+03 -0.79226329583E+02  0.37560780922E+03  0.19900000000E+03 0.  0.
<mgrwt>
<rscale>  0 0.74134595E+03</rscale>
<asrwt>0</asrwt>
<pdfrwt beam="1">  1        2 0.37225326E-01 0.74134595E+03</pdfrwt>
<pdfrwt beam="2">  1       -2 0.75326408E-01 0.74134595E+03</pdfrwt>
<totfact> 0.22267029E+02</totfact>
</mgrwt>
</event>
<event>
 4    1  0.5069019E-005  0.9012907E+03  0.7818608E-02  0.9423969E-01
          2   -1    0    0  501    0  0.00000000000E+00  0.00000000000E+00  0.69234688658E+03  0.69234688658E+03  0.25500000000E-02 0.  1.
         -2   -1    0    0    0  501 -0.00000000000E+00 -0.00000000000E+00 -0.29332296806E+03  0.29332296807E+03  0.25500000000E-02 0. -1.
    5000001    1    1    2    0    0  0.35652159893E+03  0.15718739185E+03  0.81397334151E+02  0.44501915989E+03  0.19900000000E+03 0.  0.
   -5000001    1    1    2    0    0 -0.35652159893E+03 -0.15718739185E+03  0.31762658436E+03  0.54065069477E+03  0.19900000000E+03 0.  0.
<mgrwt>
<rscale>  0 0.90129073E+03</rscale>
<asrwt>0</asrwt>
<pdfrwt beam="1">  1        2 0.98906698E-01 0.90129073E+03</pdfrwt>
<pdfrwt beam="2">  1       -2 0.41903281E-01 0.90129073E+03</pdfrwt>
<totfact> 0.24663694E+02</totfact>
</mgrwt>
</event>
<event>
 4    1  0.5069019E-005  0.4885477E+03  0.7818608E-02  0.1016812E+00
          2   -1    0    0  501    0  0.00000000000E+00  0.00000000000E+00  0.59683264483E+03  0.59683264484E+03  0.25500000000E-02 0.  1.
         -2   -1    0    0    0  501 -0.00000000000E+00 -0.00000000000E+00 -0.99977299937E+02  0.99977299970E+02  0.25500000000E-02 0. -1.
    5000001    1    1    2    0    0 -0.12141122732E+03 -0.70951436504E+02  0.22397508584E+03  0.33096923050E+03  0.19900000000E+03 0.  0.
   -5000001    1    1    2    0    0  0.12141122732E+03  0.70951436504E+02  0.27288025905E+03  0.36584071430E+03  0.19900000000E+03 0.  0.
<mgrwt>
<rscale>  0 0.48854771E+03</rscale>
<asrwt>0</asrwt>
<pdfrwt beam="1">  1        2 0.85261806E-01 0.48854771E+03</pdfrwt>
<pdfrwt beam="2">  1       -2 0.14282471E-01 0.48854771E+03</pdfrwt>
<totfact> 0.20689013E+03</totfact>
</mgrwt>
</event>
<event>
 4    1  0.5069019E-005  0.5012677E+03  0.7818608E-02  0.1013449E+00
          2   -1    0    0  501    0  0.00000000000E+00  0.00000000000E+00  0.28392940283E+03  0.28392940284E+03  0.25500000000E-02 0. -1.
         -2   -1    0    0    0  501 -0.00000000000E+00 -0.00000000000E+00 -0.22124278577E+03  0.22124278579E+03  0.25500000000E-02 0.  1.
    5000001    1    1    2    0    0  0.76568286726E+02 -0.12581571044E+03 -0.79996832177E+01  0.24770403803E+03  0.19900000000E+03 0.  0.
   -5000001    1    1    2    0    0 -0.76568286726E+02  0.12581571044E+03  0.70686300276E+02  0.25746815060E+03  0.19900000000E+03 0.  0.
<mgrwt>
<rscale>  0 0.50126772E+03</rscale>
<asrwt>0</asrwt>
<pdfrwt beam="1">  1        2 0.40561343E-01 0.50126772E+03</pdfrwt>
<pdfrwt beam="2">  1       -2 0.31606112E-01 0.50126772E+03</pdfrwt>
<totfact> 0.11782291E+03</totfact>
</mgrwt>
</event>
<event>
 4    1  0.5069019E-005  0.5164190E+03  0.7818608E-02  0.1009580E+00
          2   -1    0    0  501    0  0.00000000000E+00  0.00000000000E+00  0.19611549229E+04  0.19611549229E+04  0.25500000000E-02 0.  1.
         -2   -1    0    0    0  501 -0.00000000000E+00 -0.00000000000E+00 -0.33996365801E+02  0.33996365897E+02  0.25500000000E-02 0. -1.
    5000001    1    1    2    0    0 -0.87647180859E+02 -0.10474675064E+03  0.60912661799E+03  0.65520237089E+03  0.19900000000E+03 0.  0.
   -5000001    1    1    2    0    0  0.87647180859E+02  0.10474675064E+03  0.13180319391E+04  0.13399489179E+04  0.19900000000E+03 0.  0.
<mgrwt>
<rscale>  0 0.51641898E+03</rscale>
<asrwt>0</asrwt>
<pdfrwt beam="1">  1        2 0.28016500E+00 0.51641898E+03</pdfrwt>
<pdfrwt beam="2">  1       -2 0.48566235E-02 0.51641898E+03</pdfrwt>
<totfact> 0.18662926E+03</totfact>
</mgrwt>
</event>
<event>
 4    1  0.5069019E-005  0.1199388E+04  0.7818608E-02  0.9113393E-01
          2   -1    0    0  501    0  0.00000000000E+00  0.00000000000E+00  0.83514404416E+03  0.83514404416E+03  0.25500000000E-02 0.  1.
         -2   -1    0    0    0  501 -0.00000000000E+00 -0.00000000000E+00 -0.43062362183E+03  0.43062362183E+03  0.25500000000E-02 0. -1.
    5000001    1    1    2    0    0 -0.41070665471E+03 -0.33119542167E+03  0.41766792833E+03  0.70172491898E+03  0.19900000000E+03 0.  0.
   -5000001    1    1    2    0    0  0.41070665471E+03  0.33119542167E+03 -0.13147506002E+02  0.56404274702E+03  0.19900000000E+03 0.  0.
<mgrwt>
<rscale>  0 0.11993878E+04</rscale>
<asrwt>0</asrwt>
<pdfrwt beam="1">  1        2 0.11930629E+00 0.11993878E+04</pdfrwt>
<pdfrwt beam="2">  1       -2 0.61517661E-01 0.11993878E+04</pdfrwt>
<totfact> 0.87172711E+01</totfact>
</mgrwt>
</event>
<event>
 4    1  0.5069019E-005  0.6081389E+03  0.7818608E-02  0.9888663E-01
         -2   -1    0    0    0  501 -0.00000000000E+00  0.00000000000E+00  0.51164929705E+02  0.51164929768E+02  0.25500000000E-02 0. -1.
          2   -1    0    0  501    0  0.00000000000E+00 -0.00000000000E+00 -0.18070624778E+04  0.18070624778E+04  0.25500000000E-02 0.  1.
    5000001    1    1    2    0    0  0.17498838065E+03  0.12443160238E+03 -0.11290487329E+04  0.11663859560E+04  0.19900000000E+03 0.  0.
   -5000001    1    1    2    0    0 -0.17498838065E+03 -0.12443160238E+03 -0.62684881520E+03  0.69184145160E+03  0.19900000000E+03 0.  0.
<mgrwt>
<rscale>  0 0.60813888E+03</rscale>
<asrwt>0</asrwt>
<pdfrwt beam="1">  1        2 0.25815174E+00 0.60813888E+03</pdfrwt>
<pdfrwt beam="2">  1       -2 0.73092768E-02 0.60813888E+03</pdfrwt>
<totfact> 0.11720565E+03</totfact>
</mgrwt>
</event>
<event>
 4    1  0.5069019E-005  0.8499874E+03  0.7818608E-02  0.9490354E-01
          2   -1    0    0  501    0  0.00000000000E+00  0.00000000000E+00  0.13798386536E+03  0.13798386539E+03  0.25500000000E-02 0.  1.
         -2   -1    0    0    0  501 -0.00000000000E+00 -0.00000000000E+00 -0.13089910819E+04  0.13089910819E+04  0.25500000000E-02 0. -1.
    5000001    1    1    2    0    0 -0.16791104211E+03  0.21536181359E+03 -0.14669431484E+03  0.36836809148E+03  0.19900000000E+03 0.  0.
   -5000001    1    1    2    0    0  0.16791104211E+03 -0.21536181359E+03 -0.10243129017E+04  0.10786068558E+04  0.19900000000E+03 0.  0.
<mgrwt>
<rscale>  0 0.84998741E+03</rscale>
<asrwt>0</asrwt>
<pdfrwt beam="1">  1        2 0.19711982E-01 0.84998741E+03</pdfrwt>
<pdfrwt beam="2">  1       -2 0.18699872E+00 0.84998741E+03</pdfrwt>
<totfact> 0.47389007E+01</totfact>
</mgrwt>
</event>
<event>
 4    1  0.5069019E-005  0.5167289E+03  0.7818608E-02  0.1009502E+00
          2   -1    0    0  501    0  0.00000000000E+00  0.00000000000E+00  0.11547907415E+04  0.11547907415E+04  0.25500000000E-02 0.  1.
         -2   -1    0    0    0  501 -0.00000000000E+00 -0.00000000000E+00 -0.57804574342E+02  0.57804574398E+02  0.25500000000E-02 0. -1.
    5000001    1    1    2    0    0  0.76543474819E+02 -0.77491885911E+02  0.25834586487E+03  0.34381314957E+03  0.19900000000E+03 0.  0.
   -5000001    1    1    2    0    0 -0.76543474819E+02  0.77491885911E+02  0.83864030228E+03  0.86878216633E+03  0.19900000000E+03 0.  0.
<mgrwt>
<rscale>  0 0.51672889E+03</rscale>
<asrwt>0</asrwt>
<pdfrwt beam="1">  1        2 0.16497009E+00 0.51672889E+03</pdfrwt>
<pdfrwt beam="2">  1       -2 0.82577972E-02 0.51672889E+03</pdfrwt>
<totfact> 0.21343275E+03</totfact>
</mgrwt>
</event>
<event>
 4    1  0.5069019E-005  0.1055016E+04  0.7818608E-02  0.9250181E-01
          2   -1    0    0  501    0  0.00000000000E+00  0.00000000000E+00  0.12961944883E+04  0.12961944883E+04  0.25500000000E-02 0.  1.
         -2   -1    0    0    0  501 -0.00000000000E+00 -0.00000000000E+00 -0.21467805226E+03  0.21467805227E+03  0.25500000000E-02 0. -1.
    5000001    1    1    2    0    0  0.34283438145E+03 -0.29629270723E+03  0.27927523654E+03  0.56826089009E+03  0.19900000000E+03 0.  0.
   -5000001    1    1    2    0    0 -0.34283438145E+03  0.29629270723E+03  0.80224119955E+03  0.94261165053E+03  0.19900000000E+03 0.  0.
<mgrwt>
<rscale>  0 0.10550157E+04</rscale>
<asrwt>0</asrwt>
<pdfrwt beam="1">  1        2 0.18517064E+00 0.10550157E+04</pdfrwt>
<pdfrwt beam="2">  1       -2 0.30668294E-01 0.10550157E+04</pdfrwt>
<totfact> 0.18436541E+02</totfact>
</mgrwt>
</event>
<event>
 4    1  0.5069019E-005  0.5448163E+03  0.7818608E-02  0.1002701E+00
         -2   -1    0    0    0  501 -0.00000000000E+00  0.00000000000E+00  0.41609295437E+02  0.41609295515E+02  0.25500000000E-02 0. -1.
          2   -1    0    0  501    0  0.00000000000E+00 -0.00000000000E+00 -0.17834042796E+04  0.17834042796E+04  0.25500000000E-02 0.  1.
    5000001    1    1    2    0    0  0.77733983340E+02  0.13790900692E+03 -0.11981440413E+04  0.12248312578E+04  0.19900000000E+03 0.  0.
   -5000001    1    1    2    0    0 -0.77733983340E+02 -0.13790900692E+03 -0.54365094286E+03  0.60018231733E+03  0.19900000000E+03 0.  0.
<mgrwt>
<rscale>  0 0.54481628E+03</rscale>
<asrwt>0</asrwt>
<pdfrwt beam="1">  1        2 0.25477199E+00 0.54481628E+03</pdfrwt>
<pdfrwt beam="2">  1       -2 0.59441862E-02 0.54481628E+03</pdfrwt>
<totfact> 0.16724016E+03</totfact>
</mgrwt>
</event>
<event>
 4    1  0.5069019E-005  0.4489503E+03  0.7818608E-02  0.1028036E+00
         -2   -1    0    0    0  501 -0.00000000000E+00  0.00000000000E+00  0.52205025319E+03  0.52205025319E+03  0.25500000000E-02 0. -1.
          2   -1    0    0  501    0  0.00000000000E+00 -0.00000000000E+00 -0.96521554165E+02  0.96521554199E+02  0.25500000000E-02 0.  1.
    5000001    1    1    2    0    0 -0.81785966448E+02 -0.43833642910E+02  0.14846630749E+03  0.26505391342E+03  0.19900000000E+03 0.  0.
   -5000001    1    1    2    0    0  0.81785966448E+02  0.43833642910E+02  0.27706239153E+03  0.35351789397E+03  0.19900000000E+03 0.  0.
<mgrwt>
<rscale>  0 0.44895034E+03</rscale>
<asrwt>0</asrwt>
<pdfrwt beam="1">  1        2 0.13788794E-01 0.44895034E+03</pdfrwt>
<pdfrwt beam="2">  1       -2 0.74578607E-01 0.44895034E+03</pdfrwt>
<totfact> 0.72236729E+02</totfact>
</mgrwt>
</event>
<event>
 4    1  0.5069019E-005  0.6845877E+03  0.7818608E-02  0.9743958E-01
          2   -1    0    0  501    0  0.00000000000E+00  0.00000000000E+00  0.25836367618E+03  0.25836367619E+03  0.25500000000E-02 0. -1.
         -2   -1    0    0    0  501 -0.00000000000E+00 -0.00000000000E+00 -0.45348903798E+03  0.45348903798E+03  0.25500000000E-02 0.  1.
    5000001    1    1    2    0    0 -0.24507561907E+02  0.24760017711E+03  0.32551308272E+02  0.32026091857E+03  0.19900000000E+03 0.  0.
   -5000001    1    1    2    0    0  0.24507561907E+02 -0.24760017711E+03 -0.22767667007E+03  0.39159179561E+03  0.19900000000E+03 0.  0.
<mgrwt>
<rscale>  0 0.68458774E+03</rscale>
<asrwt>0</asrwt>
<pdfrwt beam="1">  1        2 0.36909097E-01 0.68458774E+03</pdfrwt>
<pdfrwt beam="2">  1       -2 0.64784148E-01 0.68458774E+03</pdfrwt>
<totfact> 0.31271703E+02</totfact>
</mgrwt>
</event>
<event>
 4    1  0.5069019E-005  0.4668490E+03  0.7818608E-02  0.1022813E+00
         -2   -1    0    0    0  501 -0.00000000000E+00  0.00000000000E+00  0.12480387218E+03  0.12480387220E+03  0.25500000000E-02 0. -1.
          2   -1    0    0  501    0  0.00000000000E+00 -0.00000000000E+00 -0.43658106145E+03  0.43658106145E+03  0.25500000000E-02 0.  1.
    5000001    1    1    2    0    0  0.10201329973E+03  0.76968985576E+01 -0.75942373173E+02  0.23629261438E+03  0.19900000000E+03 0.  0.
   -5000001    1    1    2    0    0 -0.10201329973E+03 -0.76968985576E+01 -0.23583481610E+03  0.32509231927E+03  0.19900000000E+03 0.  0.
<mgrwt>
<rscale>  0 0.46684904E+03</rscale>
<asrwt>0</asrwt>
<pdfrwt beam="1">  1        2 0.62368722E-01 0.46684904E+03</pdfrwt>
<pdfrwt beam="2">  1       -2 0.17829125E-01 0.46684904E+03</pdfrwt>
<totfact> 0.20288084E+03</totfact>
</mgrwt>
</event>
<event>
 4    1  0.5069019E-005  0.7522464E+03  0.7818608E-02  0.9631833E-01
          2   -1    0    0  501    0  0.00000000000E+00  0.00000000000E+00  0.73150182104E+03  0.73150182105E+03  0.25500000000E-02 0.  1.
         -2   -1    0    0    0  501 -0.00000000000E+00 -0.00000000000E+00 -0.19339483041E+03  0.19339483043E+03  0.25500000000E-02 0. -1.
    5000001    1    1    2    0    0  0.23271153043E+03 -0.88325157850E+01  0.53740013672E+03  0.61857301645E+03  0.19900000000E+03 0.  0.
   -5000001    1    1    2    0    0 -0.23271153043E+03  0.88325157850E+01  0.70685390732E+00  0.30632363502E+03  0.19900000000E+03 0.  0.
<mgrwt>
<rscale>  0 0.75224642E+03</rscale>
<asrwt>0</asrwt>
<pdfrwt beam="1">  1        2 0.10450026E+00 0.75224642E+03</pdfrwt>
<pdfrwt beam="2">  1       -2 0.27627833E-01 0.75224642E+03</pdfrwt>
<totfact> 0.51053769E+02</totfact>
</mgrwt>
</event>
<event>
 4    1  0.5069019E-005  0.9597938E+03  0.7818608E-02  0.9353776E-01
          2   -1    0    0  501    0  0.00000000000E+00  0.00000000000E+00  0.16296207418E+04  0.16296207418E+04  0.25500000000E-02 0.  1.
         -2   -1    0    0    0  501 -0.00000000000E+00 -0.00000000000E+00 -0.14132186006E+03  0.14132186009E+03  0.25500000000E-02 0. -1.
    5000001    1    1    2    0    0  0.39985543153E+02  0.40660561768E+03  0.10286408203E+04  0.11245576505E+04  0.19900000000E+03 0.  0.
   -5000001    1    1    2    0    0 -0.39985543153E+02 -0.40660561768E+03  0.45965806136E+03  0.64638495138E+03  0.19900000000E+03 0.  0.
<mgrwt>
<rscale>  0 0.95979380E+03</rscale>
<asrwt>0</asrwt>
<pdfrwt beam="1">  1        2 0.23280295E+00 0.95979380E+03</pdfrwt>
<pdfrwt beam="2">  1       -2 0.20188839E-01 0.95979380E+03</pdfrwt>
<totfact> 0.26214458E+02</totfact>
</mgrwt>
</event>
<event>
 4    1  0.5069019E-005  0.4381263E+03  0.7818608E-02  0.1031323E+00
         -2   -1    0    0    0  501 -0.00000000000E+00  0.00000000000E+00  0.50143690132E+02  0.50143690197E+02  0.25500000000E-02 0. -1.
          2   -1    0    0  501    0  0.00000000000E+00 -0.00000000000E+00 -0.95702309541E+03  0.95702309541E+03  0.25500000000E-02 0.  1.
    5000001    1    1    2    0    0  0.16279960612E+02 -0.54237368806E+02 -0.28797462860E+03  0.35459429777E+03  0.19900000000E+03 0.  0.
   -5000001    1    1    2    0    0 -0.16279960612E+02  0.54237368806E+02 -0.61890477668E+03  0.65257248784E+03  0.19900000000E+03 0.  0.
<mgrwt>
<rscale>  0 0.43812633E+03</rscale>
<asrwt>0</asrwt>
<pdfrwt beam="1">  1        2 0.13671757E+00 0.43812633E+03</pdfrwt>
<pdfrwt beam="2">  1       -2 0.71633849E-02 0.43812633E+03</pdfrwt>
<totfact> 0.34937528E+03</totfact>
</mgrwt>
</event>
<event>
 4    1  0.5069019E-005  0.5160202E+03  0.7818608E-02  0.1009680E+00
          2   -1    0    0  501    0  0.00000000000E+00  0.00000000000E+00  0.16713460479E+03  0.16713460481E+03  0.25500000000E-02 0.  1.
         -2   -1    0    0    0  501 -0.00000000000E+00 -0.00000000000E+00 -0.39829693434E+03  0.39829693435E+03  0.25500000000E-02 0. -1.
    5000001    1    1    2    0    0 -0.31363515130E+02 -0.15512871565E+03 -0.16358988347E+03  0.30234291537E+03  0.19900000000E+03 0.  0.
   -5000001    1    1    2    0    0  0.31363515130E+02  0.15512871565E+03 -0.67572446078E+02  0.26308862379E+03  0.19900000000E+03 0.  0.
<mgrwt>
<rscale>  0 0.51602016E+03</rscale>
<asrwt>0</asrwt>
<pdfrwt beam="1">  1        2 0.23876372E-01 0.51602016E+03</pdfrwt>
<pdfrwt beam="2">  1       -2 0.56899562E-01 0.51602016E+03</pdfrwt>
<totfact> 0.67336129E+02</totfact>
</mgrwt>
</event>
<event>
 4    1  0.5069019E-005  0.7322172E+03  0.7818608E-02  0.9663669E-01
         -2   -1    0    0    0  501 -0.00000000000E+00  0.00000000000E+00  0.73084929474E+02  0.73084929518E+02  0.25500000000E-02 0. -1.
          2   -1    0    0  501    0  0.00000000000E+00 -0.00000000000E+00 -0.18339690918E+04  0.18339690918E+04  0.25500000000E-02 0.  1.
    5000001    1    1    2    0    0 -0.11916848577E+03 -0.25297201062E+03 -0.12123338706E+04  0.12599803094E+04  0.19900000000E+03 0.  0.
   -5000001    1    1    2    0    0  0.11916848577E+03  0.25297201062E+03 -0.54855029168E+03  0.64707371192E+03  0.19900000000E+03 0.  0.
<mgrwt>
<rscale>  0 0.73221719E+03</rscale>
<asrwt>0</asrwt>
<pdfrwt beam="1">  1        2 0.26199556E+00 0.73221719E+03</pdfrwt>
<pdfrwt beam="2">  1       -2 0.10440705E-01 0.73221719E+03</pdfrwt>
<totfact> 0.63600326E+02</totfact>
</mgrwt>
</event>
<event>
 4    1  0.5069019E-005  0.4096186E+03  0.7818608E-02  0.1040499E+00
          2   -1    0    0  501    0  0.00000000000E+00  0.00000000000E+00  0.99303996596E+03  0.99303996596E+03  0.25500000000E-02 0.  1.
         -2   -1    0    0    0  501 -0.00000000000E+00 -0.00000000000E+00 -0.42240856039E+02  0.42240856116E+02  0.25500000000E-02 0. -1.
    5000001    1    1    2    0    0  0.43269657825E+02 -0.19165130833E+02  0.50145690752E+03  0.54157141323E+03  0.19900000000E+03 0.  0.
   -5000001    1    1    2    0    0 -0.43269657825E+02  0.19165130833E+02  0.44934220240E+03  0.49370940885E+03  0.19900000000E+03 0.  0.
<mgrwt>
<rscale>  0 0.40961864E+03</rscale>
<asrwt>0</asrwt>
<pdfrwt beam="1">  1        2 0.14186285E+00 0.40961864E+03</pdfrwt>
<pdfrwt beam="2">  1       -2 0.60344081E-02 0.40961864E+03</pdfrwt>
<totfact> 0.43386317E+03</totfact>
</mgrwt>
</event>
<event>
 4    1  0.5069019E-005  0.7938018E+03  0.7818608E-02  0.9569032E-01
          2   -1    0    0  501    0  0.00000000000E+00  0.00000000000E+00  0.16770411510E+03  0.16770411512E+03  0.25500000000E-02 0.  1.
         -2   -1    0    0    0  501 -0.00000000000E+00 -0.00000000000E+00 -0.93933482543E+03  0.93933482543E+03  0.25500000000E-02 0. -1.
    5000001    1    1    2    0    0  0.20076882633E+03 -0.25179229389E+03 -0.21950141781E+03  0.43759496490E+03  0.19900000000E+03 0.  0.
   -5000001    1    1    2    0    0 -0.20076882633E+03  0.25179229389E+03 -0.55212929252E+03  0.66944397565E+03  0.19900000000E+03 0.  0.
<mgrwt>
<rscale>  0 0.79380178E+03</rscale>
<asrwt>0</asrwt>
<pdfrwt beam="1">  1        2 0.23957731E-01 0.79380178E+03</pdfrwt>
<pdfrwt beam="2">  1       -2 0.13419069E+00 0.79380178E+03</pdfrwt>
<totfact> 0.92971052E+01</totfact>
</mgrwt>
</event>
<event>
 4    1  0.5069019E-005  0.7488010E+03  0.7818608E-02  0.9637233E-01
         -2   -1    0    0    0  501 -0.00000000000E+00  0.00000000000E+00  0.30375803594E+02  0.30375803701E+02  0.25500000000E-02 0. -1.
          2   -1    0    0  501    0  0.00000000000E+00 -0.00000000000E+00 -0.46147171180E+04  0.46147171180E+04  0.25500000000E-02 0.  1.
    5000001    1    1    2    0    0  0.20733076010E+03  0.23910907309E+03 -0.21657148858E+04  0.21977445619E+04  0.19900000000E+03 0.  0.
   -5000001    1    1    2    0    0 -0.20733076010E+03 -0.23910907309E+03 -0.24186264286E+04  0.24473483598E+04  0.19900000000E+03 0.  0.
<mgrwt>
<rscale>  0 0.74880102E+03</rscale>
<asrwt>0</asrwt>
<pdfrwt beam="1">  1        2 0.65924485E+00 0.74880102E+03</pdfrwt>
<pdfrwt beam="2">  1       -2 0.43394035E-02 0.74880102E+03</pdfrwt>
<totfact> 0.56304466E+01</totfact>
</mgrwt>
</event>
<event>
 4    1  0.5069019E-005  0.6897945E+03  0.7818608E-02  0.9734846E-01
         -2   -1    0    0    0  501 -0.00000000000E+00  0.00000000000E+00  0.13113753983E+03  0.13113753985E+03  0.25500000000E-02 0. -1.
          2   -1    0    0  501    0  0.00000000000E+00 -0.00000000000E+00 -0.90709428610E+03  0.90709428610E+03  0.25500000000E-02 0.  1.
    5000001    1    1    2    0    0 -0.19785125709E+03 -0.19570604728E+03 -0.45370865076E+03  0.56824160060E+03  0.19900000000E+03 0.  0.
   -5000001    1    1    2    0    0  0.19785125709E+03  0.19570604728E+03 -0.32224809551E+03  0.46999022536E+03  0.19900000000E+03 0.  0.
<mgrwt>
<rscale>  0 0.68979450E+03</rscale>
<asrwt>0</asrwt>
<pdfrwt beam="1">  1        2 0.12958489E+00 0.68979450E+03</pdfrwt>
<pdfrwt beam="2">  1       -2 0.18733935E-01 0.68979450E+03</pdfrwt>
<totfact> 0.77255167E+02</totfact>
</mgrwt>
</event>
<event>
 4    1  0.5069019E-005  0.6901980E+03  0.7818608E-02  0.9734143E-01
         -2   -1    0    0    0  501 -0.00000000000E+00  0.00000000000E+00  0.22683965089E+03  0.22683965090E+03  0.25500000000E-02 0. -1.
          2   -1    0    0  501    0  0.00000000000E+00 -0.00000000000E+00 -0.52501105128E+03  0.52501105129E+03  0.25500000000E-02 0.  1.
    5000001    1    1    2    0    0  0.22544419463E+03  0.16627644384E+03 -0.18386546039E+03  0.38971842167E+03  0.19900000000E+03 0.  0.
   -5000001    1    1    2    0    0 -0.22544419463E+03 -0.16627644384E+03 -0.11430594001E+03  0.36213228052E+03  0.19900000000E+03 0.  0.
<mgrwt>
<rscale>  0 0.69019801E+03</rscale>
<asrwt>0</asrwt>
<pdfrwt beam="1">  1        2 0.75001578E-01 0.69019801E+03</pdfrwt>
<pdfrwt beam="2">  1       -2 0.32405665E-01 0.69019801E+03</pdfrwt>
<totfact> 0.56566617E+02</totfact>
</mgrwt>
</event>
<event>
 4    1  0.5069019E-005  0.4661397E+03  0.7818608E-02  0.1023015E+00
         -2   -1    0    0    0  501 -0.00000000000E+00  0.00000000000E+00  0.18061740493E+02  0.18061740673E+02  0.25500000000E-02 0. -1.
          2   -1    0    0  501    0  0.00000000000E+00 -0.00000000000E+00 -0.30075486564E+04  0.30075486564E+04  0.25500000000E-02 0.  1.
    5000001    1    1    2    0    0  0.37305436077E+02  0.11512642264E+03 -0.14386160836E+04  0.14573479422E+04  0.19900000000E+03 0.  0.
   -5000001    1    1    2    0    0 -0.37305436077E+02 -0.11512642264E+03 -0.15508708323E+04  0.15682624548E+04  0.19900000000E+03 0.  0.
<mgrwt>
<rscale>  0 0.46613974E+03</rscale>
<asrwt>0</asrwt>
<pdfrwt beam="1">  1        2 0.42964949E+00 0.46613974E+03</pdfrwt>
<pdfrwt beam="2">  1       -2 0.25802506E-02 0.46613974E+03</pdfrwt>
<totfact> 0.14261993E+03</totfact>
</mgrwt>
</event>
<event>
 4    1  0.5069019E-005  0.5981207E+03  0.7818608E-02  0.9909313E-01
         -2   -1    0    0    0  501 -0.00000000000E+00  0.00000000000E+00  0.35898712080E+02  0.35898712171E+02  0.25500000000E-02 0. -1.
          2   -1    0    0  501    0  0.00000000000E+00 -0.00000000000E+00 -0.24913737027E+04  0.24913737028E+04  0.25500000000E-02 0.  1.
    5000001    1    1    2    0    0  0.98632558114E+02  0.12513102758E+03 -0.56704071174E+03  0.62170919597E+03  0.19900000000E+03 0.  0.
   -5000001    1    1    2    0    0 -0.98632558114E+02 -0.12513102758E+03 -0.18884342789E+04  0.19055632189E+04  0.19900000000E+03 0.  0.
<mgrwt>
<rscale>  0 0.59812075E+03</rscale>
<asrwt>0</asrwt>
<pdfrwt beam="1">  1        2 0.35591042E+00 0.59812075E+03</pdfrwt>
<pdfrwt beam="2">  1       -2 0.51283890E-02 0.59812075E+03</pdfrwt>
<totfact> 0.92252465E+02</totfact>
</mgrwt>
</event>
<event>
 4    1  0.5069019E-005  0.4758393E+03  0.7818608E-02  0.1020285E+00
         -2   -1    0    0    0  501 -0.00000000000E+00  0.00000000000E+00  0.10269481181E+03  0.10269481184E+03  0.25500000000E-02 0. -1.
          2   -1    0    0  501    0  0.00000000000E+00 -0.00000000000E+00 -0.55120372221E+03  0.55120372221E+03  0.25500000000E-02 0.  1.
    5000001    1    1    2    0    0 -0.80080198391E+02 -0.59056369842E+02 -0.34008144261E+03  0.40639498102E+03  0.19900000000E+03 0.  0.
   -5000001    1    1    2    0    0  0.80080198391E+02  0.59056369842E+02 -0.10842746779E+03  0.24750355303E+03  0.19900000000E+03 0.  0.
<mgrwt>
<rscale>  0 0.47583931E+03</rscale>
<asrwt>0</asrwt>
<pdfrwt beam="1">  1        2 0.78743387E-01 0.47583931E+03</pdfrwt>
<pdfrwt beam="2">  1       -2 0.14670688E-01 0.47583931E+03</pdfrwt>
<totfact> 0.21686400E+03</totfact>
</mgrwt>
</event>
<event>
 4    1  0.5069019E-005  0.4774948E+03  0.7818608E-02  0.1019826E+00
          2   -1    0    0  501    0  0.00000000000E+00  0.00000000000E+00  0.45828011839E+03  0.45828011840E+03  0.25500000000E-02 0.  1.
         -2   -1    0    0    0  501 -0.00000000000E+00 -0.00000000000E+00 -0.12437875551E+03  0.12437875553E+03  0.25500000000E-02 0. -1.
    5000001    1    1    2    0    0 -0.11564913116E+03 -0.35260354521E+02  0.23130377300E+03  0.32820793644E+03  0.19900000000E+03 0.  0.
   -5000001    1    1    2    0    0  0.11564913116E+03  0.35260354521E+02  0.10259758988E+03  0.25445093749E+03  0.19900000000E+03 0.  0.
<mgrwt>
<rscale>  0 0.47749476E+03</rscale>
<asrwt>0</asrwt>
<pdfrwt beam="1">  1        2 0.65468589E-01 0.47749476E+03</pdfrwt>
<pdfrwt beam="2">  1       -2 0.17768394E-01 0.47749476E+03</pdfrwt>
<totfact> 0.19337347E+03</totfact>
</mgrwt>
</event>
<event>
 4    1  0.5069019E-005  0.5360301E+03  0.7818608E-02  0.1004780E+00
         -2   -1    0    0    0  501 -0.00000000000E+00  0.00000000000E+00  0.11298350046E+03  0.11298350049E+03  0.25500000000E-02 0. -1.
          2   -1    0    0  501    0  0.00000000000E+00 -0.00000000000E+00 -0.63577485375E+03  0.63577485375E+03  0.25500000000E-02 0.  1.
    5000001    1    1    2    0    0 -0.54742798971E+02 -0.15089599046E+03 -0.37370776504E+03  0.45279671777E+03  0.19900000000E+03 0.  0.
   -5000001    1    1    2    0    0  0.54742798971E+02  0.15089599046E+03 -0.14908358825E+03  0.29596163647E+03  0.19900000000E+03 0.  0.
<mgrwt>
<rscale>  0 0.53603011E+03</rscale>
<asrwt>0</asrwt>
<pdfrwt beam="1">  1        2 0.90824977E-01 0.53603011E+03</pdfrwt>
<pdfrwt beam="2">  1       -2 0.16140501E-01 0.53603011E+03</pdfrwt>
<totfact> 0.15641430E+03</totfact>
</mgrwt>
</event>
<event>
 4    1  0.5069019E-005  0.8888790E+03  0.7818608E-02  0.9439591E-01
         -2   -1    0    0    0  501 -0.00000000000E+00  0.00000000000E+00  0.24153157403E+03  0.24153157405E+03  0.25500000000E-02 0. -1.
          2   -1    0    0  501    0  0.00000000000E+00 -0.00000000000E+00 -0.81780809392E+03  0.81780809393E+03  0.25500000000E-02 0.  1.
    5000001    1    1    2    0    0  0.28755074791E+03  0.23792684160E+03 -0.45080885355E+03  0.61816198283E+03  0.19900000000E+03 0.  0.
   -5000001    1    1    2    0    0 -0.28755074791E+03 -0.23792684160E+03 -0.12546766634E+03  0.44117768515E+03  0.19900000000E+03 0.  0.
<mgrwt>
<rscale>  0 0.88887902E+03</rscale>
<asrwt>0</asrwt>
<pdfrwt beam="1">  1        2 0.11682973E+00 0.88887902E+03</pdfrwt>
<pdfrwt beam="2">  1       -2 0.34504511E-01 0.88887902E+03</pdfrwt>
<totfact> 0.29102472E+02</totfact>
</mgrwt>
</event>
<event>
 4    1  0.5069019E-005  0.5902868E+03  0.7818608E-02  0.9925765E-01
          2   -1    0    0  501    0  0.00000000000E+00  0.00000000000E+00  0.35115082046E+03  0.35115082047E+03  0.25500000000E-02 0. -1.
         -2   -1    0    0    0  501 -0.00000000000E+00 -0.00000000000E+00 -0.24806902026E+03  0.24806902027E+03  0.25500000000E-02 0.  1.
    5000001    1    1    2    0    0 -0.20531727024E+03  0.56902869962E+02  0.98231757139E+02  0.30764199353E+03  0.19900000000E+03 0.  0.
   -5000001    1    1    2    0    0  0.20531727024E+03 -0.56902869962E+02  0.48500430600E+01  0.29157784722E+03  0.19900000000E+03 0.  0.
<mgrwt>
<rscale>  0 0.59028685E+03</rscale>
<asrwt>0</asrwt>
<pdfrwt beam="1">  1        2 0.50164403E-01 0.59028685E+03</pdfrwt>
<pdfrwt beam="2">  1       -2 0.35438431E-01 0.59028685E+03</pdfrwt>
<totfact> 0.75188576E+02</totfact>
</mgrwt>
</event>
<event>
 4    1  0.5069019E-005  0.4557821E+03  0.7818608E-02  0.1026012E+00
          2   -1    0    0  501    0  0.00000000000E+00  0.00000000000E+00  0.66554094178E+03  0.66554094179E+03  0.25500000000E-02 0.  1.
         -2   -1    0    0    0  501 -0.00000000000E+00 -0.00000000000E+00 -0.78033252529E+02  0.78033252571E+02  0.25500000000E-02 0. -1.
    5000001    1    1    2    0    0 -0.10635310007E+03  0.18530542547E+02  0.33626370153E+03  0.40537469071E+03  0.19900000000E+03 0.  0.
   -5000001    1    1    2    0    0  0.10635310007E+03 -0.18530542547E+02  0.25124398772E+03  0.33819950365E+03  0.19900000000E+03 0.  0.
<mgrwt>
<rscale>  0 0.45578207E+03</rscale>
<asrwt>0</asrwt>
<pdfrwt beam="1">  1        2 0.95077274E-01 0.45578207E+03</pdfrwt>
<pdfrwt beam="2">  1       -2 0.11147608E-01 0.45578207E+03</pdfrwt>
<totfact> 0.27336925E+03</totfact>
</mgrwt>
</event>
<event>
 4    1  0.5069019E-005  0.5894859E+03  0.7818608E-02  0.9927463E-01
         -2   -1    0    0    0  501 -0.00000000000E+00  0.00000000000E+00  0.15695605512E+03  0.15695605514E+03  0.25500000000E-02 0. -1.
          2   -1    0    0  501    0  0.00000000000E+00 -0.00000000000E+00 -0.55348867199E+03  0.55348867199E+03  0.25500000000E-02 0.  1.
    5000001    1    1    2    0    0 -0.21521477993E+03 -0.44169002614E+01 -0.23512806334E+03  0.37579664271E+03  0.19900000000E+03 0.  0.
   -5000001    1    1    2    0    0  0.21521477993E+03  0.44169002614E+01 -0.16140455353E+03  0.33464808442E+03  0.19900000000E+03 0.  0.
<mgrwt>
<rscale>  0 0.58948587E+03</rscale>
<asrwt>0</asrwt>
<pdfrwt beam="1">  1        2 0.79069810E-01 0.58948587E+03</pdfrwt>
<pdfrwt beam="2">  1       -2 0.22422294E-01 0.58948587E+03</pdfrwt>
<totfact> 0.10419815E+03</totfact>
</mgrwt>
</event>
<event>
 4    1  0.5069019E-005  0.4407315E+03  0.7818608E-02  0.1030523E+00
         -2   -1    0    0    0  501 -0.00000000000E+00  0.00000000000E+00  0.22574410590E+02  0.22574410734E+02  0.25500000000E-02 0. -1.
          2   -1    0    0  501    0  0.00000000000E+00 -0.00000000000E+00 -0.21511555072E+04  0.21511555072E+04  0.25500000000E-02 0.  1.
    5000001    1    1    2    0    0  0.51715877564E+02 -0.77255400014E+02 -0.97645783550E+03  0.10008565498E+04  0.19900000000E+03 0.  0.
   -5000001    1    1    2    0    0 -0.51715877564E+02  0.77255400014E+02 -0.11521232611E+04  0.11728733681E+04  0.19900000000E+03 0.  0.
<mgrwt>
<rscale>  0 0.44073152E+03</rscale>
<asrwt>0</asrwt>
<pdfrwt beam="1">  1        2 0.30730780E+00 0.44073152E+03</pdfrwt>
<pdfrwt beam="2">  1       -2 0.32249172E-02 0.44073152E+03</pdfrwt>
<totfact> 0.28136043E+03</totfact>
</mgrwt>
</event>
<event>
 4    1  0.5069019E-005  0.6920630E+03  0.7818608E-02  0.9730903E-01
         -2   -1    0    0    0  501 -0.00000000000E+00  0.00000000000E+00  0.31161429057E+03  0.31161429059E+03  0.25500000000E-02 0.  1.
          2   -1    0    0  501    0  0.00000000000E+00 -0.00000000000E+00 -0.38424997160E+03  0.38424997160E+03  0.25500000000E-02 0. -1.
    5000001    1    1    2    0    0  0.12261557816E+03 -0.19902375341E+03  0.12422048891E+03  0.33117482436E+03  0.19900000000E+03 0.  0.
   -5000001    1    1    2    0    0 -0.12261557816E+03  0.19902375341E+03 -0.19685616993E+03  0.36468943783E+03  0.19900000000E+03 0.  0.
<mgrwt>
<rscale>  0 0.69206295E+03</rscale>
<asrwt>0</asrwt>
<pdfrwt beam="1">  1        2 0.54892853E-01 0.69206295E+03</pdfrwt>
<pdfrwt beam="2">  1       -2 0.44516327E-01 0.69206295E+03</pdfrwt>
<totfact> 0.43615665E+02</totfact>
</mgrwt>
</event>
<event>
 4    1  0.5069019E-005  0.8198327E+03  0.7818608E-02  0.9531746E-01
          2   -1    0    0  501    0  0.00000000000E+00  0.00000000000E+00  0.82494688663E+03  0.82494688663E+03  0.25500000000E-02 0.  1.
         -2   -1    0    0    0  501 -0.00000000000E+00 -0.00000000000E+00 -0.20368756925E+03  0.20368756927E+03  0.25500000000E-02 0. -1.
    5000001    1    1    2    0    0 -0.13437903258E+03 -0.25308942843E+03  0.58066014034E+03  0.67740621621E+03  0.19900000000E+03 0.  0.
   -5000001    1    1    2    0    0  0.13437903258E+03  0.25308942843E+03  0.40599177038E+02  0.35122823969E+03  0.19900000000E+03 0.  0.
<mgrwt>
<rscale>  0 0.81983273E+03</rscale>
<asrwt>0</asrwt>
<pdfrwt beam="1">  1        2 0.11784956E+00 0.81983273E+03</pdfrwt>
<pdfrwt beam="2">  1       -2 0.29098224E-01 0.81983273E+03</pdfrwt>
<totfact> 0.39715228E+02</totfact>
</mgrwt>
</event>
<event>
 4    1  0.5069019E-005  0.7161961E+03  0.7818608E-02  0.9689929E-01
          2   -1    0    0  501    0  0.00000000000E+00  0.00000000000E+00  0.85117317797E+03  0.85117317798E+03  0.25500000000E-02 0.  1.
         -2   -1    0    0    0  501 -0.00000000000E+00 -0.00000000000E+00 -0.15065582862E+03  0.15065582865E+03  0.25500000000E-02 0. -1.
    5000001    1    1    2    0    0 -0.24919733446E+03 -0.15240678032E+03  0.43068851116E+03  0.55715413651E+03  0.19900000000E+03 0.  0.
   -5000001    1    1    2    0    0  0.24919733446E+03  0.15240678032E+03  0.26982883819E+03  0.44467487011E+03  0.19900000000E+03 0.  0.
<mgrwt>
<rscale>  0 0.71619606E+03</rscale>
<asrwt>0</asrwt>
<pdfrwt beam="1">  1        2 0.12159617E+00 0.71619606E+03</pdfrwt>
<pdfrwt beam="2">  1       -2 0.21522262E-01 0.71619606E+03</pdfrwt>
<totfact> 0.65926798E+02</totfact>
</mgrwt>
</event>
<event>
 4    1  0.5069019E-005  0.5381560E+03  0.7818608E-02  0.1004273E+00
          2   -1    0    0  501    0  0.00000000000E+00  0.00000000000E+00  0.77905987307E+03  0.77905987307E+03  0.25500000000E-02 0.  1.
         -2   -1    0    0    0  501 -0.00000000000E+00 -0.00000000000E+00 -0.92936321745E+02  0.92936321780E+02  0.25500000000E-02 0. -1.
    5000001    1    1    2    0    0  0.13227994425E+03 -0.30642252286E+02  0.53726644657E+03  0.58880656067E+03  0.19900000000E+03 0.  0.
   -5000001    1    1    2    0    0 -0.13227994425E+03  0.30642252286E+02  0.14885710475E+03  0.28318963418E+03  0.19900000000E+03 0.  0.
<mgrwt>
<rscale>  0 0.53815596E+03</rscale>
<asrwt>0</asrwt>
<pdfrwt beam="1">  1        2 0.11129427E+00 0.53815596E+03</pdfrwt>
<pdfrwt beam="2">  1       -2 0.13276618E-01 0.53815596E+03</pdfrwt>
<totfact> 0.16924489E+03</totfact>
</mgrwt>
</event>
<event>
 4    1  0.5069019E-005  0.6033568E+03  0.7818608E-02  0.9898466E-01
         -2   -1    0    0    0  501 -0.00000000000E+00  0.00000000000E+00  0.19817608818E+03  0.19817608820E+03  0.25500000000E-02 0. -1.
          2   -1    0    0  501    0  0.00000000000E+00 -0.00000000000E+00 -0.45923739028E+03  0.45923739029E+03  0.25500000000E-02 0.  1.
    5000001    1    1    2    0    0 -0.15760406939E+03 -0.16299607154E+03 -0.12894885138E+03  0.32807860079E+03  0.19900000000E+03 0.  0.
   -5000001    1    1    2    0    0  0.15760406939E+03  0.16299607154E+03 -0.13211245072E+03  0.32933487769E+03  0.19900000000E+03 0.  0.
<mgrwt>
<rscale>  0 0.60335684E+03</rscale>
<asrwt>0</asrwt>
<pdfrwt beam="1">  1        2 0.65605341E-01 0.60335684E+03</pdfrwt>
<pdfrwt beam="2">  1       -2 0.28310870E-01 0.60335684E+03</pdfrwt>
<totfact> 0.84747931E+02</totfact>
</mgrwt>
</event>
<event>
 4    1  0.5069019E-005  0.6612328E+03  0.7818608E-02  0.9785927E-01
         -2   -1    0    0    0  501 -0.00000000000E+00  0.00000000000E+00  0.20261448714E+03  0.20261448716E+03  0.25500000000E-02 0. -1.
          2   -1    0    0  501    0  0.00000000000E+00 -0.00000000000E+00 -0.53948359826E+03  0.53948359827E+03  0.25500000000E-02 0.  1.
    5000001    1    1    2    0    0 -0.79803105828E+02 -0.24945895826E+03 -0.20579003313E+03  0.38800624388E+03  0.19900000000E+03 0.  0.
   -5000001    1    1    2    0    0  0.79803105828E+02  0.24945895826E+03 -0.13107907799E+03  0.35409184154E+03  0.19900000000E+03 0.  0.
<mgrwt>
<rscale>  0 0.66123277E+03</rscale>
<asrwt>0</asrwt>
<pdfrwt beam="1">  1        2 0.77069085E-01 0.66123277E+03</pdfrwt>
<pdfrwt beam="2">  1       -2 0.28944927E-01 0.66123277E+03</pdfrwt>
<totfact> 0.67659049E+02</totfact>
</mgrwt>
</event>
<event>
 4    1  0.5069019E-005  0.5001495E+03  0.7818608E-02  0.1013740E+00
         -2   -1    0    0    0  501 -0.00000000000E+00  0.00000000000E+00  0.24989037669E+03  0.24989037670E+03  0.25500000000E-02 0. -1.
          2   -1    0    0  501    0  0.00000000000E+00 -0.00000000000E+00 -0.25025922055E+03  0.25025922056E+03  0.25500000000E-02 0.  1.
    5000001    1    1    2    0    0  0.88560700160E+02 -0.11511461662E+03 -0.43102941587E+02  0.25010644963E+03  0.19900000000E+03 0.  0.
   -5000001    1    1    2    0    0 -0.88560700160E+02  0.11511461662E+03  0.42734097727E+02  0.25004314764E+03  0.19900000000E+03 0.  0.
<mgrwt>
<rscale>  0 0.50014946E+03</rscale>
<asrwt>0</asrwt>
<pdfrwt beam="1">  1        2 0.35751317E-01 0.50014946E+03</pdfrwt>
<pdfrwt beam="2">  1       -2 0.35698625E-01 0.50014946E+03</pdfrwt>
<totfact> 0.10777045E+03</totfact>
</mgrwt>
</event>
<event>
 4    1  0.5069019E-005  0.8161626E+03  0.7818608E-02  0.9536913E-01
          2   -1    0    0  501    0  0.00000000000E+00  0.00000000000E+00  0.36499273852E+03  0.36499273853E+03  0.25500000000E-02 0.  1.
         -2   -1    0    0    0  501 -0.00000000000E+00 -0.00000000000E+00 -0.45625657730E+03  0.45625657730E+03  0.25500000000E-02 0. -1.
    5000001    1    1    2    0    0 -0.11593789723E+03 -0.20105610006E+03 -0.31762046806E+03  0.44085021619E+03  0.19900000000E+03 0.  0.
   -5000001    1    1    2    0    0  0.11593789723E+03  0.20105610006E+03  0.22635662928E+03  0.38039909964E+03  0.19900000000E+03 0.  0.
<mgrwt>
<rscale>  0 0.81616258E+03</rscale>
<asrwt>0</asrwt>
<pdfrwt beam="1">  1        2 0.52141820E-01 0.81616258E+03</pdfrwt>
<pdfrwt beam="2">  1       -2 0.65179511E-01 0.81616258E+03</pdfrwt>
<totfact> 0.20937245E+02</totfact>
</mgrwt>
</event>
<event>
 4    1  0.5069019E-005  0.6716726E+03  0.7818608E-02  0.9766941E-01
         -2   -1    0    0    0  501 -0.00000000000E+00  0.00000000000E+00  0.48078608620E+02  0.48078608688E+02  0.25500000000E-02 0. -1.
          2   -1    0    0  501    0  0.00000000000E+00 -0.00000000000E+00 -0.23458671131E+04  0.23458671131E+04  0.25500000000E-02 0.  1.
    5000001    1    1    2    0    0  0.22202817762E+03 -0.89053885269E+02 -0.15991350100E+04  0.16291288735E+04  0.19900000000E+03 0.  0.
   -5000001    1    1    2    0    0 -0.22202817762E+03  0.89053885269E+02 -0.69865349447E+03  0.76481684832E+03  0.19900000000E+03 0.  0.
<mgrwt>
<rscale>  0 0.67167262E+03</rscale>
<asrwt>0</asrwt>
<pdfrwt beam="1">  1        2 0.33512380E+00 0.67167262E+03</pdfrwt>
<pdfrwt beam="2">  1       -2 0.68683741E-02 0.67167262E+03</pdfrwt>
<totfact> 0.68893949E+02</totfact>
</mgrwt>
</event>
<event>
 4    1  0.5069019E-005  0.4820304E+03  0.7818608E-02  0.1018579E+00
         -2   -1    0    0    0  501 -0.00000000000E+00  0.00000000000E+00  0.10332265352E+03  0.10332265355E+03  0.25500000000E-02 0. -1.
          2   -1    0    0  501    0  0.00000000000E+00 -0.00000000000E+00 -0.56220316518E+03  0.56220316519E+03  0.25500000000E-02 0.  1.
    5000001    1    1    2    0    0  0.12463663712E+02  0.13539449955E+03 -0.23020827937E+03  0.33329246213E+03  0.19900000000E+03 0.  0.
   -5000001    1    1    2    0    0 -0.12463663712E+02 -0.13539449955E+03 -0.22867223229E+03  0.33223335661E+03  0.19900000000E+03 0.  0.
<mgrwt>
<rscale>  0 0.48203038E+03</rscale>
<asrwt>0</asrwt>
<pdfrwt beam="1">  1        2 0.80314736E-01 0.48203038E+03</pdfrwt>
<pdfrwt beam="2">  1       -2 0.14760379E-01 0.48203038E+03</pdfrwt>
<totfact> 0.20986197E+03</totfact>
</mgrwt>
</event>
<event>
 4    1  0.5069019E-005  0.7342181E+03  0.7818608E-02  0.9660440E-01
         -2   -1    0    0    0  501 -0.00000000000E+00  0.00000000000E+00  0.11193843381E+03  0.11193843384E+03  0.25500000000E-02 0. -1.
          2   -1    0    0  501    0  0.00000000000E+00 -0.00000000000E+00 -0.12039570447E+04  0.12039570447E+04  0.25500000000E-02 0.  1.
    5000001    1    1    2    0    0 -0.29538579440E+03  0.41327293343E+02 -0.68721412525E+03  0.77512900001E+03  0.19900000000E+03 0.  0.
   -5000001    1    1    2    0    0  0.29538579440E+03 -0.41327293343E+02 -0.40480448562E+03  0.54076647852E+03  0.19900000000E+03 0.  0.
<mgrwt>
<rscale>  0 0.73421813E+03</rscale>
<asrwt>0</asrwt>
<pdfrwt beam="1">  1        2 0.17199386E+00 0.73421813E+03</pdfrwt>
<pdfrwt beam="2">  1       -2 0.15991206E-01 0.73421813E+03</pdfrwt>
<totfact> 0.67191286E+02</totfact>
</mgrwt>
</event>
<event>
 4    1  0.5069019E-005  0.4627594E+03  0.7818608E-02  0.1023984E+00
         -2   -1    0    0    0  501 -0.00000000000E+00  0.00000000000E+00  0.22216591994E+03  0.22216591996E+03  0.25500000000E-02 0. -1.
          2   -1    0    0  501    0  0.00000000000E+00 -0.00000000000E+00 -0.24097562321E+03  0.24097562322E+03  0.25500000000E-02 0.  1.
    5000001    1    1    2    0    0 -0.80069419321E+02 -0.28518120232E+02  0.72584561685E+02  0.22824091151E+03  0.19900000000E+03 0.  0.
   -5000001    1    1    2    0    0  0.80069419321E+02  0.28518120232E+02 -0.91394264956E+02  0.23490063167E+03  0.19900000000E+03 0.  0.
<mgrwt>
<rscale>  0 0.46275942E+03</rscale>
<asrwt>0</asrwt>
<pdfrwt beam="1">  1        2 0.34425089E-01 0.46275942E+03</pdfrwt>
<pdfrwt beam="2">  1       -2 0.31737988E-01 0.46275942E+03</pdfrwt>
<totfact> 0.14003626E+03</totfact>
</mgrwt>
</event>
<event>
 4    1  0.5069019E-005  0.8759445E+03  0.7818608E-02  0.9456162E-01
          2   -1    0    0  501    0  0.00000000000E+00  0.00000000000E+00  0.52447185803E+03  0.52447185803E+03  0.25500000000E-02 0.  1.
         -2   -1    0    0    0  501 -0.00000000000E+00 -0.00000000000E+00 -0.36573873689E+03  0.36573873689E+03  0.25500000000E-02 0. -1.
    5000001    1    1    2    0    0 -0.14051902596E+03 -0.28728872231E+03 -0.14774169782E+03  0.40460970811E+03  0.19900000000E+03 0.  0.
   -5000001    1    1    2    0    0  0.14051902596E+03  0.28728872231E+03  0.30647481896E+03  0.48560088682E+03  0.19900000000E+03 0.  0.
<mgrwt>
<rscale>  0 0.87594446E+03</rscale>
<asrwt>0</asrwt>
<pdfrwt beam="1">  1        2 0.74924552E-01 0.87594446E+03</pdfrwt>
<pdfrwt beam="2">  1       -2 0.52248391E-01 0.87594446E+03</pdfrwt>
<totfact> 0.22057347E+02</totfact>
</mgrwt>
</event>
<event>
 4    1  0.5069019E-005  0.5427065E+03  0.7818608E-02  0.1003196E+00
         -2   -1    0    0    0  501 -0.00000000000E+00  0.00000000000E+00  0.11279276715E+03  0.11279276718E+03  0.25500000000E-02 0. -1.
          2   -1    0    0  501    0  0.00000000000E+00 -0.00000000000E+00 -0.65281303757E+03  0.65281303757E+03  0.25500000000E-02 0.  1.
    5000001    1    1    2    0    0  0.85023351148E+02 -0.16365631789E+03 -0.26382412132E+03  0.37843959573E+03  0.19900000000E+03 0.  0.
   -5000001    1    1    2    0    0 -0.85023351148E+02  0.16365631789E+03 -0.27619614910E+03  0.38716620902E+03  0.19900000000E+03 0.  0.
<mgrwt>
<rscale>  0 0.54270651E+03</rscale>
<asrwt>0</asrwt>
<pdfrwt beam="1">  1        2 0.93259003E-01 0.54270651E+03</pdfrwt>
<pdfrwt beam="2">  1       -2 0.16113253E-01 0.54270651E+03</pdfrwt>
<totfact> 0.15199116E+03</totfact>
</mgrwt>
</event>
<event>
 4    1  0.5069019E-005  0.8717647E+03  0.7818608E-02  0.9461582E-01
          2   -1    0    0  501    0  0.00000000000E+00  0.00000000000E+00  0.51168392492E+04  0.51168392492E+04  0.25500000000E-02 0.  1.
         -2   -1    0    0    0  501 -0.00000000000E+00 -0.00000000000E+00 -0.37131016766E+02  0.37131016854E+02  0.25500000000E-02 0. -1.
    5000001    1    1    2    0    0 -0.91549801586E+01 -0.37242132114E+03  0.19027986710E+04  0.19491088313E+04  0.19900000000E+03 0.  0.
   -5000001    1    1    2    0    0  0.91549801586E+01  0.37242132114E+03  0.31769095614E+04  0.32048614347E+04  0.19900000000E+03 0.  0.
<mgrwt>
<rscale>  0 0.87176475E+03</rscale>
<asrwt>0</asrwt>
<pdfrwt beam="1">  1        2 0.73097768E+00 0.87176475E+03</pdfrwt>
<pdfrwt beam="2">  1       -2 0.53044263E-02 0.87176475E+03</pdfrwt>
<totfact> 0.14281637E+01</totfact>
</mgrwt>
</event>
<event>
 4    1  0.5069019E-005  0.1037606E+04  0.7818608E-02  0.9268234E-01
         -2   -1    0    0    0  501 -0.00000000000E+00  0.00000000000E+00  0.61580521907E+03  0.61580521908E+03  0.25500000000E-02 0. -1.
          2   -1    0    0  501    0  0.00000000000E+00 -0.00000000000E+00 -0.43708079649E+03  0.43708079649E+03  0.25500000000E-02 0.  1.
    5000001    1    1    2    0    0  0.35912467445E+03 -0.29096252825E+03  0.21741851393E+03  0.54818020289E+03  0.19900000000E+03 0.  0.
   -5000001    1    1    2    0    0 -0.35912467445E+03  0.29096252825E+03 -0.38694091350E+02  0.50470581268E+03  0.19900000000E+03 0.  0.
<mgrwt>
<rscale>  0 0.10376062E+04</rscale>
<asrwt>0</asrwt>
<pdfrwt beam="1">  1        2 0.62440114E-01 0.10376062E+04</pdfrwt>
<pdfrwt beam="2">  1       -2 0.87972174E-01 0.10376062E+04</pdfrwt>
<totfact> 0.86938778E+01</totfact>
</mgrwt>
</event>
<event>
 4    1  0.5069019E-005  0.7057737E+03  0.7818608E-02  0.9707409E-01
         -2   -1    0    0    0  501 -0.00000000000E+00  0.00000000000E+00  0.99384584115E+02  0.99384584148E+02  0.25500000000E-02 0. -1.
          2   -1    0    0  501    0  0.00000000000E+00 -0.00000000000E+00 -0.12530024392E+04  0.12530024392E+04  0.25500000000E-02 0.  1.
    5000001    1    1    2    0    0  0.16717841703E+03 -0.21735556908E+03 -0.76588089570E+03  0.83747633574E+03  0.19900000000E+03 0.  0.
   -5000001    1    1    2    0    0 -0.16717841703E+03  0.21735556908E+03 -0.38773695935E+03  0.51491068757E+03  0.19900000000E+03 0.  0.
<mgrwt>
<rscale>  0 0.70577369E+03</rscale>
<asrwt>0</asrwt>
<pdfrwt beam="1">  1        2 0.17900034E+00 0.70577369E+03</pdfrwt>
<pdfrwt beam="2">  1       -2 0.14197799E-01 0.70577369E+03</pdfrwt>
<totfact> 0.77216479E+02</totfact>
</mgrwt>
</event>
<event>
 4    1  0.5069019E-005  0.2123811E+04  0.7818608E-02  0.8550827E-01
         -2   -1    0    0    0  501 -0.00000000000E+00  0.00000000000E+00  0.13012780967E+04  0.13012780967E+04  0.25500000000E-02 0. -1.
          2   -1    0    0  501    0  0.00000000000E+00 -0.00000000000E+00 -0.86656571039E+03  0.86656571039E+03  0.25500000000E-02 0.  1.
    5000001    1    1    2    0    0 -0.99951692573E+03 -0.29830097654E+03  0.22240040020E+03  0.10849334060E+04  0.19900000000E+03 0.  0.
   -5000001    1    1    2    0    0  0.99951692573E+03  0.29830097654E+03  0.21231198614E+03  0.10829104011E+04  0.19900000000E+03 0.  0.
<mgrwt>
<rscale>  0 0.21238107E+04</rscale>
<asrwt>0</asrwt>
<pdfrwt beam="1">  1        2 0.12379510E+00 0.21238107E+04</pdfrwt>
<pdfrwt beam="2">  1       -2 0.18589687E+00 0.21238107E+04</pdfrwt>
<totfact> 0.52193621E+00</totfact>
</mgrwt>
</event>
<event>
 4    1  0.5069019E-005  0.7415147E+03  0.7818608E-02  0.9648757E-01
         -2   -1    0    0    0  501 -0.00000000000E+00  0.00000000000E+00  0.16113029767E+03  0.16113029769E+03  0.25500000000E-02 0. -1.
          2   -1    0    0  501    0  0.00000000000E+00 -0.00000000000E+00 -0.85310479359E+03  0.85310479359E+03  0.25500000000E-02 0.  1.
    5000001    1    1    2    0    0 -0.15984371817E+03 -0.24744898676E+03 -0.20201811214E+03  0.40889281348E+03  0.19900000000E+03 0.  0.
   -5000001    1    1    2    0    0  0.15984371817E+03  0.24744898676E+03 -0.48995638378E+03  0.60534227780E+03  0.19900000000E+03 0.  0.
<mgrwt>
<rscale>  0 0.74151475E+03</rscale>
<asrwt>0</asrwt>
<pdfrwt beam="1">  1        2 0.12187211E+00 0.74151475E+03</pdfrwt>
<pdfrwt beam="2">  1       -2 0.23018614E-01 0.74151475E+03</pdfrwt>
<totfact> 0.58298905E+02</totfact>
</mgrwt>
</event>
<event>
 4    1  0.5069019E-005  0.6163436E+03  0.7818608E-02  0.9872067E-01
         -2   -1    0    0    0  501 -0.00000000000E+00  0.00000000000E+00  0.10385196258E+03  0.10385196261E+03  0.25500000000E-02 0. -1.
          2   -1    0    0  501    0  0.00000000000E+00 -0.00000000000E+00 -0.91447338514E+03  0.91447338514E+03  0.25500000000E-02 0.  1.
    5000001    1    1    2    0    0  0.21682826159E+03 -0.12717062973E+02 -0.55485696143E+03  0.62820654753E+03  0.19900000000E+03 0.  0.
   -5000001    1    1    2    0    0 -0.21682826159E+03  0.12717062973E+02 -0.25576446112E+03  0.39011880022E+03  0.19900000000E+03 0.  0.
<mgrwt>
<rscale>  0 0.61634359E+03</rscale>
<asrwt>0</asrwt>
<pdfrwt beam="1">  1        2 0.13063905E+00 0.61634359E+03</pdfrwt>
<pdfrwt beam="2">  1       -2 0.14835995E-01 0.61634359E+03</pdfrwt>
<totfact> 0.11398456E+03</totfact>
</mgrwt>
</event>
<event>
 4    1  0.5069019E-005  0.4325545E+03  0.7818608E-02  0.1033056E+00
         -2   -1    0    0    0  501 -0.00000000000E+00  0.00000000000E+00  0.98431403232E+02  0.98431403265E+02  0.25500000000E-02 0. -1.
          2   -1    0    0  501    0  0.00000000000E+00 -0.00000000000E+00 -0.47521269202E+03  0.47521269203E+03  0.25500000000E-02 0.  1.
    5000001    1    1    2    0    0 -0.72127725586E+02 -0.40299340953E+02 -0.21314460902E+03  0.30308096284E+03  0.19900000000E+03 0.  0.
   -5000001    1    1    2    0    0  0.72127725586E+02  0.40299340953E+02 -0.16363667977E+03  0.27056313246E+03  0.19900000000E+03 0.  0.
<mgrwt>
<rscale>  0 0.43255452E+03</rscale>
<asrwt>0</asrwt>
<pdfrwt beam="1">  1        2 0.67887526E-01 0.43255452E+03</pdfrwt>
<pdfrwt beam="2">  1       -2 0.14061629E-01 0.43255452E+03</pdfrwt>
<totfact> 0.27501130E+03</totfact>
</mgrwt>
</event>
<event>
 4    1  0.5069019E-005  0.6221512E+03  0.7818608E-02  0.9860486E-01
          2   -1    0    0  501    0  0.00000000000E+00  0.00000000000E+00  0.13407714660E+03  0.13407714663E+03  0.25500000000E-02 0.  1.
         -2   -1    0    0    0  501 -0.00000000000E+00 -0.00000000000E+00 -0.72173397500E+03  0.72173397501E+03  0.25500000000E-02 0. -1.
    5000001    1    1    2    0    0 -0.10517414266E+03 -0.10241035028E+03 -0.34222842780E+02  0.24964311145E+03  0.19900000000E+03 0.  0.
   -5000001    1    1    2    0    0  0.10517414266E+03  0.10241035028E+03 -0.55343398562E+03  0.60616801018E+03  0.19900000000E+03 0.  0.
<mgrwt>
<rscale>  0 0.62215121E+03</rscale>
<asrwt>0</asrwt>
<pdfrwt beam="1">  1        2 0.19153878E-01 0.62215121E+03</pdfrwt>
<pdfrwt beam="2">  1       -2 0.10310485E+00 0.62215121E+03</pdfrwt>
<totfact> 0.23229306E+02</totfact>
</mgrwt>
</event>
<event>
 4    1  0.5069019E-005  0.2348182E+04  0.7818608E-02  0.8459162E-01
         -2   -1    0    0    0  501 -0.00000000000E+00  0.00000000000E+00  0.15412074365E+04  0.15412074365E+04  0.25500000000E-02 0. -1.
          2   -1    0    0  501    0  0.00000000000E+00 -0.00000000000E+00 -0.89442195127E+03  0.89442195127E+03  0.25500000000E-02 0.  1.
    5000001    1    1    2    0    0 -0.59188134479E+03 -0.41516496785E+03  0.12604769238E+04  0.14666589761E+04  0.19900000000E+03 0.  0.
   -5000001    1    1    2    0    0  0.59188134479E+03  0.41516496785E+03 -0.61369143858E+03  0.96897041163E+03  0.19900000000E+03 0.  0.
<mgrwt>
<rscale>  0 0.23481821E+04</rscale>
<asrwt>0</asrwt>
<pdfrwt beam="1">  1        2 0.12777457E+00 0.23481821E+04</pdfrwt>
<pdfrwt beam="2">  1       -2 0.22017249E+00 0.23481821E+04</pdfrwt>
<totfact> 0.29326082E+00</totfact>
</mgrwt>
</event>
<event>
 4    1  0.5069019E-005  0.5937154E+03  0.7818608E-02  0.9918531E-01
         -2   -1    0    0    0  501 -0.00000000000E+00  0.00000000000E+00  0.25063872390E+02  0.25063872520E+02  0.25500000000E-02 0. -1.
          2   -1    0    0  501    0  0.00000000000E+00 -0.00000000000E+00 -0.35159973350E+04  0.35159973350E+04  0.25500000000E-02 0.  1.
    5000001    1    1    2    0    0  0.15684105480E+03  0.15124693524E+03 -0.15523177183E+04  0.15801158345E+04  0.19900000000E+03 0.  0.
   -5000001    1    1    2    0    0 -0.15684105480E+03 -0.15124693524E+03 -0.19386157443E+04  0.19609453730E+04  0.19900000000E+03 0.  0.
<mgrwt>
<rscale>  0 0.59371545E+03</rscale>
<asrwt>0</asrwt>
<pdfrwt beam="1">  1        2 0.50228502E+00 0.59371545E+03</pdfrwt>
<pdfrwt beam="2">  1       -2 0.35805554E-02 0.59371545E+03</pdfrwt>
<totfact> 0.44112833E+02</totfact>
</mgrwt>
</event>
<event>
 4    1  0.5069019E-005  0.2153028E+04  0.7818608E-02  0.8538237E-01
          2   -1    0    0  501    0  0.00000000000E+00  0.00000000000E+00  0.36911775022E+04  0.36911775022E+04  0.25500000000E-02 0.  1.
         -2   -1    0    0    0  501 -0.00000000000E+00 -0.00000000000E+00 -0.31396006063E+03  0.31396006064E+03  0.25500000000E-02 0. -1.
    5000001    1    1    2    0    0 -0.51691915981E+02 -0.10064995622E+04  0.22872688533E+04  0.25073717774E+04  0.19900000000E+03 0.  0.
   -5000001    1    1    2    0    0  0.51691915981E+02  0.10064995622E+04  0.10899485883E+04  0.14977657855E+04  0.19900000000E+03 0.  0.
<mgrwt>
<rscale>  0 0.21530279E+04</rscale>
<asrwt>0</asrwt>
<pdfrwt beam="1">  1        2 0.52731102E+00 0.21530279E+04</pdfrwt>
<pdfrwt beam="2">  1       -2 0.44851441E-01 0.21530279E+04</pdfrwt>
<totfact> 0.39756847E+00</totfact>
</mgrwt>
</event>
<event>
 4    1  0.5069019E-005  0.5054780E+03  0.7818608E-02  0.1012359E+00
          2   -1    0    0  501    0  0.00000000000E+00  0.00000000000E+00  0.19384619664E+04  0.19384619664E+04  0.25500000000E-02 0.  1.
         -2   -1    0    0    0  501 -0.00000000000E+00 -0.00000000000E+00 -0.32952408138E+02  0.32952408237E+02  0.25500000000E-02 0. -1.
    5000001    1    1    2    0    0  0.50049430691E+02  0.14308139929E+03  0.10933076625E+04  0.11215613569E+04  0.19900000000E+03 0.  0.
   -5000001    1    1    2    0    0 -0.50049430691E+02 -0.14308139929E+03  0.81220189574E+03  0.84985301775E+03  0.19900000000E+03 0.  0.
<mgrwt>
<rscale>  0 0.50547795E+03</rscale>
<asrwt>0</asrwt>
<pdfrwt beam="1">  1        2 0.27692312E+00 0.50547795E+03</pdfrwt>
<pdfrwt beam="2">  1       -2 0.47074872E-02 0.50547795E+03</pdfrwt>
<totfact> 0.20109620E+03</totfact>
</mgrwt>
</event>
<event>
 4    1  0.5069019E-005  0.6483703E+03  0.7818608E-02  0.9809842E-01
         -2   -1    0    0    0  501 -0.00000000000E+00  0.00000000000E+00  0.52764240192E+02  0.52764240254E+02  0.25500000000E-02 0. -1.
          2   -1    0    0  501    0  0.00000000000E+00 -0.00000000000E+00 -0.19918036543E+04  0.19918036544E+04  0.25500000000E-02 0.  1.
    5000001    1    1    2    0    0 -0.14129711864E+03 -0.28736413506E+01 -0.29671581442E+03  0.38420620515E+03  0.19900000000E+03 0.  0.
   -5000001    1    1    2    0    0  0.14129711864E+03  0.28736413506E+01 -0.16423235997E+04  0.16603616895E+04  0.19900000000E+03 0.  0.
<mgrwt>
<rscale>  0 0.64837028E+03</rscale>
<asrwt>0</asrwt>
<pdfrwt beam="1">  1        2 0.28454333E+00 0.64837028E+03</pdfrwt>
<pdfrwt beam="2">  1       -2 0.75377498E-02 0.64837028E+03</pdfrwt>
<totfact> 0.89889138E+02</totfact>
</mgrwt>
</event>
<event>
 4    1  0.5069019E-005  0.6082880E+03  0.7818608E-02  0.9888359E-01
          2   -1    0    0  501    0  0.00000000000E+00  0.00000000000E+00  0.94376207679E+03  0.94376207680E+03  0.25500000000E-02 0. -1.
         -2   -1    0    0    0  501 -0.00000000000E+00 -0.00000000000E+00 -0.98015790268E+02  0.98015790302E+02  0.25500000000E-02 0.  1.
    5000001    1    1    2    0    0  0.16273356845E+03  0.14181174909E+03  0.55891533506E+03  0.63133203487E+03  0.19900000000E+03 0.  0.
   -5000001    1    1    2    0    0 -0.16273356845E+03 -0.14181174909E+03  0.28683095146E+03  0.41044583223E+03  0.19900000000E+03 0.  0.
<mgrwt>
<rscale>  0 0.60828804E+03</rscale>
<asrwt>0</asrwt>
<pdfrwt beam="1">  1        2 0.13482316E+00 0.60828804E+03</pdfrwt>
<pdfrwt beam="2">  1       -2 0.14002255E-01 0.60828804E+03</pdfrwt>
<totfact> 0.12035551E+03</totfact>
</mgrwt>
</event>
<event>
 4    1  0.5069019E-005  0.8054161E+03  0.7818608E-02  0.9552210E-01
         -2   -1    0    0    0  501 -0.00000000000E+00  0.00000000000E+00  0.10754700340E+03  0.10754700343E+03  0.25500000000E-02 0. -1.
          2   -1    0    0  501    0  0.00000000000E+00 -0.00000000000E+00 -0.15079340134E+04  0.15079340134E+04  0.25500000000E-02 0.  1.
    5000001    1    1    2    0    0  0.19245587937E+03 -0.27739755145E+03 -0.51435771296E+03  0.64664791342E+03  0.19900000000E+03 0.  0.
   -5000001    1    1    2    0    0 -0.19245587937E+03  0.27739755145E+03 -0.88602929703E+03  0.96883310340E+03  0.19900000000E+03 0.  0.
<mgrwt>
<rscale>  0 0.80541613E+03</rscale>
<asrwt>0</asrwt>
<pdfrwt beam="1">  1        2 0.21541913E+00 0.80541613E+03</pdfrwt>
<pdfrwt beam="2">  1       -2 0.15363858E-01 0.80541613E+03</pdfrwt>
<totfact> 0.49047226E+02</totfact>
</mgrwt>
</event>
<event>
 4    1  0.5069019E-005  0.5205312E+03  0.7818608E-02  0.1008555E+00
         -2   -1    0    0    0  501 -0.00000000000E+00  0.00000000000E+00  0.10177005670E+03  0.10177005673E+03  0.25500000000E-02 0. -1.
          2   -1    0    0  501    0  0.00000000000E+00 -0.00000000000E+00 -0.66560034971E+03  0.66560034971E+03  0.25500000000E-02 0.  1.
    5000001    1    1    2    0    0 -0.13695588198E+03  0.49637118364E+02 -0.40451761344E+03  0.47376814658E+03  0.19900000000E+03 0.  0.
   -5000001    1    1    2    0    0  0.13695588198E+03 -0.49637118364E+02 -0.15931267956E+03  0.29360225986E+03  0.19900000000E+03 0.  0.
<mgrwt>
<rscale>  0 0.52053121E+03</rscale>
<asrwt>0</asrwt>
<pdfrwt beam="1">  1        2 0.95085762E-01 0.52053121E+03</pdfrwt>
<pdfrwt beam="2">  1       -2 0.14538580E-01 0.52053121E+03</pdfrwt>
<totfact> 0.17655708E+03</totfact>
</mgrwt>
</event>
<event>
 4    1  0.5069019E-005  0.5464543E+03  0.7818608E-02  0.1002318E+00
         -2   -1    0    0    0  501 -0.00000000000E+00  0.00000000000E+00  0.38753424989E+02  0.38753425073E+02  0.25500000000E-02 0. -1.
          2   -1    0    0  501    0  0.00000000000E+00 -0.00000000000E+00 -0.19263609741E+04  0.19263609741E+04  0.25500000000E-02 0.  1.
    5000001    1    1    2    0    0 -0.14839791056E+03  0.91115939796E+02 -0.11910753126E+04  0.12200760036E+04  0.19900000000E+03 0.  0.
   -5000001    1    1    2    0    0  0.14839791056E+03 -0.91115939796E+02 -0.69653223656E+03  0.74503839559E+03  0.19900000000E+03 0.  0.
<mgrwt>
<rscale>  0 0.54645434E+03</rscale>
<asrwt>0</asrwt>
<pdfrwt beam="1">  1        2 0.27519436E+00 0.54645434E+03</pdfrwt>
<pdfrwt beam="2">  1       -2 0.55362048E-02 0.54645434E+03</pdfrwt>
<totfact> 0.15836540E+03</totfact>
</mgrwt>
</event>
<event>
 4    1  0.5069019E-005  0.4818086E+03  0.7818608E-02  0.1018639E+00
         -2   -1    0    0    0  501 -0.00000000000E+00  0.00000000000E+00  0.73039763639E+03  0.73039763640E+03  0.25500000000E-02 0. -1.
          2   -1    0    0  501    0  0.00000000000E+00 -0.00000000000E+00 -0.79456566720E+02  0.79456566761E+02  0.25500000000E-02 0.  1.
    5000001    1    1    2    0    0 -0.10053133127E+03  0.72568579339E+02  0.23247246095E+03  0.33017751646E+03  0.19900000000E+03 0.  0.
   -5000001    1    1    2    0    0  0.10053133127E+03 -0.72568579339E+02  0.41846860873E+03  0.47967668670E+03  0.19900000000E+03 0.  0.
<mgrwt>
<rscale>  0 0.48180863E+03</rscale>
<asrwt>0</asrwt>
<pdfrwt beam="1">  1        2 0.11350938E-01 0.48180863E+03</pdfrwt>
<pdfrwt beam="2">  1       -2 0.10434252E+00 0.48180863E+03</pdfrwt>
<totfact> 0.42683592E+02</totfact>
</mgrwt>
</event>
<event>
 4    1  0.5069019E-005  0.4272284E+03  0.7818608E-02  0.1034739E+00
         -2   -1    0    0    0  501 -0.00000000000E+00  0.00000000000E+00  0.56787314715E+02  0.56787314772E+02  0.25500000000E-02 0. -1.
          2   -1    0    0  501    0  0.00000000000E+00 -0.00000000000E+00 -0.80354261130E+03  0.80354261131E+03  0.25500000000E-02 0.  1.
    5000001    1    1    2    0    0  0.75029940406E+02  0.46470241860E+01 -0.33417726076E+03  0.39613953148E+03  0.19900000000E+03 0.  0.
   -5000001    1    1    2    0    0 -0.75029940406E+02 -0.46470241860E+01 -0.41257803582E+03  0.46419039460E+03  0.19900000000E+03 0.  0.
<mgrwt>
<rscale>  0 0.42722840E+03</rscale>
<asrwt>0</asrwt>
<pdfrwt beam="1">  1        2 0.11479179E+00 0.42722840E+03</pdfrwt>
<pdfrwt beam="2">  1       -2 0.81124740E-02 0.42722840E+03</pdfrwt>
<totfact> 0.36084675E+03</totfact>
</mgrwt>
</event>
<event>
 4    1  0.5069019E-005  0.7046670E+03  0.7818608E-02  0.9709284E-01
         -2   -1    0    0    0  501 -0.00000000000E+00  0.00000000000E+00  0.24347435241E+04  0.24347435241E+04  0.25500000000E-02 0. -1.
          2   -1    0    0  501    0  0.00000000000E+00 -0.00000000000E+00 -0.50986440425E+02  0.50986440489E+02  0.25500000000E-02 0.  1.
    5000001    1    1    2    0    0 -0.10825384385E+03  0.26881909658E+03  0.11087528018E+04  0.11631493356E+04  0.19900000000E+03 0.  0.
   -5000001    1    1    2    0    0  0.10825384385E+03 -0.26881909658E+03  0.12750042818E+04  0.13225806290E+04  0.19900000000E+03 0.  0.
<mgrwt>
<rscale>  0 0.70466703E+03</rscale>
<asrwt>0</asrwt>
<pdfrwt beam="1">  1        2 0.72837747E-02 0.70466703E+03</pdfrwt>
<pdfrwt beam="2">  1       -2 0.34782062E+00 0.70466703E+03</pdfrwt>
<totfact> 0.17048775E+01</totfact>
</mgrwt>
</event>
<event>
 4    1  0.5069019E-005  0.4831959E+03  0.7818608E-02  0.1018261E+00
          2   -1    0    0  501    0  0.00000000000E+00  0.00000000000E+00  0.15678184446E+04  0.15678184446E+04  0.25500000000E-02 0.  1.
         -2   -1    0    0    0  501 -0.00000000000E+00 -0.00000000000E+00 -0.37229803096E+02  0.37229803183E+02  0.25500000000E-02 0. -1.
    5000001    1    1    2    0    0  0.25402103655E+02  0.80646869472E+02  0.40723378127E+03  0.46107432919E+03  0.19900000000E+03 0.  0.
   -5000001    1    1    2    0    0 -0.25402103655E+02 -0.80646869472E+02  0.11233548602E+04  0.11439739186E+04  0.19900000000E+03 0.  0.
<mgrwt>
<rscale>  0 0.48319591E+03</rscale>
<asrwt>0</asrwt>
<pdfrwt beam="1">  1        2 0.22397412E+00 0.48319591E+03</pdfrwt>
<pdfrwt beam="2">  1       -2 0.53185420E-02 0.48319591E+03</pdfrwt>
<totfact> 0.25620032E+03</totfact>
</mgrwt>
</event>
<event>
 4    1  0.5069019E-005  0.7431569E+03  0.7818608E-02  0.9646148E-01
          2   -1    0    0  501    0  0.00000000000E+00  0.00000000000E+00  0.19988331956E+04  0.19988331956E+04  0.25500000000E-02 0.  1.
         -2   -1    0    0    0  501 -0.00000000000E+00 -0.00000000000E+00 -0.69075571499E+02  0.69075571546E+02  0.25500000000E-02 0. -1.
    5000001    1    1    2    0    0  0.23633729984E+03  0.16644086826E+03  0.13046714032E+04  0.13510463916E+04  0.19900000000E+03 0.  0.
   -5000001    1    1    2    0    0 -0.23633729984E+03 -0.16644086826E+03  0.62508622093E+03  0.71686237558E+03  0.19900000000E+03 0.  0.
<mgrwt>
<rscale>  0 0.74315690E+03</rscale>
<asrwt>0</asrwt>
<pdfrwt beam="1">  1        2 0.28554755E+00 0.74315690E+03</pdfrwt>
<pdfrwt beam="2">  1       -2 0.98679406E-02 0.74315690E+03</pdfrwt>
<totfact> 0.57493264E+02</totfact>
</mgrwt>
</event>
<event>
 4    1  0.5069019E-005  0.5836009E+03  0.7818608E-02  0.9940025E-01
         -2   -1    0    0    0  501 -0.00000000000E+00  0.00000000000E+00  0.73322366966E+02  0.73322367011E+02  0.25500000000E-02 0. -1.
          2   -1    0    0  501    0  0.00000000000E+00 -0.00000000000E+00 -0.11612759067E+04  0.11612759067E+04  0.25500000000E-02 0.  1.
    5000001    1    1    2    0    0  0.13860778682E+03 -0.43593819370E+02 -0.21329775122E+03  0.32589794465E+03  0.19900000000E+03 0.  0.
   -5000001    1    1    2    0    0 -0.13860778682E+03  0.43593819370E+02 -0.87465578854E+03  0.90870032909E+03  0.19900000000E+03 0.  0.
<mgrwt>
<rscale>  0 0.58360088E+03</rscale>
<asrwt>0</asrwt>
<pdfrwt beam="1">  1        2 0.16589655E+00 0.58360088E+03</pdfrwt>
<pdfrwt beam="2">  1       -2 0.10474625E-01 0.58360088E+03</pdfrwt>
<totfact> 0.14419726E+03</totfact>
</mgrwt>
</event>
<event>
 4    1  0.5069019E-005  0.1002363E+04  0.7818608E-02  0.9305957E-01
         -2   -1    0    0    0  501 -0.00000000000E+00  0.00000000000E+00  0.18747999850E+03  0.18747999852E+03  0.25500000000E-02 0. -1.
          2   -1    0    0  501    0  0.00000000000E+00 -0.00000000000E+00 -0.13397859834E+04  0.13397859834E+04  0.25500000000E-02 0.  1.
    5000001    1    1    2    0    0 -0.38801471952E+02  0.30002797519E+03 -0.48208594867E+02  0.36530454246E+03  0.19900000000E+03 0.  0.
   -5000001    1    1    2    0    0  0.38801471952E+02 -0.30002797519E+03 -0.11040973900E+04  0.11619614394E+04  0.19900000000E+03 0.  0.
<mgrwt>
<rscale>  0 0.10023634E+04</rscale>
<asrwt>0</asrwt>
<pdfrwt beam="1">  1        2 0.19139799E+00 0.10023634E+04</pdfrwt>
<pdfrwt beam="2">  1       -2 0.26782858E-01 0.10023634E+04</pdfrwt>
<totfact> 0.22475496E+02</totfact>
</mgrwt>
</event>
<event>
 4    1  0.5069019E-005  0.4935120E+03  0.7818608E-02  0.1015486E+00
         -2   -1    0    0    0  501 -0.00000000000E+00  0.00000000000E+00  0.11428852757E+03  0.11428852760E+03  0.25500000000E-02 0. -1.
          2   -1    0    0  501    0  0.00000000000E+00 -0.00000000000E+00 -0.53276136594E+03  0.53276136594E+03  0.25500000000E-02 0.  1.
    5000001    1    1    2    0    0  0.58311454728E+02 -0.11247139894E+03 -0.11435069019E+03  0.26215858117E+03  0.19900000000E+03 0.  0.
   -5000001    1    1    2    0    0 -0.58311454728E+02  0.11247139894E+03 -0.30412214818E+03  0.38489131238E+03  0.19900000000E+03 0.  0.
<mgrwt>
<rscale>  0 0.49351195E+03</rscale>
<asrwt>0</asrwt>
<pdfrwt beam="1">  1        2 0.76108765E-01 0.49351195E+03</pdfrwt>
<pdfrwt beam="2">  1       -2 0.16326933E-01 0.49351195E+03</pdfrwt>
<totfact> 0.18841531E+03</totfact>
</mgrwt>
</event>
<event>
 4    1  0.5069019E-005  0.7010813E+03  0.7818608E-02  0.9715385E-01
          2   -1    0    0  501    0  0.00000000000E+00  0.00000000000E+00  0.71952858298E+03  0.71952858298E+03  0.25500000000E-02 0.  1.
         -2   -1    0    0    0  501 -0.00000000000E+00 -0.00000000000E+00 -0.17077672513E+03  0.17077672515E+03  0.25500000000E-02 0. -1.
    5000001    1    1    2    0    0  0.18378738620E+03 -0.21147203964E+03  0.36216939706E+03  0.49926535935E+03  0.19900000000E+03 0.  0.
   -5000001    1    1    2    0    0 -0.18378738620E+03  0.21147203964E+03  0.18658246078E+03  0.39103994879E+03  0.19900000000E+03 0.  0.
<mgrwt>
<rscale>  0 0.70108127E+03</rscale>
<asrwt>0</asrwt>
<pdfrwt beam="1">  1        2 0.10278980E+00 0.70108127E+03</pdfrwt>
<pdfrwt beam="2">  1       -2 0.24396675E-01 0.70108127E+03</pdfrwt>
<totfact> 0.65385892E+02</totfact>
</mgrwt>
</event>
<event>
 4    1  0.5069019E-005  0.9206000E+03  0.7818608E-02  0.9400191E-01
          2   -1    0    0  501    0  0.00000000000E+00  0.00000000000E+00  0.61163288465E+03  0.61163288466E+03  0.25500000000E-02 0.  1.
         -2   -1    0    0    0  501 -0.00000000000E+00 -0.00000000000E+00 -0.34641054775E+03  0.34641054776E+03  0.25500000000E-02 0. -1.
    5000001    1    1    2    0    0  0.29311045009E+03  0.13866764561E+01 -0.17321109832E+03  0.39435864820E+03  0.19900000000E+03 0.  0.
   -5000001    1    1    2    0    0 -0.29311045009E+03 -0.13866764561E+01  0.43843343523E+03  0.56368478421E+03  0.19900000000E+03 0.  0.
<mgrwt>
<rscale>  0 0.92059998E+03</rscale>
<asrwt>0</asrwt>
<pdfrwt beam="1">  1        2 0.87376127E-01 0.92059998E+03</pdfrwt>
<pdfrwt beam="2">  1       -2 0.49487221E-01 0.92059998E+03</pdfrwt>
<totfact> 0.20533534E+02</totfact>
</mgrwt>
</event>
<event>
 4    1  0.5069019E-005  0.5608862E+03  0.7818608E-02  0.9990051E-01
         -2   -1    0    0    0  501 -0.00000000000E+00  0.00000000000E+00  0.41340193138E+03  0.41340193138E+03  0.25500000000E-02 0. -1.
          2   -1    0    0  501    0  0.00000000000E+00 -0.00000000000E+00 -0.19024664103E+03  0.19024664105E+03  0.25500000000E-02 0.  1.
    5000001    1    1    2    0    0  0.93088422255E+02 -0.12957965019E+03  0.23704621834E+03  0.34820719368E+03  0.19900000000E+03 0.  0.
   -5000001    1    1    2    0    0 -0.93088422255E+02  0.12957965019E+03 -0.13890927997E+02  0.25544137876E+03  0.19900000000E+03 0.  0.
<mgrwt>
<rscale>  0 0.56088619E+03</rscale>
<asrwt>0</asrwt>
<pdfrwt beam="1">  1        2 0.27178091E-01 0.56088619E+03</pdfrwt>
<pdfrwt beam="2">  1       -2 0.59057420E-01 0.56088619E+03</pdfrwt>
<totfact> 0.53747099E+02</totfact>
</mgrwt>
</event>
<event>
 4    1  0.5069019E-005  0.1062138E+04  0.7818608E-02  0.9242901E-01
          2   -1    0    0  501    0  0.00000000000E+00  0.00000000000E+00  0.11956933596E+04  0.11956933596E+04  0.25500000000E-02 0.  1.
         -2   -1    0    0    0  501 -0.00000000000E+00 -0.00000000000E+00 -0.23587519783E+03  0.23587519784E+03  0.25500000000E-02 0. -1.
    5000001    1    1    2    0    0  0.29831378935E+03  0.35991847622E+03  0.68828089569E+03  0.85549051299E+03  0.19900000000E+03 0.  0.
   -5000001    1    1    2    0    0 -0.29831378935E+03 -0.35991847622E+03  0.27153726608E+03  0.57607804446E+03  0.19900000000E+03 0.  0.
<mgrwt>
<rscale>  0 0.10621382E+04</rscale>
<asrwt>0</asrwt>
<pdfrwt beam="1">  1        2 0.17081333E+00 0.10621382E+04</pdfrwt>
<pdfrwt beam="2">  1       -2 0.33696457E-01 0.10621382E+04</pdfrwt>
<totfact> 0.17578783E+02</totfact>
</mgrwt>
</event>
<event>
 4    1  0.5069019E-005  0.5873333E+03  0.7818608E-02  0.9932040E-01
          2   -1    0    0  501    0  0.00000000000E+00  0.00000000000E+00  0.14511260637E+04  0.14511260637E+04  0.25500000000E-02 0.  1.
         -2   -1    0    0    0  501 -0.00000000000E+00 -0.00000000000E+00 -0.59429772040E+02  0.59429772095E+02  0.25500000000E-02 0. -1.
    5000001    1    1    2    0    0  0.18541968619E+03  0.81503614284E+02  0.88858186061E+03  0.93284619428E+03  0.19900000000E+03 0.  0.
   -5000001    1    1    2    0    0 -0.18541968619E+03 -0.81503614284E+02  0.50311443101E+03  0.57770964148E+03  0.19900000000E+03 0.  0.
<mgrwt>
<rscale>  0 0.58733327E+03</rscale>
<asrwt>0</asrwt>
<pdfrwt beam="1">  1        2 0.20730374E+00 0.58733327E+03</pdfrwt>
<pdfrwt beam="2">  1       -2 0.84899669E-02 0.58733327E+03</pdfrwt>
<totfact> 0.14074111E+03</totfact>
</mgrwt>
</event>
<event>
 4    1  0.5069019E-005  0.5477190E+03  0.7818608E-02  0.1002023E+00
         -2   -1    0    0    0  501 -0.00000000000E+00  0.00000000000E+00  0.15752268973E+03  0.15752268975E+03  0.25500000000E-02 0. -1.
          2   -1    0    0  501    0  0.00000000000E+00 -0.00000000000E+00 -0.47611572774E+03  0.47611572775E+03  0.25500000000E-02 0.  1.
    5000001    1    1    2    0    0  0.36242340321E+01 -0.16608382795E+03 -0.57117810391E+02  0.26544381184E+03  0.19900000000E+03 0.  0.
   -5000001    1    1    2    0    0 -0.36242340321E+01  0.16608382795E+03 -0.26147522762E+03  0.36819460566E+03  0.19900000000E+03 0.  0.
<mgrwt>
<rscale>  0 0.54771902E+03</rscale>
<asrwt>0</asrwt>
<pdfrwt beam="1">  1        2 0.68016532E-01 0.54771902E+03</pdfrwt>
<pdfrwt beam="2">  1       -2 0.22503242E-01 0.54771902E+03</pdfrwt>
<totfact> 0.12298197E+03</totfact>
</mgrwt>
</event>
<event>
 4    1  0.5069019E-005  0.1063646E+04  0.7818608E-02  0.9241368E-01
         -2   -1    0    0    0  501 -0.00000000000E+00  0.00000000000E+00  0.29270909065E+03  0.29270909066E+03  0.25500000000E-02 0. -1.
          2   -1    0    0  501    0  0.00000000000E+00 -0.00000000000E+00 -0.96626928313E+03  0.96626928314E+03  0.25500000000E-02 0.  1.
    5000001    1    1    2    0    0  0.24454626535E+03 -0.26242896759E+03  0.63849660481E+02  0.41515011510E+03  0.19900000000E+03 0.  0.
   -5000001    1    1    2    0    0 -0.24454626535E+03  0.26242896759E+03 -0.73740985296E+03  0.84382825870E+03  0.19900000000E+03 0.  0.
<mgrwt>
<rscale>  0 0.10636462E+04</rscale>
<asrwt>0</asrwt>
<pdfrwt beam="1">  1        2 0.13803847E+00 0.10636462E+04</pdfrwt>
<pdfrwt beam="2">  1       -2 0.41815585E-01 0.10636462E+04</pdfrwt>
<totfact> 0.15878722E+02</totfact>
</mgrwt>
</event>
<event>
 4    1  0.5069019E-005  0.4970655E+03  0.7818608E-02  0.1014548E+00
          2   -1    0    0  501    0  0.00000000000E+00  0.00000000000E+00  0.19268627789E+04  0.19268627789E+04  0.25500000000E-02 0.  1.
         -2   -1    0    0    0  501 -0.00000000000E+00 -0.00000000000E+00 -0.32056531083E+02  0.32056531184E+02  0.25500000000E-02 0. -1.
    5000001    1    1    2    0    0 -0.13943380676E+03 -0.32486577685E+02  0.78633501602E+03  0.82366311173E+03  0.19900000000E+03 0.  0.
   -5000001    1    1    2    0    0  0.13943380676E+03  0.32486577685E+02  0.11084712318E+04  0.11352561984E+04  0.19900000000E+03 0.  0.
<mgrwt>
<rscale>  0 0.49706554E+03</rscale>
<asrwt>0</asrwt>
<pdfrwt beam="1">  1        2 0.27526615E+00 0.49706554E+03</pdfrwt>
<pdfrwt beam="2">  1       -2 0.45795038E-02 0.49706554E+03</pdfrwt>
<totfact> 0.21270006E+03</totfact>
</mgrwt>
</event>
<event>
 4    1  0.5069019E-005  0.4645498E+03  0.7818608E-02  0.1023470E+00
         -2   -1    0    0    0  501 -0.00000000000E+00  0.00000000000E+00  0.40295435007E+02  0.40295435087E+02  0.25500000000E-02 0. -1.
          2   -1    0    0  501    0  0.00000000000E+00 -0.00000000000E+00 -0.13389016844E+04  0.13389016844E+04  0.25500000000E-02 0.  1.
    5000001    1    1    2    0    0 -0.70602158446E+01 -0.85273769302E+02 -0.89821516193E+03  0.92396587573E+03  0.19900000000E+03 0.  0.
   -5000001    1    1    2    0    0  0.70602158446E+01  0.85273769302E+02 -0.40039108744E+03  0.45523124374E+03  0.19900000000E+03 0.  0.
<mgrwt>
<rscale>  0 0.46454979E+03</rscale>
<asrwt>0</asrwt>
<pdfrwt beam="1">  1        2 0.19127164E+00 0.46454979E+03</pdfrwt>
<pdfrwt beam="2">  1       -2 0.57564915E-02 0.46454979E+03</pdfrwt>
<totfact> 0.29836792E+03</totfact>
</mgrwt>
</event>
<event>
 4    1  0.5069019E-005  0.4954246E+03  0.7818608E-02  0.1014980E+00
         -2   -1    0    0    0  501 -0.00000000000E+00  0.00000000000E+00  0.21466461098E+02  0.21466461249E+02  0.25500000000E-02 0. -1.
          2   -1    0    0  501    0  0.00000000000E+00 -0.00000000000E+00 -0.28584766977E+04  0.28584766977E+04  0.25500000000E-02 0.  1.
    5000001    1    1    2    0    0 -0.50868893333E+02  0.10385040023E+02 -0.61586018678E+03  0.64929212457E+03  0.19900000000E+03 0.  0.
   -5000001    1    1    2    0    0  0.50868893333E+02 -0.10385040023E+02 -0.22211500498E+04  0.22306510344E+04  0.19900000000E+03 0.  0.
<mgrwt>
<rscale>  0 0.49542458E+03</rscale>
<asrwt>0</asrwt>
<pdfrwt beam="1">  1        2 0.40835357E+00 0.49542458E+03</pdfrwt>
<pdfrwt beam="2">  1       -2 0.30666391E-02 0.49542458E+03</pdfrwt>
<totfact> 0.13171759E+03</totfact>
</mgrwt>
</event>
<event>
 4    1  0.5069019E-005  0.4655828E+03  0.7818608E-02  0.1023174E+00
         -2   -1    0    0    0  501 -0.00000000000E+00  0.00000000000E+00  0.23221524546E+02  0.23221524686E+02  0.25500000000E-02 0. -1.
          2   -1    0    0  501    0  0.00000000000E+00 -0.00000000000E+00 -0.23336894326E+04  0.23336894326E+04  0.25500000000E-02 0.  1.
    5000001    1    1    2    0    0 -0.95996024386E+02  0.68250933256E+02 -0.12908237408E+04  0.13113734618E+04  0.19900000000E+03 0.  0.
   -5000001    1    1    2    0    0  0.95996024386E+02 -0.68250933256E+02 -0.10196441673E+04  0.10455374955E+04  0.19900000000E+03 0.  0.
<mgrwt>
<rscale>  0 0.46558276E+03</rscale>
<asrwt>0</asrwt>
<pdfrwt beam="1">  1        2 0.33338406E+00 0.46558276E+03</pdfrwt>
<pdfrwt beam="2">  1       -2 0.33173621E-02 0.46558276E+03</pdfrwt>
<totfact> 0.21824815E+03</totfact>
</mgrwt>
</event>
<event>
 4    1  0.5069019E-005  0.5334298E+03  0.7818608E-02  0.1005404E+00
          2   -1    0    0  501    0  0.00000000000E+00  0.00000000000E+00  0.26534492913E+03  0.26534492914E+03  0.25500000000E-02 0.  1.
         -2   -1    0    0    0  501 -0.00000000000E+00 -0.00000000000E+00 -0.26809191670E+03  0.26809191671E+03  0.25500000000E-02 0. -1.
    5000001    1    1    2    0    0 -0.12726660268E+03  0.74715790873E+02  0.97403283930E+02  0.26620976181E+03  0.19900000000E+03 0.  0.
   -5000001    1    1    2    0    0  0.12726660268E+03 -0.74715790873E+02 -0.10015027150E+03  0.26722708404E+03  0.19900000000E+03 0.  0.
<mgrwt>
<rscale>  0 0.53342977E+03</rscale>
<asrwt>0</asrwt>
<pdfrwt beam="1">  1        2 0.37906418E-01 0.53342977E+03</pdfrwt>
<pdfrwt beam="2">  1       -2 0.38298845E-01 0.53342977E+03</pdfrwt>
<totfact> 0.88332011E+02</totfact>
</mgrwt>
</event>
<event>
 4    1  0.5069019E-005  0.7109962E+03  0.7818608E-02  0.9698610E-01
         -2   -1    0    0    0  501 -0.00000000000E+00  0.00000000000E+00  0.79455556746E+02  0.79455556787E+02  0.25500000000E-02 0. -1.
          2   -1    0    0  501    0  0.00000000000E+00 -0.00000000000E+00 -0.15905610871E+04  0.15905610871E+04  0.25500000000E-02 0.  1.
    5000001    1    1    2    0    0  0.27928002859E+03  0.93082934931E+02 -0.78086685750E+03  0.85791364151E+03  0.19900000000E+03 0.  0.
   -5000001    1    1    2    0    0 -0.27928002859E+03 -0.93082934931E+02 -0.73023867282E+03  0.81210300235E+03  0.19900000000E+03 0.  0.
<mgrwt>
<rscale>  0 0.71099625E+03</rscale>
<asrwt>0</asrwt>
<pdfrwt beam="1">  1        2 0.22722299E+00 0.71099625E+03</pdfrwt>
<pdfrwt beam="2">  1       -2 0.11350795E-01 0.71099625E+03</pdfrwt>
<totfact> 0.73970054E+02</totfact>
</mgrwt>
</event>
<event>
 4    1  0.5069019E-005  0.4501152E+03  0.7818608E-02  0.1027688E+00
          2   -1    0    0  501    0  0.00000000000E+00  0.00000000000E+00  0.33410147059E+03  0.33410147060E+03  0.25500000000E-02 0.  1.
         -2   -1    0    0    0  501 -0.00000000000E+00 -0.00000000000E+00 -0.15160342732E+03  0.15160342735E+03  0.25500000000E-02 0. -1.
    5000001    1    1    2    0    0 -0.55737954582E+02  0.63802084187E+02  0.24099234998E+02  0.21762168701E+03  0.19900000000E+03 0.  0.
   -5000001    1    1    2    0    0  0.55737954582E+02 -0.63802084187E+02  0.15839880827E+03  0.26808321094E+03  0.19900000000E+03 0.  0.
<mgrwt>
<rscale>  0 0.45011522E+03</rscale>
<asrwt>0</asrwt>
<pdfrwt beam="1">  1        2 0.47728782E-01 0.45011522E+03</pdfrwt>
<pdfrwt beam="2">  1       -2 0.21657632E-01 0.45011522E+03</pdfrwt>
<totfact> 0.19454150E+03</totfact>
</mgrwt>
</event>
<event>
 4    1  0.5069019E-005  0.1037391E+04  0.7818608E-02  0.9268460E-01
         -2   -1    0    0    0  501 -0.00000000000E+00  0.00000000000E+00  0.41414057067E+04  0.41414057067E+04  0.25500000000E-02 0. -1.
          2   -1    0    0  501    0  0.00000000000E+00 -0.00000000000E+00 -0.64964629404E+02  0.64964629454E+02  0.25500000000E-02 0.  1.
    5000001    1    1    2    0    0 -0.43903273886E+03 -0.18107394424E+01  0.12615370025E+04  0.13504923669E+04  0.19900000000E+03 0.  0.
   -5000001    1    1    2    0    0  0.43903273886E+03  0.18107394424E+01  0.28149040748E+04  0.28558779692E+04  0.19900000000E+03 0.  0.
<mgrwt>
<rscale>  0 0.10373907E+04</rscale>
<asrwt>0</asrwt>
<pdfrwt beam="1">  1        2 0.92806614E-02 0.10373907E+04</pdfrwt>
<pdfrwt beam="2">  1       -2 0.59162938E+00 0.10373907E+04</pdfrwt>
<totfact> 0.39969670E-01</totfact>
</mgrwt>
</event>
<event>
 4    1  0.5069019E-005  0.7685002E+03  0.7818608E-02  0.9606765E-01
         -2   -1    0    0    0  501 -0.00000000000E+00  0.00000000000E+00  0.15468609253E+04  0.15468609253E+04  0.25500000000E-02 0. -1.
          2   -1    0    0  501    0  0.00000000000E+00 -0.00000000000E+00 -0.95450175832E+02  0.95450175866E+02  0.25500000000E-02 0.  1.
    5000001    1    1    2    0    0 -0.14198572797E+03  0.22655662846E+02  0.94017783880E+02  0.26289459806E+03  0.19900000000E+03 0.  0.
   -5000001    1    1    2    0    0  0.14198572797E+03 -0.22655662846E+02  0.13573929656E+04  0.13794165031E+04  0.19900000000E+03 0.  0.
<mgrwt>
<rscale>  0 0.76850022E+03</rscale>
<asrwt>0</asrwt>
<pdfrwt beam="1">  1        2 0.13635740E-01 0.76850022E+03</pdfrwt>
<pdfrwt beam="2">  1       -2 0.22098012E+00 0.76850022E+03</pdfrwt>
<totfact> 0.44805047E+01</totfact>
</mgrwt>
</event>
<event>
 4    1  0.5069019E-005  0.6185789E+03  0.7818608E-02  0.9867593E-01
         -2   -1    0    0    0  501 -0.00000000000E+00  0.00000000000E+00  0.76632383854E+02  0.76632383896E+02  0.25500000000E-02 0. -1.
          2   -1    0    0  501    0  0.00000000000E+00 -0.00000000000E+00 -0.12482969285E+04  0.12482969285E+04  0.25500000000E-02 0.  1.
    5000001    1    1    2    0    0  0.61367604268E+02 -0.18586078043E+03 -0.87118469488E+03  0.91480816850E+03  0.19900000000E+03 0.  0.
   -5000001    1    1    2    0    0 -0.61367604268E+02  0.18586078043E+03 -0.30047984973E+03  0.41012114387E+03  0.19900000000E+03 0.  0.
<mgrwt>
<rscale>  0 0.61857892E+03</rscale>
<asrwt>0</asrwt>
<pdfrwt beam="1">  1        2 0.17832812E+00 0.61857892E+03</pdfrwt>
<pdfrwt beam="2">  1       -2 0.10947484E-01 0.61857892E+03</pdfrwt>
<totfact> 0.11983584E+03</totfact>
</mgrwt>
</event>
<event>
 4    1  0.5069019E-005  0.5600675E+03  0.7818608E-02  0.9991902E-01
          2   -1    0    0  501    0  0.00000000000E+00  0.00000000000E+00  0.19831451198E+03  0.19831451200E+03  0.25500000000E-02 0.  1.
         -2   -1    0    0    0  501 -0.00000000000E+00 -0.00000000000E+00 -0.39542688473E+03  0.39542688473E+03  0.25500000000E-02 0. -1.
    5000001    1    1    2    0    0 -0.87326831523E+02 -0.11183592537E+03 -0.24346652010E+03  0.34497854443E+03  0.19900000000E+03 0.  0.
   -5000001    1    1    2    0    0  0.87326831523E+02  0.11183592537E+03  0.46354147350E+02  0.24876285230E+03  0.19900000000E+03 0.  0.
<mgrwt>
<rscale>  0 0.56006746E+03</rscale>
<asrwt>0</asrwt>
<pdfrwt beam="1">  1        2 0.28330645E-01 0.56006746E+03</pdfrwt>
<pdfrwt beam="2">  1       -2 0.56489555E-01 0.56006746E+03</pdfrwt>
<totfact> 0.56261974E+02</totfact>
</mgrwt>
</event>
<event>
 4    1  0.5069019E-005  0.6488077E+03  0.7818608E-02  0.9809019E-01
         -2   -1    0    0    0  501 -0.00000000000E+00  0.00000000000E+00  0.16336547098E+03  0.16336547100E+03  0.25500000000E-02 0. -1.
          2   -1    0    0  501    0  0.00000000000E+00 -0.00000000000E+00 -0.64418661251E+03  0.64418661251E+03  0.25500000000E-02 0.  1.
    5000001    1    1    2    0    0  0.20603554293E+03 -0.11673471994E+03 -0.11871758248E+03  0.33131933867E+03  0.19900000000E+03 0.  0.
   -5000001    1    1    2    0    0 -0.20603554293E+03  0.11673471994E+03 -0.36210355905E+03  0.47623274485E+03  0.19900000000E+03 0.  0.
<mgrwt>
<rscale>  0 0.64880767E+03</rscale>
<asrwt>0</asrwt>
<pdfrwt beam="1">  1        2 0.92026658E-01 0.64880767E+03</pdfrwt>
<pdfrwt beam="2">  1       -2 0.23337925E-01 0.64880767E+03</pdfrwt>
<totfact> 0.81101337E+02</totfact>
</mgrwt>
</event>
<event>
 4    1  0.5069019E-005  0.7129037E+03  0.7818608E-02  0.9695416E-01
          2   -1    0    0  501    0  0.00000000000E+00  0.00000000000E+00  0.12696985594E+03  0.12696985596E+03  0.25500000000E-02 0.  1.
         -2   -1    0    0    0  501 -0.00000000000E+00 -0.00000000000E+00 -0.10006937107E+04  0.10006937107E+04  0.25500000000E-02 0. -1.
    5000001    1    1    2    0    0 -0.28397066082E+03  0.63998551080E+02 -0.35433881348E+03  0.49989213385E+03  0.19900000000E+03 0.  0.
   -5000001    1    1    2    0    0  0.28397066082E+03 -0.63998551080E+02 -0.51938504124E+03  0.62777143278E+03  0.19900000000E+03 0.  0.
<mgrwt>
<rscale>  0 0.71290374E+03</rscale>
<asrwt>0</asrwt>
<pdfrwt beam="1">  1        2 0.18138551E-01 0.71290374E+03</pdfrwt>
<pdfrwt beam="2">  1       -2 0.14295624E+00 0.71290374E+03</pdfrwt>
<totfact> 0.10980589E+02</totfact>
</mgrwt>
</event>
<event>
 4    1  0.5069019E-005  0.9214247E+03  0.7818608E-02  0.9399189E-01
         -2   -1    0    0    0  501 -0.00000000000E+00  0.00000000000E+00  0.59560842617E+03  0.59560842618E+03  0.25500000000E-02 0. -1.
          2   -1    0    0  501    0  0.00000000000E+00 -0.00000000000E+00 -0.35636816853E+03  0.35636816854E+03  0.25500000000E-02 0.  1.
    5000001    1    1    2    0    0  0.16692198870E+03 -0.36423658866E+03  0.23337838948E+03  0.50457676869E+03  0.19900000000E+03 0.  0.
   -5000001    1    1    2    0    0 -0.16692198870E+03  0.36423658866E+03  0.58618681684E+01  0.44739982603E+03  0.19900000000E+03 0.  0.
<mgrwt>
<rscale>  0 0.92142473E+03</rscale>
<asrwt>0</asrwt>
<pdfrwt beam="1">  1        2 0.50909739E-01 0.92142473E+03</pdfrwt>
<pdfrwt beam="2">  1       -2 0.85086918E-01 0.92142473E+03</pdfrwt>
<totfact> 0.11866369E+02</totfact>
</mgrwt>
</event>
<event>
 4    1  0.5069019E-005  0.5170437E+03  0.7818608E-02  0.1009424E+00
         -2   -1    0    0    0  501 -0.00000000000E+00  0.00000000000E+00  0.68757874760E+02  0.68757874807E+02  0.25500000000E-02 0. -1.
          2   -1    0    0  501    0  0.00000000000E+00 -0.00000000000E+00 -0.97201301924E+03  0.97201301924E+03  0.25500000000E-02 0.  1.
    5000001    1    1    2    0    0  0.13869147193E+03  0.72937333823E+02 -0.55578304859E+03  0.61077899125E+03  0.19900000000E+03 0.  0.
   -5000001    1    1    2    0    0 -0.13869147193E+03 -0.72937333823E+02 -0.34747209589E+03  0.42999190280E+03  0.19900000000E+03 0.  0.
<mgrwt>
<rscale>  0 0.51704371E+03</rscale>
<asrwt>0</asrwt>
<pdfrwt beam="1">  1        2 0.13885899E+00 0.51704371E+03</pdfrwt>
<pdfrwt beam="2">  1       -2 0.98225541E-02 0.51704371E+03</pdfrwt>
<totfact> 0.20706954E+03</totfact>
</mgrwt>
</event>
<event>
 4    1  0.5069019E-005  0.1313987E+04  0.7818608E-02  0.9018546E-01
          2   -1    0    0  501    0  0.00000000000E+00  0.00000000000E+00  0.75498191671E+03  0.75498191672E+03  0.25500000000E-02 0.  1.
         -2   -1    0    0    0  501 -0.00000000000E+00 -0.00000000000E+00 -0.57172330020E+03  0.57172330020E+03  0.25500000000E-02 0. -1.
    5000001    1    1    2    0    0 -0.20832352511E+03  0.16290580255E+03 -0.48140476252E+03  0.58419905597E+03  0.19900000000E+03 0.  0.
   -5000001    1    1    2    0    0  0.20832352511E+03 -0.16290580255E+03  0.66466337904E+03  0.74250616095E+03  0.19900000000E+03 0.  0.
<mgrwt>
<rscale>  0 0.13139874E+04</rscale>
<asrwt>0</asrwt>
<pdfrwt beam="1">  1        2 0.10785456E+00 0.13139874E+04</pdfrwt>
<pdfrwt beam="2">  1       -2 0.81674757E-01 0.13139874E+04</pdfrwt>
<totfact> 0.52969942E+01</totfact>
</mgrwt>
</event>
<event>
 4    1  0.5069019E-005  0.6506742E+03  0.7818608E-02  0.9805515E-01
         -2   -1    0    0    0  501 -0.00000000000E+00  0.00000000000E+00  0.34854803529E+03  0.34854803530E+03  0.25500000000E-02 0. -1.
          2   -1    0    0  501    0  0.00000000000E+00 -0.00000000000E+00 -0.30367181038E+03  0.30367181039E+03  0.25500000000E-02 0.  1.
    5000001    1    1    2    0    0 -0.15794987774E+02  0.25470956397E+03  0.55935595995E+02  0.32841472945E+03  0.19900000000E+03 0.  0.
   -5000001    1    1    2    0    0  0.15794987774E+02 -0.25470956397E+03 -0.11059371086E+02  0.32380511624E+03  0.19900000000E+03 0.  0.
<mgrwt>
<rscale>  0 0.65067415E+03</rscale>
<asrwt>0</asrwt>
<pdfrwt beam="1">  1        2 0.43381687E-01 0.65067415E+03</pdfrwt>
<pdfrwt beam="2">  1       -2 0.49792576E-01 0.65067415E+03</pdfrwt>
<totfact> 0.45268012E+02</totfact>
</mgrwt>
</event>
<event>
 4    1  0.5069019E-005  0.4135185E+03  0.7818608E-02  0.1039197E+00
         -2   -1    0    0    0  501 -0.00000000000E+00  0.00000000000E+00  0.17614334236E+02  0.17614334420E+02  0.25500000000E-02 0. -1.
          2   -1    0    0  501    0  0.00000000000E+00 -0.00000000000E+00 -0.24269653586E+04  0.24269653586E+04  0.25500000000E-02 0.  1.
    5000001    1    1    2    0    0 -0.18815065063E+02  0.47733569279E+02 -0.10704042134E+04  0.10899535221E+04  0.19900000000E+03 0.  0.
   -5000001    1    1    2    0    0  0.18815065063E+02 -0.47733569279E+02 -0.13389468110E+04  0.13546261709E+04  0.19900000000E+03 0.  0.
<mgrwt>
<rscale>  0 0.41351846E+03</rscale>
<asrwt>0</asrwt>
<pdfrwt beam="1">  1        2 0.34670912E+00 0.41351846E+03</pdfrwt>
<pdfrwt beam="2">  1       -2 0.25163350E-02 0.41351846E+03</pdfrwt>
<totfact> 0.29785339E+03</totfact>
</mgrwt>
</event>
<event>
 4    1  0.5069019E-005  0.4850461E+03  0.7818608E-02  0.1017757E+00
          2   -1    0    0  501    0  0.00000000000E+00  0.00000000000E+00  0.10811125995E+03  0.10811125998E+03  0.25500000000E-02 0. -1.
         -2   -1    0    0    0  501 -0.00000000000E+00 -0.00000000000E+00 -0.54404544563E+03  0.54404544564E+03  0.25500000000E-02 0.  1.
    5000001    1    1    2    0    0  0.68068236329E+02  0.11962558168E+03 -0.24017716705E+03  0.34092467813E+03  0.19900000000E+03 0.  0.
   -5000001    1    1    2    0    0 -0.68068236329E+02 -0.11962558168E+03 -0.19575701863E+03  0.31123202749E+03  0.19900000000E+03 0.  0.
<mgrwt>
<rscale>  0 0.48504614E+03</rscale>
<asrwt>0</asrwt>
<pdfrwt beam="1">  1        2 0.15444466E-01 0.48504614E+03</pdfrwt>
<pdfrwt beam="2">  1       -2 0.77720776E-01 0.48504614E+03</pdfrwt>
<totfact> 0.57514688E+02</totfact>
</mgrwt>
</event>
<event>
 4    1  0.5069019E-005  0.8991089E+03  0.7818608E-02  0.9426696E-01
         -2   -1    0    0    0  501 -0.00000000000E+00  0.00000000000E+00  0.61297127854E+02  0.61297127907E+02  0.25500000000E-02 0. -1.
          2   -1    0    0  501    0  0.00000000000E+00 -0.00000000000E+00 -0.32970416804E+04  0.32970416804E+04  0.25500000000E-02 0.  1.
    5000001    1    1    2    0    0 -0.94572103919E+02  0.36876515025E+03 -0.11228147418E+04  0.12021836646E+04  0.19900000000E+03 0.  0.
   -5000001    1    1    2    0    0  0.94572103919E+02 -0.36876515025E+03 -0.21129298107E+04  0.21561551437E+04  0.19900000000E+03 0.  0.
<mgrwt>
<rscale>  0 0.89910886E+03</rscale>
<asrwt>0</asrwt>
<pdfrwt beam="1">  1        2 0.47100584E+00 0.89910886E+03</pdfrwt>
<pdfrwt beam="2">  1       -2 0.87567346E-02 0.89910886E+03</pdfrwt>
<totfact> 0.14096487E+02</totfact>
</mgrwt>
</event>
<event>
 4    1  0.5069019E-005  0.6567575E+03  0.7818608E-02  0.9794181E-01
          2   -1    0    0  501    0  0.00000000000E+00  0.00000000000E+00  0.15956146575E+04  0.15956146575E+04  0.25500000000E-02 0.  1.
         -2   -1    0    0    0  501 -0.00000000000E+00 -0.00000000000E+00 -0.67580609119E+02  0.67580609167E+02  0.25500000000E-02 0. -1.
    5000001    1    1    2    0    0 -0.23175433704E+03 -0.70892295680E+02  0.51724016850E+03  0.60487534437E+03  0.19900000000E+03 0.  0.
   -5000001    1    1    2    0    0  0.23175433704E+03  0.70892295680E+02  0.10107938799E+04  0.10583199223E+04  0.19900000000E+03 0.  0.
<mgrwt>
<rscale>  0 0.65675752E+03</rscale>
<asrwt>0</asrwt>
<pdfrwt beam="1">  1        2 0.22794495E+00 0.65675752E+03</pdfrwt>
<pdfrwt beam="2">  1       -2 0.96543727E-02 0.65675752E+03</pdfrwt>
<totfact> 0.95992050E+02</totfact>
</mgrwt>
</event>
<event>
 4    1  0.5069019E-005  0.7512705E+03  0.7818608E-02  0.9633359E-01
          2   -1    0    0  501    0  0.00000000000E+00  0.00000000000E+00  0.16740855165E+04  0.16740855165E+04  0.25500000000E-02 0.  1.
         -2   -1    0    0    0  501 -0.00000000000E+00 -0.00000000000E+00 -0.84285927269E+02  0.84285927308E+02  0.25500000000E-02 0. -1.
    5000001    1    1    2    0    0 -0.22973100325E+03 -0.20955288708E+03  0.63253877682E+03  0.73238995796E+03  0.19900000000E+03 0.  0.
   -5000001    1    1    2    0    0  0.22973100325E+03  0.20955288708E+03  0.95726081244E+03  0.10259814859E+04  0.19900000000E+03 0.  0.
<mgrwt>
<rscale>  0 0.75127052E+03</rscale>
<asrwt>0</asrwt>
<pdfrwt beam="1">  1        2 0.23915509E+00 0.75127052E+03</pdfrwt>
<pdfrwt beam="2">  1       -2 0.12040846E-01 0.75127052E+03</pdfrwt>
<totfact> 0.60651625E+02</totfact>
</mgrwt>
</event>
<event>
 4    1  0.5069019E-005  0.5576997E+03  0.7818608E-02  0.9997273E-01
          2   -1    0    0  501    0  0.00000000000E+00  0.00000000000E+00  0.62293067160E+03  0.62293067161E+03  0.25500000000E-02 0.  1.
         -2   -1    0    0    0  501 -0.00000000000E+00 -0.00000000000E+00 -0.12482488267E+03  0.12482488270E+03  0.25500000000E-02 0. -1.
    5000001    1    1    2    0    0  0.17290298675E+03  0.90094996935E+02  0.26512536427E+03  0.38458420415E+03  0.19900000000E+03 0.  0.
   -5000001    1    1    2    0    0 -0.17290298675E+03 -0.90094996935E+02  0.23298042466E+03  0.36317135016E+03  0.19900000000E+03 0.  0.
<mgrwt>
<rscale>  0 0.55769973E+03</rscale>
<asrwt>0</asrwt>
<pdfrwt beam="1">  1        2 0.88990096E-01 0.55769973E+03</pdfrwt>
<pdfrwt beam="2">  1       -2 0.17832126E-01 0.55769973E+03</pdfrwt>
<totfact> 0.13521731E+03</totfact>
</mgrwt>
</event>
<event>
 4    1  0.5069019E-005  0.8812599E+03  0.7818608E-02  0.9449315E-01
          2   -1    0    0  501    0  0.00000000000E+00  0.00000000000E+00  0.52472582922E+03  0.52472582922E+03  0.25500000000E-02 0.  1.
         -2   -1    0    0    0  501 -0.00000000000E+00 -0.00000000000E+00 -0.37001183929E+03  0.37001183929E+03  0.25500000000E-02 0. -1.
    5000001    1    1    2    0    0 -0.77221176245E+02 -0.37953808131E+03  0.89356599751E+01  0.43553772654E+03  0.19900000000E+03 0.  0.
   -5000001    1    1    2    0    0  0.77221176245E+02  0.37953808131E+03  0.14577832996E+03  0.45919994197E+03  0.19900000000E+03 0.  0.
<mgrwt>
<rscale>  0 0.88125994E+03</rscale>
<asrwt>0</asrwt>
<pdfrwt beam="1">  1        2 0.74960832E-01 0.88125994E+03</pdfrwt>
<pdfrwt beam="2">  1       -2 0.52858834E-01 0.88125994E+03</pdfrwt>
<totfact> 0.21519712E+02</totfact>
</mgrwt>
</event>
<event>
 4    1  0.5069019E-005  0.7479689E+03  0.7818608E-02  0.9638542E-01
         -2   -1    0    0    0  501 -0.00000000000E+00  0.00000000000E+00  0.96059392076E+02  0.96059392110E+02  0.25500000000E-02 0. -1.
          2   -1    0    0  501    0  0.00000000000E+00 -0.00000000000E+00 -0.14560199015E+04  0.14560199015E+04  0.25500000000E-02 0.  1.
    5000001    1    1    2    0    0  0.27459619151E+03  0.15217667566E+03 -0.59435856467E+03  0.70101634247E+03  0.19900000000E+03 0.  0.
   -5000001    1    1    2    0    0 -0.27459619151E+03 -0.15217667566E+03 -0.76560194478E+03  0.85106295117E+03  0.19900000000E+03 0.  0.
<mgrwt>
<rscale>  0 0.74796895E+03</rscale>
<asrwt>0</asrwt>
<pdfrwt beam="1">  1        2 0.20800283E+00 0.74796895E+03</pdfrwt>
<pdfrwt beam="2">  1       -2 0.13722771E-01 0.74796895E+03</pdfrwt>
<totfact> 0.63378755E+02</totfact>
</mgrwt>
</event>
<event>
 4    1  0.5069019E-005  0.6913105E+03  0.7818608E-02  0.9732209E-01
          2   -1    0    0  501    0  0.00000000000E+00  0.00000000000E+00  0.28847820190E+04  0.28847820190E+04  0.25500000000E-02 0.  1.
         -2   -1    0    0    0  501 -0.00000000000E+00 -0.00000000000E+00 -0.41416493526E+02  0.41416493605E+02  0.25500000000E-02 0. -1.
    5000001    1    1    2    0    0  0.63088742318E+02 -0.26760425452E+03  0.16987416311E+04  0.17323153165E+04  0.19900000000E+03 0.  0.
   -5000001    1    1    2    0    0 -0.63088742318E+02  0.26760425452E+03  0.11446238943E+04  0.11938831961E+04  0.19900000000E+03 0.  0.
<mgrwt>
<rscale>  0 0.69131051E+03</rscale>
<asrwt>0</asrwt>
<pdfrwt beam="1">  1        2 0.41211163E+00 0.69131051E+03</pdfrwt>
<pdfrwt beam="2">  1       -2 0.59166431E-02 0.69131051E+03</pdfrwt>
<totfact> 0.45545153E+02</totfact>
</mgrwt>
</event>
<event>
 4    1  0.5069019E-005  0.9945921E+03  0.7818608E-02  0.9314496E-01
         -2   -1    0    0    0  501 -0.00000000000E+00  0.00000000000E+00  0.21493336876E+03  0.21493336877E+03  0.25500000000E-02 0. -1.
          2   -1    0    0  501    0  0.00000000000E+00 -0.00000000000E+00 -0.11506046833E+04  0.11506046833E+04  0.25500000000E-02 0.  1.
    5000001    1    1    2    0    0 -0.77219245136E+02  0.39096716890E+03 -0.16427667839E+03  0.47476938195E+03  0.19900000000E+03 0.  0.
   -5000001    1    1    2    0    0  0.77219245136E+02 -0.39096716890E+03 -0.77139463613E+03  0.89076867010E+03  0.19900000000E+03 0.  0.
<mgrwt>
<rscale>  0 0.99459206E+03</rscale>
<asrwt>0</asrwt>
<pdfrwt beam="1">  1        2 0.16437209E+00 0.99459206E+03</pdfrwt>
<pdfrwt beam="2">  1       -2 0.30704767E-01 0.99459206E+03</pdfrwt>
<totfact> 0.22310927E+02</totfact>
</mgrwt>
</event>
<event>
 4    1  0.5069019E-005  0.5177965E+03  0.7818608E-02  0.1009235E+00
         -2   -1    0    0    0  501 -0.00000000000E+00  0.00000000000E+00  0.21157016424E+03  0.21157016425E+03  0.25500000000E-02 0. -1.
          2   -1    0    0  501    0  0.00000000000E+00 -0.00000000000E+00 -0.31681353298E+03  0.31681353299E+03  0.25500000000E-02 0.  1.
    5000001    1    1    2    0    0 -0.85280435002E+02 -0.17653360581E+02 -0.19636672969E+03  0.29282296061E+03  0.19900000000E+03 0.  0.
   -5000001    1    1    2    0    0  0.85280435002E+02  0.17653360581E+02  0.91123360941E+02  0.23556073663E+03  0.19900000000E+03 0.  0.
<mgrwt>
<rscale>  0 0.51779645E+03</rscale>
<asrwt>0</asrwt>
<pdfrwt beam="1">  1        2 0.45259076E-01 0.51779645E+03</pdfrwt>
<pdfrwt beam="2">  1       -2 0.30224309E-01 0.51779645E+03</pdfrwt>
<totfact> 0.11346895E+03</totfact>
</mgrwt>
</event>
<event>
 4    1  0.5069019E-005  0.5317288E+03  0.7818608E-02  0.1005814E+00
          2   -1    0    0  501    0  0.00000000000E+00  0.00000000000E+00  0.25356658715E+03  0.25356658716E+03  0.25500000000E-02 0.  1.
         -2   -1    0    0    0  501 -0.00000000000E+00 -0.00000000000E+00 -0.27875863353E+03  0.27875863354E+03  0.25500000000E-02 0. -1.
    5000001    1    1    2    0    0 -0.10305245303E+03 -0.10298812000E+03  0.86795318138E+02  0.26145896081E+03  0.19900000000E+03 0.  0.
   -5000001    1    1    2    0    0  0.10305245303E+03  0.10298812000E+03 -0.11198736451E+03  0.27086625989E+03  0.19900000000E+03 0.  0.
<mgrwt>
<rscale>  0 0.53172879E+03</rscale>
<asrwt>0</asrwt>
<pdfrwt beam="1">  1        2 0.36223798E-01 0.53172879E+03</pdfrwt>
<pdfrwt beam="2">  1       -2 0.39822662E-01 0.53172879E+03</pdfrwt>
<totfact> 0.86150874E+02</totfact>
</mgrwt>
</event>
<event>
 4    1  0.5069019E-005  0.6206141E+03  0.7818608E-02  0.9863538E-01
          2   -1    0    0  501    0  0.00000000000E+00  0.00000000000E+00  0.38559302663E+03  0.38559302664E+03  0.25500000000E-02 0.  1.
         -2   -1    0    0    0  501 -0.00000000000E+00 -0.00000000000E+00 -0.24972046208E+03  0.24972046210E+03  0.25500000000E-02 0. -1.
    5000001    1    1    2    0    0  0.19259873061E+03  0.10736827983E+03 -0.24008945834E+02  0.29799269794E+03  0.19900000000E+03 0.  0.
   -5000001    1    1    2    0    0 -0.19259873061E+03 -0.10736827983E+03  0.15988151038E+03  0.33732079080E+03  0.19900000000E+03 0.  0.
<mgrwt>
<rscale>  0 0.62061411E+03</rscale>
<asrwt>0</asrwt>
<pdfrwt beam="1">  1        2 0.55084717E-01 0.62061411E+03</pdfrwt>
<pdfrwt beam="2">  1       -2 0.35674352E-01 0.62061411E+03</pdfrwt>
<totfact> 0.66905647E+02</totfact>
</mgrwt>
</event>
<event>
 4    1  0.5069019E-005  0.4776867E+03  0.7818608E-02  0.1019773E+00
          2   -1    0    0  501    0  0.00000000000E+00  0.00000000000E+00  0.58611267779E+03  0.58611267780E+03  0.25500000000E-02 0.  1.
         -2   -1    0    0    0  501 -0.00000000000E+00 -0.00000000000E+00 -0.97329656842E+02  0.97329656875E+02  0.25500000000E-02 0. -1.
    5000001    1    1    2    0    0 -0.81422434736E+02 -0.10115475740E+03  0.20983854285E+03  0.31700964005E+03  0.19900000000E+03 0.  0.
   -5000001    1    1    2    0    0  0.81422434736E+02  0.10115475740E+03  0.27894447811E+03  0.36643269462E+03  0.19900000000E+03 0.  0.
<mgrwt>
<rscale>  0 0.47768670E+03</rscale>
<asrwt>0</asrwt>
<pdfrwt beam="1">  1        2 0.83730383E-01 0.47768670E+03</pdfrwt>
<pdfrwt beam="2">  1       -2 0.13904237E-01 0.47768670E+03</pdfrwt>
<totfact> 0.22092280E+03</totfact>
</mgrwt>
</event>
<event>
 4    1  0.5069019E-005  0.5304818E+03  0.7818608E-02  0.1006115E+00
         -2   -1    0    0    0  501 -0.00000000000E+00  0.00000000000E+00  0.33727266451E+03  0.33727266452E+03  0.25500000000E-02 0. -1.
          2   -1    0    0  501    0  0.00000000000E+00 -0.00000000000E+00 -0.20859305530E+03  0.20859305531E+03  0.25500000000E-02 0.  1.
    5000001    1    1    2    0    0 -0.14454591221E+03  0.90378515165E+02  0.22038786200E+02  0.26296103293E+03  0.19900000000E+03 0.  0.
   -5000001    1    1    2    0    0  0.14454591221E+03 -0.90378515165E+02  0.10664082302E+03  0.28290468691E+03  0.19900000000E+03 0.  0.
<mgrwt>
<rscale>  0 0.53048180E+03</rscale>
<asrwt>0</asrwt>
<pdfrwt beam="1">  1        2 0.29799008E-01 0.53048180E+03</pdfrwt>
<pdfrwt beam="2">  1       -2 0.48181809E-01 0.53048180E+03</pdfrwt>
<totfact> 0.73556357E+02</totfact>
</mgrwt>
</event>
<event>
 4    1  0.5069019E-005  0.4895700E+03  0.7818608E-02  0.1016538E+00
          2   -1    0    0  501    0  0.00000000000E+00  0.00000000000E+00  0.30611689002E+04  0.30611689002E+04  0.25500000000E-02 0.  1.
         -2   -1    0    0    0  501 -0.00000000000E+00 -0.00000000000E+00 -0.19574126465E+02  0.19574126631E+02  0.25500000000E-02 0. -1.
    5000001    1    1    2    0    0  0.11487786718E+03 -0.13637722985E+02  0.20448667585E+04  0.20577813227E+04  0.19900000000E+03 0.  0.
   -5000001    1    1    2    0    0 -0.11487786718E+03  0.13637722985E+02  0.99672801519E+03  0.10229617041E+04  0.19900000000E+03 0.  0.
<mgrwt>
<rscale>  0 0.48957005E+03</rscale>
<asrwt>0</asrwt>
<pdfrwt beam="1">  1        2 0.43731004E+00 0.48957005E+03</pdfrwt>
<pdfrwt beam="2">  1       -2 0.27963026E-02 0.48957005E+03</pdfrwt>
<totfact> 0.11789287E+03</totfact>
</mgrwt>
</event>
<event>
 4    1  0.5069019E-005  0.9602612E+03  0.7818608E-02  0.9353237E-01
          2   -1    0    0  501    0  0.00000000000E+00  0.00000000000E+00  0.19980257465E+04  0.19980257465E+04  0.25500000000E-02 0.  1.
         -2   -1    0    0    0  501 -0.00000000000E+00 -0.00000000000E+00 -0.11537658528E+03  0.11537658531E+03  0.25500000000E-02 0. -1.
    5000001    1    1    2    0    0 -0.43076305481E+03  0.18831665221E+02  0.10971503791E+04  0.11955130260E+04  0.19900000000E+03 0.  0.
   -5000001    1    1    2    0    0  0.43076305481E+03 -0.18831665221E+02  0.78549878215E+03  0.91788930583E+03  0.19900000000E+03 0.  0.
<mgrwt>
<rscale>  0 0.96026119E+03</rscale>
<asrwt>0</asrwt>
<pdfrwt beam="1">  1        2 0.28543222E+00 0.96026119E+03</pdfrwt>
<pdfrwt beam="2">  1       -2 0.16482371E-01 0.96026119E+03</pdfrwt>
<totfact> 0.24116923E+02</totfact>
</mgrwt>
</event>
<event>
 4    1  0.5069019E-005  0.9690494E+03  0.7818608E-02  0.9343158E-01
         -2   -1    0    0    0  501 -0.00000000000E+00  0.00000000000E+00  0.17334932675E+03  0.17334932677E+03  0.25500000000E-02 0. -1.
          2   -1    0    0  501    0  0.00000000000E+00 -0.00000000000E+00 -0.13542839181E+04  0.13542839181E+04  0.25500000000E-02 0.  1.
    5000001    1    1    2    0    0 -0.37910522489E+03 -0.19552582257E+03 -0.77166757844E+03  0.90389322956E+03  0.19900000000E+03 0.  0.
   -5000001    1    1    2    0    0  0.37910522489E+03  0.19552582257E+03 -0.40926701288E+03  0.62374001528E+03  0.19900000000E+03 0.  0.
<mgrwt>
<rscale>  0 0.96904944E+03</rscale>
<asrwt>0</asrwt>
<pdfrwt beam="1">  1        2 0.19346913E+00 0.96904944E+03</pdfrwt>
<pdfrwt beam="2">  1       -2 0.24764190E-01 0.96904944E+03</pdfrwt>
<totfact> 0.25493701E+02</totfact>
</mgrwt>
</event>
<event>
 4    1  0.5069019E-005  0.5746996E+03  0.7818608E-02  0.9959333E-01
          2   -1    0    0  501    0  0.00000000000E+00  0.00000000000E+00  0.41590415544E+03  0.41590415544E+03  0.25500000000E-02 0.  1.
         -2   -1    0    0    0  501 -0.00000000000E+00 -0.00000000000E+00 -0.19853106315E+03  0.19853106316E+03  0.25500000000E-02 0. -1.
    5000001    1    1    2    0    0 -0.84418693979E+02  0.18612526802E+03  0.71654053164E+02  0.29411636238E+03  0.19900000000E+03 0.  0.
   -5000001    1    1    2    0    0  0.84418693979E+02 -0.18612526802E+03  0.14571903913E+03  0.32031885622E+03  0.19900000000E+03 0.  0.
<mgrwt>
<rscale>  0 0.57469955E+03</rscale>
<asrwt>0</asrwt>
<pdfrwt beam="1">  1        2 0.59414879E-01 0.57469955E+03</pdfrwt>
<pdfrwt beam="2">  1       -2 0.28361580E-01 0.57469955E+03</pdfrwt>
<totfact> 0.94404626E+02</totfact>
</mgrwt>
</event>
<event>
 4    1  0.5069019E-005  0.6636802E+03  0.7818608E-02  0.9781443E-01
          2   -1    0    0  501    0  0.00000000000E+00  0.00000000000E+00  0.25077170133E+04  0.25077170133E+04  0.25500000000E-02 0.  1.
         -2   -1    0    0    0  501 -0.00000000000E+00 -0.00000000000E+00 -0.43911590584E+02  0.43911590658E+02  0.25500000000E-02 0. -1.
    5000001    1    1    2    0    0  0.23967783782E+03  0.96903458741E+02  0.14651664475E+04  0.15010494546E+04  0.19900000000E+03 0.  0.
   -5000001    1    1    2    0    0 -0.23967783782E+03 -0.96903458741E+02  0.99863897521E+03  0.10505791494E+04  0.19900000000E+03 0.  0.
<mgrwt>
<rscale>  0 0.66368017E+03</rscale>
<asrwt>0</asrwt>
<pdfrwt beam="1">  1        2 0.35824543E+00 0.66368017E+03</pdfrwt>
<pdfrwt beam="2">  1       -2 0.62730820E-02 0.66368017E+03</pdfrwt>
<totfact> 0.65718883E+02</totfact>
</mgrwt>
</event>
<event>
 4    1  0.5069019E-005  0.5592462E+03  0.7818608E-02  0.9993762E-01
          2   -1    0    0  501    0  0.00000000000E+00  0.00000000000E+00  0.12880200670E+04  0.12880200671E+04  0.25500000000E-02 0.  1.
         -2   -1    0    0    0  501 -0.00000000000E+00 -0.00000000000E+00 -0.60704860861E+02  0.60704860915E+02  0.25500000000E-02 0. -1.
    5000001    1    1    2    0    0  0.12486822596E+03  0.14866902021E+03  0.68574748575E+03  0.73996294883E+03  0.19900000000E+03 0.  0.
   -5000001    1    1    2    0    0 -0.12486822596E+03 -0.14866902021E+03  0.54156772044E+03  0.60876197914E+03  0.19900000000E+03 0.  0.
<mgrwt>
<rscale>  0 0.55924620E+03</rscale>
<asrwt>0</asrwt>
<pdfrwt beam="1">  1        2 0.18400287E+00 0.55924620E+03</pdfrwt>
<pdfrwt beam="2">  1       -2 0.86721229E-02 0.55924620E+03</pdfrwt>
<totfact> 0.16638728E+03</totfact>
</mgrwt>
</event>
<event>
 4    1  0.5069019E-005  0.5595326E+03  0.7818608E-02  0.9993113E-01
          2   -1    0    0  501    0  0.00000000000E+00  0.00000000000E+00  0.27445669254E+03  0.27445669255E+03  0.25500000000E-02 0.  1.
         -2   -1    0    0    0  501 -0.00000000000E+00 -0.00000000000E+00 -0.28517858689E+03  0.28517858690E+03  0.25500000000E-02 0. -1.
    5000001    1    1    2    0    0  0.53467895090E+02 -0.13890387978E+03  0.12317360971E+03  0.27735508243E+03  0.19900000000E+03 0.  0.
   -5000001    1    1    2    0    0 -0.53467895090E+02  0.13890387978E+03 -0.13389550405E+03  0.28228019702E+03  0.19900000000E+03 0.  0.
<mgrwt>
<rscale>  0 0.55953256E+03</rscale>
<asrwt>0</asrwt>
<pdfrwt beam="1">  1        2 0.39208099E-01 0.55953256E+03</pdfrwt>
<pdfrwt beam="2">  1       -2 0.40739798E-01 0.55953256E+03</pdfrwt>
<totfact> 0.75503837E+02</totfact>
</mgrwt>
</event>
<event>
 4    1  0.5069019E-005  0.7663078E+03  0.7818608E-02  0.9610108E-01
          2   -1    0    0  501    0  0.00000000000E+00  0.00000000000E+00  0.86477597932E+03  0.86477597932E+03  0.25500000000E-02 0.  1.
         -2   -1    0    0    0  501 -0.00000000000E+00 -0.00000000000E+00 -0.16976292962E+03  0.16976292964E+03  0.25500000000E-02 0. -1.
    5000001    1    1    2    0    0 -0.18428472419E+03  0.25540870002E+03  0.46834323397E+03  0.59844870157E+03  0.19900000000E+03 0.  0.
   -5000001    1    1    2    0    0  0.18428472419E+03 -0.25540870002E+03  0.22666981573E+03  0.43609020739E+03  0.19900000000E+03 0.  0.
<mgrwt>
<rscale>  0 0.76630778E+03</rscale>
<asrwt>0</asrwt>
<pdfrwt beam="1">  1        2 0.12353943E+00 0.76630778E+03</pdfrwt>
<pdfrwt beam="2">  1       -2 0.24251847E-01 0.76630778E+03</pdfrwt>
<totfact> 0.52113593E+02</totfact>
</mgrwt>
</event>
<event>
 4    1  0.5069019E-005  0.5290056E+03  0.7818608E-02  0.1006474E+00
          2   -1    0    0  501    0  0.00000000000E+00  0.00000000000E+00  0.16096105571E+04  0.16096105571E+04  0.25500000000E-02 0.  1.
         -2   -1    0    0    0  501 -0.00000000000E+00 -0.00000000000E+00 -0.43464998565E+02  0.43464998639E+02  0.25500000000E-02 0. -1.
    5000001    1    1    2    0    0  0.13440622218E+03  0.15988583135E+02  0.44018921240E+03  0.50168536959E+03  0.19900000000E+03 0.  0.
   -5000001    1    1    2    0    0 -0.13440622218E+03 -0.15988583135E+02  0.11259563461E+04  0.11513901861E+04  0.19900000000E+03 0.  0.
<mgrwt>
<rscale>  0 0.52900556E+03</rscale>
<asrwt>0</asrwt>
<pdfrwt beam="1">  1        2 0.22994433E+00 0.52900556E+03</pdfrwt>
<pdfrwt beam="2">  1       -2 0.62092865E-02 0.52900556E+03</pdfrwt>
<totfact> 0.19145357E+03</totfact>
</mgrwt>
</event>
<event>
 4    1  0.5069019E-005  0.5279220E+03  0.7818608E-02  0.1006737E+00
         -2   -1    0    0    0  501 -0.00000000000E+00  0.00000000000E+00  0.26014318663E+02  0.26014318788E+02  0.25500000000E-02 0. -1.
          2   -1    0    0  501    0  0.00000000000E+00 -0.00000000000E+00 -0.26783483850E+04  0.26783483850E+04  0.25500000000E-02 0.  1.
    5000001    1    1    2    0    0  0.78262034334E+02 -0.13103755344E+03 -0.17479275226E+04  0.17658276843E+04  0.19900000000E+03 0.  0.
   -5000001    1    1    2    0    0 -0.78262034334E+02  0.13103755344E+03 -0.90440654375E+03  0.93853501949E+03  0.19900000000E+03 0.  0.
<mgrwt>
<rscale>  0 0.52792200E+03</rscale>
<asrwt>0</asrwt>
<pdfrwt beam="1">  1        2 0.38262102E+00 0.52792200E+03</pdfrwt>
<pdfrwt beam="2">  1       -2 0.37163329E-02 0.52792200E+03</pdfrwt>
<totfact> 0.12194460E+03</totfact>
</mgrwt>
</event>
<event>
 4    1  0.5069019E-005  0.4993438E+03  0.7818608E-02  0.1013950E+00
         -2   -1    0    0    0  501 -0.00000000000E+00  0.00000000000E+00  0.14994937779E+02  0.14994937996E+02  0.25500000000E-02 0. -1.
          2   -1    0    0  501    0  0.00000000000E+00 -0.00000000000E+00 -0.41571405998E+04  0.41571405998E+04  0.25500000000E-02 0.  1.
    5000001    1    1    2    0    0 -0.62255920864E+02  0.13726844717E+03 -0.20369912333E+04  0.20522311544E+04  0.19900000000E+03 0.  0.
   -5000001    1    1    2    0    0  0.62255920864E+02 -0.13726844717E+03 -0.21051544287E+04  0.21199043834E+04  0.19900000000E+03 0.  0.
<mgrwt>
<rscale>  0 0.49934383E+03</rscale>
<asrwt>0</asrwt>
<pdfrwt beam="1">  1        2 0.59387649E+00 0.49934383E+03</pdfrwt>
<pdfrwt beam="2">  1       -2 0.21421366E-02 0.49934383E+03</pdfrwt>
<totfact> 0.37795979E+02</totfact>
</mgrwt>
</event>
<event>
 4    1  0.5069019E-005  0.9183890E+03  0.7818608E-02  0.9402882E-01
         -2   -1    0    0    0  501 -0.00000000000E+00  0.00000000000E+00  0.11950765978E+03  0.11950765981E+03  0.25500000000E-02 0. -1.
          2   -1    0    0  501    0  0.00000000000E+00 -0.00000000000E+00 -0.17644022470E+04  0.17644022470E+04  0.25500000000E-02 0.  1.
    5000001    1    1    2    0    0 -0.36928496101E+03 -0.72848381585E+02 -0.46964219348E+03  0.63391092358E+03  0.19900000000E+03 0.  0.
   -5000001    1    1    2    0    0  0.36928496101E+03  0.72848381585E+02 -0.11752523937E+04  0.12499989832E+04  0.19900000000E+03 0.  0.
<mgrwt>
<rscale>  0 0.91838899E+03</rscale>
<asrwt>0</asrwt>
<pdfrwt beam="1">  1        2 0.25205745E+00 0.91838899E+03</pdfrwt>
<pdfrwt beam="2">  1       -2 0.17072524E-01 0.91838899E+03</pdfrwt>
<totfact> 0.29964286E+02</totfact>
</mgrwt>
</event>
<event>
 4    1  0.5069019E-005  0.5743691E+03  0.7818608E-02  0.9960057E-01
          2   -1    0    0  501    0  0.00000000000E+00  0.00000000000E+00  0.81082032196E+03  0.81082032196E+03  0.25500000000E-02 0. -1.
         -2   -1    0    0    0  501 -0.00000000000E+00 -0.00000000000E+00 -0.10171791842E+03  0.10171791845E+03  0.25500000000E-02 0.  1.
    5000001    1    1    2    0    0  0.87210372153E+02 -0.18779210157E+03  0.35702934905E+03  0.45819480410E+03  0.19900000000E+03 0.  0.
   -5000001    1    1    2    0    0 -0.87210372153E+02  0.18779210157E+03  0.35207305449E+03  0.45434343631E+03  0.19900000000E+03 0.  0.
<mgrwt>
<rscale>  0 0.57436906E+03</rscale>
<asrwt>0</asrwt>
<pdfrwt beam="1">  1        2 0.11583148E+00 0.57436906E+03</pdfrwt>
<pdfrwt beam="2">  1       -2 0.14531131E-01 0.57436906E+03</pdfrwt>
<totfact> 0.13833807E+03</totfact>
</mgrwt>
</event>
<event>
 4    1  0.5069019E-005  0.1134143E+04  0.7818608E-02  0.9172538E-01
         -2   -1    0    0    0  501 -0.00000000000E+00  0.00000000000E+00  0.18278602969E+03  0.18278602971E+03  0.25500000000E-02 0. -1.
          2   -1    0    0  501    0  0.00000000000E+00 -0.00000000000E+00 -0.17592714439E+04  0.17592714439E+04  0.25500000000E-02 0.  1.
    5000001    1    1    2    0    0 -0.36255922092E+03  0.38740523960E+03 -0.82404832241E+03  0.10000943186E+04  0.19900000000E+03 0.  0.
   -5000001    1    1    2    0    0  0.36255922092E+03 -0.38740523960E+03 -0.75243709177E+03  0.94196315502E+03  0.19900000000E+03 0.  0.
<mgrwt>
<rscale>  0 0.11341433E+04</rscale>
<asrwt>0</asrwt>
<pdfrwt beam="1">  1        2 0.25132448E+00 0.11341433E+04</pdfrwt>
<pdfrwt beam="2">  1       -2 0.26112291E-01 0.11341433E+04</pdfrwt>
<totfact> 0.14018608E+02</totfact>
</mgrwt>
</event>
<event>
 4    1  0.5069019E-005  0.5304440E+03  0.7818608E-02  0.1006124E+00
         -2   -1    0    0    0  501 -0.00000000000E+00  0.00000000000E+00  0.31019068712E+03  0.31019068713E+03  0.25500000000E-02 0. -1.
          2   -1    0    0  501    0  0.00000000000E+00 -0.00000000000E+00 -0.22677250414E+03  0.22677250415E+03  0.25500000000E-02 0.  1.
    5000001    1    1    2    0    0 -0.15246583500E+03  0.85151999678E+02  0.25863438529E+02  0.26601994538E+03  0.19900000000E+03 0.  0.
   -5000001    1    1    2    0    0  0.15246583500E+03 -0.85151999678E+02  0.57554744456E+02  0.27094324590E+03  0.19900000000E+03 0.  0.
<mgrwt>
<rscale>  0 0.53044404E+03</rscale>
<asrwt>0</asrwt>
<pdfrwt beam="1">  1        2 0.32396072E-01 0.53044404E+03</pdfrwt>
<pdfrwt beam="2">  1       -2 0.44312955E-01 0.53044404E+03</pdfrwt>
<totfact> 0.79145761E+02</totfact>
</mgrwt>
</event>
<event>
 4    1  0.5069019E-005  0.8863512E+03  0.7818608E-02  0.9442806E-01
         -2   -1    0    0    0  501 -0.00000000000E+00  0.00000000000E+00  0.25428165123E+03  0.25428165125E+03  0.25500000000E-02 0. -1.
          2   -1    0    0  501    0  0.00000000000E+00 -0.00000000000E+00 -0.77239000323E+03  0.77239000323E+03  0.25500000000E-02 0.  1.
    5000001    1    1    2    0    0  0.29029693195E+03  0.16191925945E+03 -0.97788401621E+01  0.38753939283E+03  0.19900000000E+03 0.  0.
   -5000001    1    1    2    0    0 -0.29029693195E+03 -0.16191925945E+03 -0.50832951183E+03  0.63913226165E+03  0.19900000000E+03 0.  0.
<mgrwt>
<rscale>  0 0.88635118E+03</rscale>
<asrwt>0</asrwt>
<pdfrwt beam="1">  1        2 0.11034143E+00 0.88635118E+03</pdfrwt>
<pdfrwt beam="2">  1       -2 0.36325951E-01 0.88635118E+03</pdfrwt>
<totfact> 0.28398592E+02</totfact>
</mgrwt>
</event>
<event>
 4    1  0.5069019E-005  0.1414035E+04  0.7818608E-02  0.8943722E-01
          2   -1    0    0  501    0  0.00000000000E+00  0.00000000000E+00  0.18593955402E+04  0.18593955402E+04  0.25500000000E-02 0.  1.
         -2   -1    0    0    0  501 -0.00000000000E+00 -0.00000000000E+00 -0.26883661526E+03  0.26883661527E+03  0.25500000000E-02 0. -1.
    5000001    1    1    2    0    0  0.59143978091E+03 -0.26427207297E+03  0.10986631720E+04  0.12908534032E+04  0.19900000000E+03 0.  0.
   -5000001    1    1    2    0    0 -0.59143978091E+03  0.26427207297E+03  0.49189575289E+03  0.83737875224E+03  0.19900000000E+03 0.  0.
<mgrwt>
<rscale>  0 0.14140348E+04</rscale>
<asrwt>0</asrwt>
<pdfrwt beam="1">  1        2 0.26562794E+00 0.14140348E+04</pdfrwt>
<pdfrwt beam="2">  1       -2 0.38405230E-01 0.14140348E+04</pdfrwt>
<totfact> 0.59085315E+01</totfact>
</mgrwt>
</event>
<event>
 4    1  0.5069019E-005  0.1426680E+04  0.7818608E-02  0.8934730E-01
          2   -1    0    0  501    0  0.00000000000E+00  0.00000000000E+00  0.65070182780E+03  0.65070182781E+03  0.25500000000E-02 0.  1.
         -2   -1    0    0    0  501 -0.00000000000E+00 -0.00000000000E+00 -0.78200779967E+03  0.78200779967E+03  0.25500000000E-02 0. -1.
    5000001    1    1    2    0    0  0.34756788457E+03 -0.31528663018E+03 -0.56680502845E+03  0.76228474590E+03  0.19900000000E+03 0.  0.
   -5000001    1    1    2    0    0 -0.34756788457E+03  0.31528663018E+03  0.43549905658E+03  0.67042488158E+03  0.19900000000E+03 0.  0.
<mgrwt>
<rscale>  0 0.14266799E+04</rscale>
<asrwt>0</asrwt>
<pdfrwt beam="1">  1        2 0.92957404E-01 0.14266799E+04</pdfrwt>
<pdfrwt beam="2">  1       -2 0.11171540E+00 0.14266799E+04</pdfrwt>
<totfact> 0.30312748E+01</totfact>
</mgrwt>
</event>
<event>
 4    1  0.5069019E-005  0.1215280E+04  0.7818608E-02  0.9099586E-01
          2   -1    0    0  501    0  0.00000000000E+00  0.00000000000E+00  0.12747880258E+04  0.12747880258E+04  0.25500000000E-02 0.  1.
         -2   -1    0    0    0  501 -0.00000000000E+00 -0.00000000000E+00 -0.28963749162E+03  0.28963749163E+03  0.25500000000E-02 0. -1.
    5000001    1    1    2    0    0  0.26804546653E+03 -0.50674087424E+03  0.53309383354E+03  0.80772812327E+03  0.19900000000E+03 0.  0.
   -5000001    1    1    2    0    0 -0.26804546653E+03  0.50674087424E+03  0.45205670066E+03  0.75669739419E+03  0.19900000000E+03 0.  0.
<mgrwt>
<rscale>  0 0.12152801E+04</rscale>
<asrwt>0</asrwt>
<pdfrwt beam="1">  1        2 0.18211258E+00 0.12152801E+04</pdfrwt>
<pdfrwt beam="2">  1       -2 0.41376785E-01 0.12152801E+04</pdfrwt>
<totfact> 0.10570966E+02</totfact>
</mgrwt>
</event>
<event>
 4    1  0.5069019E-005  0.6804207E+03  0.7818608E-02  0.9751314E-01
         -2   -1    0    0    0  501 -0.00000000000E+00  0.00000000000E+00  0.28940684453E+03  0.28940684455E+03  0.25500000000E-02 0. -1.
          2   -1    0    0  501    0  0.00000000000E+00 -0.00000000000E+00 -0.39993205504E+03  0.39993205505E+03  0.25500000000E-02 0.  1.
    5000001    1    1    2    0    0  0.24606089825E+03 -0.46183066057E+01 -0.18169729302E+03  0.36494136611E+03  0.19900000000E+03 0.  0.
   -5000001    1    1    2    0    0 -0.24606089825E+03  0.46183066057E+01  0.71172082519E+02  0.32439753349E+03  0.19900000000E+03 0.  0.
<mgrwt>
<rscale>  0 0.68042068E+03</rscale>
<asrwt>0</asrwt>
<pdfrwt beam="1">  1        2 0.57133151E-01 0.68042068E+03</pdfrwt>
<pdfrwt beam="2">  1       -2 0.41343835E-01 0.68042068E+03</pdfrwt>
<totfact> 0.48270149E+02</totfact>
</mgrwt>
</event>
<event>
 4    1  0.5069019E-005  0.9115601E+03  0.7818608E-02  0.9411245E-01
         -2   -1    0    0    0  501 -0.00000000000E+00  0.00000000000E+00  0.12573781433E+03  0.12573781436E+03  0.25500000000E-02 0. -1.
          2   -1    0    0  501    0  0.00000000000E+00 -0.00000000000E+00 -0.16521320077E+04  0.16521320077E+04  0.25500000000E-02 0.  1.
    5000001    1    1    2    0    0  0.38400368076E+03 -0.13676318404E+03 -0.84979551848E+03  0.96328418371E+03  0.19900000000E+03 0.  0.
   -5000001    1    1    2    0    0 -0.38400368076E+03  0.13676318404E+03 -0.67659867490E+03  0.81458563836E+03  0.19900000000E+03 0.  0.
<mgrwt>
<rscale>  0 0.91156013E+03</rscale>
<asrwt>0</asrwt>
<pdfrwt beam="1">  1        2 0.23601884E+00 0.91156013E+03</pdfrwt>
<pdfrwt beam="2">  1       -2 0.17962546E-01 0.91156013E+03</pdfrwt>
<totfact> 0.31374417E+02</totfact>
</mgrwt>
</event>
<event>
 4    1  0.5069019E-005  0.4816360E+03  0.7818608E-02  0.1018687E+00
         -2   -1    0    0    0  501 -0.00000000000E+00  0.00000000000E+00  0.21725569636E+03  0.21725569638E+03  0.25500000000E-02 0. -1.
          2   -1    0    0  501    0  0.00000000000E+00 -0.00000000000E+00 -0.26693574136E+03  0.26693574138E+03  0.25500000000E-02 0.  1.
    5000001    1    1    2    0    0  0.75446076613E+02  0.10918407902E+03 -0.52899342668E+02  0.24497472123E+03  0.19900000000E+03 0.  0.
   -5000001    1    1    2    0    0 -0.75446076613E+02 -0.10918407902E+03  0.32192976674E+01  0.23921671652E+03  0.19900000000E+03 0.  0.
<mgrwt>
<rscale>  0 0.48163601E+03</rscale>
<asrwt>0</asrwt>
<pdfrwt beam="1">  1        2 0.38133677E-01 0.48163601E+03</pdfrwt>
<pdfrwt beam="2">  1       -2 0.31036528E-01 0.48163601E+03</pdfrwt>
<totfact> 0.13040437E+03</totfact>
</mgrwt>
</event>
<event>
 4    1  0.5069019E-005  0.4910700E+03  0.7818608E-02  0.1016136E+00
          2   -1    0    0  501    0  0.00000000000E+00  0.00000000000E+00  0.20187779901E+03  0.20187779903E+03  0.25500000000E-02 0.  1.
         -2   -1    0    0    0  501 -0.00000000000E+00 -0.00000000000E+00 -0.29863332655E+03  0.29863332656E+03  0.25500000000E-02 0. -1.
    5000001    1    1    2    0    0  0.11279612875E+03  0.86380218719E+01 -0.13890460239E+03  0.26775561740E+03  0.19900000000E+03 0.  0.
   -5000001    1    1    2    0    0 -0.11279612875E+03 -0.86380218719E+01  0.42149074856E+02  0.23275550819E+03  0.19900000000E+03 0.  0.
<mgrwt>
<rscale>  0 0.49107001E+03</rscale>
<asrwt>0</asrwt>
<pdfrwt beam="1">  1        2 0.28839686E-01 0.49107001E+03</pdfrwt>
<pdfrwt beam="2">  1       -2 0.42661904E-01 0.49107001E+03</pdfrwt>
<totfact> 0.97120893E+02</totfact>
</mgrwt>
</event>
<event>
 4    1  0.5069019E-005  0.7496034E+03  0.7818608E-02  0.9635973E-01
          2   -1    0    0  501    0  0.00000000000E+00  0.00000000000E+00  0.15551013119E+04  0.15551013119E+04  0.25500000000E-02 0.  1.
         -2   -1    0    0    0  501 -0.00000000000E+00 -0.00000000000E+00 -0.90332588698E+02  0.90332588734E+02  0.25500000000E-02 0. -1.
    5000001    1    1    2    0    0 -0.89925023311E+02 -0.30459461867E+03  0.72512544596E+03  0.81625504832E+03  0.19900000000E+03 0.  0.
   -5000001    1    1    2    0    0  0.89925023311E+02  0.30459461867E+03  0.73964327724E+03  0.82917885230E+03  0.19900000000E+03 0.  0.
<mgrwt>
<rscale>  0 0.74960343E+03</rscale>
<asrwt>0</asrwt>
<pdfrwt beam="1">  1        2 0.22215733E+00 0.74960343E+03</pdfrwt>
<pdfrwt beam="2">  1       -2 0.12904655E-01 0.74960343E+03</pdfrwt>
<totfact> 0.62299908E+02</totfact>
</mgrwt>
</event>
<event>
 4    1  0.5069019E-005  0.4878278E+03  0.7818608E-02  0.1017006E+00
         -2   -1    0    0    0  501 -0.00000000000E+00  0.00000000000E+00  0.29872821224E+02  0.29872821332E+02  0.25500000000E-02 0. -1.
          2   -1    0    0  501    0  0.00000000000E+00 -0.00000000000E+00 -0.19915760525E+04  0.19915760525E+04  0.25500000000E-02 0.  1.
    5000001    1    1    2    0    0 -0.11775950211E+03  0.76333825465E+02 -0.92241964737E+03  0.95401947522E+03  0.19900000000E+03 0.  0.
   -5000001    1    1    2    0    0  0.11775950211E+03 -0.76333825465E+02 -0.10392835839E+04  0.10674293987E+04  0.19900000000E+03 0.  0.
<mgrwt>
<rscale>  0 0.48782782E+03</rscale>
<asrwt>0</asrwt>
<pdfrwt beam="1">  1        2 0.28451078E+00 0.48782782E+03</pdfrwt>
<pdfrwt beam="2">  1       -2 0.42675471E-02 0.48782782E+03</pdfrwt>
<totfact> 0.22013940E+03</totfact>
</mgrwt>
</event>
<event>
 4    1  0.5069019E-005  0.7311374E+03  0.7818608E-02  0.9665416E-01
          2   -1    0    0  501    0  0.00000000000E+00  0.00000000000E+00  0.94459866414E+03  0.94459866414E+03  0.25500000000E-02 0. -1.
         -2   -1    0    0    0  501 -0.00000000000E+00 -0.00000000000E+00 -0.14147857675E+03  0.14147857678E+03  0.25500000000E-02 0.  1.
    5000001    1    1    2    0    0  0.17077209845E+03 -0.23788967118E+03  0.26635137242E+03  0.44305604482E+03  0.19900000000E+03 0.  0.
   -5000001    1    1    2    0    0 -0.17077209845E+03  0.23788967118E+03  0.53676871496E+03  0.64302119609E+03  0.19900000000E+03 0.  0.
<mgrwt>
<rscale>  0 0.73113740E+03</rscale>
<asrwt>0</asrwt>
<pdfrwt beam="1">  1        2 0.13494267E+00 0.73113740E+03</pdfrwt>
<pdfrwt beam="2">  1       -2 0.20211225E-01 0.73113740E+03</pdfrwt>
<totfact> 0.63973610E+02</totfact>
</mgrwt>
</event>
<event>
 4    1  0.5069019E-005  0.5464405E+03  0.7818608E-02  0.1002321E+00
         -2   -1    0    0    0  501 -0.00000000000E+00  0.00000000000E+00  0.87241751247E+02  0.87241751284E+02  0.25500000000E-02 0. -1.
          2   -1    0    0  501    0  0.00000000000E+00 -0.00000000000E+00 -0.85566025442E+03  0.85566025442E+03  0.25500000000E-02 0.  1.
    5000001    1    1    2    0    0  0.50057534228E+02  0.15371862711E+03 -0.22130263626E+03  0.33869016795E+03  0.19900000000E+03 0.  0.
   -5000001    1    1    2    0    0 -0.50057534228E+02 -0.15371862711E+03 -0.54711586691E+03  0.60421183775E+03  0.19900000000E+03 0.  0.
<mgrwt>
<rscale>  0 0.54644048E+03</rscale>
<asrwt>0</asrwt>
<pdfrwt beam="1">  1        2 0.12223717E+00 0.54644048E+03</pdfrwt>
<pdfrwt beam="2">  1       -2 0.12463108E-01 0.54644048E+03</pdfrwt>
<totfact> 0.16659121E+03</totfact>
</mgrwt>
</event>
<event>
 4    1  0.5069019E-005  0.7079228E+03  0.7818608E-02  0.9703778E-01
          2   -1    0    0  501    0  0.00000000000E+00  0.00000000000E+00  0.46946892449E+03  0.46946892450E+03  0.25500000000E-02 0.  1.
         -2   -1    0    0    0  501 -0.00000000000E+00 -0.00000000000E+00 -0.26687323129E+03  0.26687323130E+03  0.25500000000E-02 0. -1.
    5000001    1    1    2    0    0 -0.27517650431E+03 -0.51068330733E+02  0.19051780142E+03  0.39271887603E+03  0.19900000000E+03 0.  0.
   -5000001    1    1    2    0    0  0.27517650431E+03  0.51068330733E+02  0.12077891779E+02  0.34362327977E+03  0.19900000000E+03 0.  0.
<mgrwt>
<rscale>  0 0.70792285E+03</rscale>
<asrwt>0</asrwt>
<pdfrwt beam="1">  1        2 0.67066989E-01 0.70792285E+03</pdfrwt>
<pdfrwt beam="2">  1       -2 0.38124747E-01 0.70792285E+03</pdfrwt>
<totfact> 0.47161258E+02</totfact>
</mgrwt>
</event>
<event>
 4    1  0.5069019E-005  0.9178909E+03  0.7818608E-02  0.9403489E-01
          2   -1    0    0  501    0  0.00000000000E+00  0.00000000000E+00  0.63994091528E+03  0.63994091529E+03  0.25500000000E-02 0.  1.
         -2   -1    0    0    0  501 -0.00000000000E+00 -0.00000000000E+00 -0.32914121995E+03  0.32914121996E+03  0.25500000000E-02 0. -1.
    5000001    1    1    2    0    0  0.29447827451E+03 -0.18096729344E+03 -0.84339844753E+02  0.40765282394E+03  0.19900000000E+03 0.  0.
   -5000001    1    1    2    0    0 -0.29447827451E+03  0.18096729344E+03  0.39513954009E+03  0.56142931130E+03  0.19900000000E+03 0.  0.
<mgrwt>
<rscale>  0 0.91789092E+03</rscale>
<asrwt>0</asrwt>
<pdfrwt beam="1">  1        2 0.91420131E-01 0.91789092E+03</pdfrwt>
<pdfrwt beam="2">  1       -2 0.47020174E-01 0.91789092E+03</pdfrwt>
<totfact> 0.21569809E+02</totfact>
</mgrwt>
</event>
<event>
 4    1  0.5069019E-005  0.6810326E+03  0.7818608E-02  0.9750230E-01
         -2   -1    0    0    0  501 -0.00000000000E+00  0.00000000000E+00  0.57078045828E+02  0.57078045885E+02  0.25500000000E-02 0. -1.
          2   -1    0    0  501    0  0.00000000000E+00 -0.00000000000E+00 -0.20314527403E+04  0.20314527403E+04  0.25500000000E-02 0.  1.
    5000001    1    1    2    0    0 -0.57130100790E+02 -0.18130536478E+03 -0.16021748704E+04  0.16256385820E+04  0.19900000000E+03 0.  0.
   -5000001    1    1    2    0    0  0.57130100790E+02  0.18130536478E+03 -0.37219982403E+03  0.46289220422E+03  0.19900000000E+03 0.  0.
<mgrwt>
<rscale>  0 0.68103261E+03</rscale>
<asrwt>0</asrwt>
<pdfrwt beam="1">  1        2 0.29020749E+00 0.68103261E+03</pdfrwt>
<pdfrwt beam="2">  1       -2 0.81540078E-02 0.68103261E+03</pdfrwt>
<totfact> 0.75586820E+02</totfact>
</mgrwt>
</event>
<event>
 4    1  0.5069019E-005  0.1196841E+04  0.7818608E-02  0.9115626E-01
         -2   -1    0    0    0  501 -0.00000000000E+00  0.00000000000E+00  0.80983035061E+02  0.80983035101E+02  0.25500000000E-02 0. -1.
          2   -1    0    0  501    0  0.00000000000E+00 -0.00000000000E+00 -0.44220027811E+04  0.44220027811E+04  0.25500000000E-02 0.  1.
    5000001    1    1    2    0    0  0.24449191381E+03  0.34549585764E+03 -0.35750593836E+04  0.36055227471E+04  0.19900000000E+03 0.  0.
   -5000001    1    1    2    0    0 -0.24449191381E+03 -0.34549585764E+03 -0.76596036239E+03  0.89746306906E+03  0.19900000000E+03 0.  0.
<mgrwt>
<rscale>  0 0.11968412E+04</rscale>
<asrwt>0</asrwt>
<pdfrwt beam="1">  1        2 0.63171453E+00 0.11968412E+04</pdfrwt>
<pdfrwt beam="2">  1       -2 0.11569008E-01 0.11968412E+04</pdfrwt>
<totfact> 0.15658504E+01</totfact>
</mgrwt>
</event>
<event>
 4    1  0.5069019E-005  0.4638971E+03  0.7818608E-02  0.1023657E+00
         -2   -1    0    0    0  501 -0.00000000000E+00  0.00000000000E+00  0.27274034202E+02  0.27274034321E+02  0.25500000000E-02 0. -1.
          2   -1    0    0  501    0  0.00000000000E+00 -0.00000000000E+00 -0.19725767603E+04  0.19725767603E+04  0.25500000000E-02 0.  1.
    5000001    1    1    2    0    0 -0.57190013379E+02 -0.74424090433E+02 -0.12891337291E+04  0.13077753685E+04  0.19900000000E+03 0.  0.
   -5000001    1    1    2    0    0  0.57190013379E+02  0.74424090433E+02 -0.65616899701E+03  0.69207542617E+03  0.19900000000E+03 0.  0.
<mgrwt>
<rscale>  0 0.46389708E+03</rscale>
<asrwt>0</asrwt>
<pdfrwt beam="1">  1        2 0.28179659E+00 0.46389708E+03</pdfrwt>
<pdfrwt beam="2">  1       -2 0.38962919E-02 0.46389708E+03</pdfrwt>
<totfact> 0.25880632E+03</totfact>
</mgrwt>
</event>
<event>
 4    1  0.5069019E-005  0.4984422E+03  0.7818608E-02  0.1014186E+00
         -2   -1    0    0    0  501 -0.00000000000E+00  0.00000000000E+00  0.20414427293E+03  0.20414427294E+03  0.25500000000E-02 0. -1.
          2   -1    0    0  501    0  0.00000000000E+00 -0.00000000000E+00 -0.30425125862E+03  0.30425125863E+03  0.25500000000E-02 0.  1.
    5000001    1    1    2    0    0 -0.87732383152E+02  0.11859499330E+03 -0.77956839327E+02  0.25969214907E+03  0.19900000000E+03 0.  0.
   -5000001    1    1    2    0    0  0.87732383152E+02 -0.11859499330E+03 -0.22150146368E+02  0.24870338251E+03  0.19900000000E+03 0.  0.
<mgrwt>
<rscale>  0 0.49844218E+03</rscale>
<asrwt>0</asrwt>
<pdfrwt beam="1">  1        2 0.43464465E-01 0.49844218E+03</pdfrwt>
<pdfrwt beam="2">  1       -2 0.29163468E-01 0.49844218E+03</pdfrwt>
<totfact> 0.12667001E+03</totfact>
</mgrwt>
</event>
<event>
 4    1  0.5069019E-005  0.7870149E+03  0.7818608E-02  0.9579005E-01
          2   -1    0    0  501    0  0.00000000000E+00  0.00000000000E+00  0.91701331207E+03  0.91701331207E+03  0.25500000000E-02 0.  1.
         -2   -1    0    0    0  501 -0.00000000000E+00 -0.00000000000E+00 -0.16886137629E+03  0.16886137631E+03  0.25500000000E-02 0. -1.
    5000001    1    1    2    0    0 -0.24893761736E+03 -0.19115657598E+02  0.69145112960E+03  0.76160423471E+03  0.19900000000E+03 0.  0.
   -5000001    1    1    2    0    0  0.24893761736E+03  0.19115657598E+02  0.56700806175E+02  0.32427045367E+03  0.19900000000E+03 0.  0.
<mgrwt>
<rscale>  0 0.78701494E+03</rscale>
<asrwt>0</asrwt>
<pdfrwt beam="1">  1        2 0.13100190E+00 0.78701494E+03</pdfrwt>
<pdfrwt beam="2">  1       -2 0.24123054E-01 0.78701494E+03</pdfrwt>
<totfact> 0.48591096E+02</totfact>
</mgrwt>
</event>
<event>
 4    1  0.5069019E-005  0.6163300E+03  0.7818608E-02  0.9872094E-01
         -2   -1    0    0    0  501 -0.00000000000E+00  0.00000000000E+00  0.88422127004E+02  0.88422127041E+02  0.25500000000E-02 0. -1.
          2   -1    0    0  501    0  0.00000000000E+00 -0.00000000000E+00 -0.10740035068E+04  0.10740035068E+04  0.25500000000E-02 0.  1.
    5000001    1    1    2    0    0 -0.47310043639E+02 -0.22289706348E+03 -0.38211776449E+03  0.48737698661E+03  0.19900000000E+03 0.  0.
   -5000001    1    1    2    0    0  0.47310043639E+02  0.22289706348E+03 -0.60346361530E+03  0.67504864723E+03  0.19900000000E+03 0.  0.
<mgrwt>
<rscale>  0 0.61633002E+03</rscale>
<asrwt>0</asrwt>
<pdfrwt beam="1">  1        2 0.15342906E+00 0.61633002E+03</pdfrwt>
<pdfrwt beam="2">  1       -2 0.12631733E-01 0.61633002E+03</pdfrwt>
<totfact> 0.11903064E+03</totfact>
</mgrwt>
</event>
<event>
 4    1  0.5069019E-005  0.7845851E+03  0.7818608E-02  0.9582601E-01
          2   -1    0    0  501    0  0.00000000000E+00  0.00000000000E+00  0.28731671468E+04  0.28731671468E+04  0.25500000000E-02 0.  1.
         -2   -1    0    0    0  501 -0.00000000000E+00 -0.00000000000E+00 -0.53562305338E+02  0.53562305399E+02  0.25500000000E-02 0. -1.
    5000001    1    1    2    0    0 -0.13018662174E+03  0.21985780910E+03  0.58401341159E+03  0.66780137587E+03  0.19900000000E+03 0.  0.
   -5000001    1    1    2    0    0  0.13018662174E+03 -0.21985780910E+03  0.22355914299E+04  0.22589280763E+04  0.19900000000E+03 0.  0.
<mgrwt>
<rscale>  0 0.78458513E+03</rscale>
<asrwt>0</asrwt>
<pdfrwt beam="1">  1        2 0.41045252E+00 0.78458513E+03</pdfrwt>
<pdfrwt beam="2">  1       -2 0.76517567E-02 0.78458513E+03</pdfrwt>
<totfact> 0.30491645E+02</totfact>
</mgrwt>
</event>
<event>
 4    1  0.5069019E-005  0.1027749E+04  0.7818608E-02  0.9278624E-01
          2   -1    0    0  501    0  0.00000000000E+00  0.00000000000E+00  0.76310104447E+03  0.76310104447E+03  0.25500000000E-02 0.  1.
         -2   -1    0    0    0  501 -0.00000000000E+00 -0.00000000000E+00 -0.34604433946E+03  0.34604433947E+03  0.25500000000E-02 0. -1.
    5000001    1    1    2    0    0  0.40708365038E+03 -0.20450427250E+03  0.68121681312E+02  0.50177749984E+03  0.19900000000E+03 0.  0.
   -5000001    1    1    2    0    0 -0.40708365038E+03  0.20450427250E+03  0.34893502370E+03  0.60736788410E+03  0.19900000000E+03 0.  0.
<mgrwt>
<rscale>  0 0.10277486E+04</rscale>
<asrwt>0</asrwt>
<pdfrwt beam="1">  1        2 0.10901443E+00 0.10277486E+04</pdfrwt>
<pdfrwt beam="2">  1       -2 0.49434906E-01 0.10277486E+04</pdfrwt>
<totfact> 0.15589207E+02</totfact>
</mgrwt>
</event>
<event>
 4    1  0.5069019E-005  0.4191050E+03  0.7818608E-02  0.1037358E+00
         -2   -1    0    0    0  501 -0.00000000000E+00  0.00000000000E+00  0.32955597330E+02  0.32955597429E+02  0.25500000000E-02 0. -1.
          2   -1    0    0  501    0  0.00000000000E+00 -0.00000000000E+00 -0.13324668408E+04  0.13324668408E+04  0.25500000000E-02 0.  1.
    5000001    1    1    2    0    0  0.52773421248E+02 -0.34969451605E+02 -0.59301264891E+03  0.62870732324E+03  0.19900000000E+03 0.  0.
   -5000001    1    1    2    0    0 -0.52773421248E+02  0.34969451605E+02 -0.70649859461E+03  0.73671511503E+03  0.19900000000E+03 0.  0.
<mgrwt>
<rscale>  0 0.41910495E+03</rscale>
<asrwt>0</asrwt>
<pdfrwt beam="1">  1        2 0.19035237E+00 0.41910495E+03</pdfrwt>
<pdfrwt beam="2">  1       -2 0.47079433E-02 0.41910495E+03</pdfrwt>
<totfact> 0.41009084E+03</totfact>
</mgrwt>
</event>
<event>
 4    1  0.5069019E-005  0.6301001E+03  0.7818608E-02  0.9844854E-01
          2   -1    0    0  501    0  0.00000000000E+00  0.00000000000E+00  0.26687920478E+03  0.26687920480E+03  0.25500000000E-02 0.  1.
         -2   -1    0    0    0  501 -0.00000000000E+00 -0.00000000000E+00 -0.37191555678E+03  0.37191555679E+03  0.25500000000E-02 0. -1.
    5000001    1    1    2    0    0 -0.37620413938E+02 -0.21130438287E+03 -0.17070595414E+03  0.33883087307E+03  0.19900000000E+03 0.  0.
   -5000001    1    1    2    0    0  0.37620413938E+02  0.21130438287E+03  0.65669602149E+02  0.29996388851E+03  0.19900000000E+03 0.  0.
<mgrwt>
<rscale>  0 0.63010008E+03</rscale>
<asrwt>0</asrwt>
<pdfrwt beam="1">  1        2 0.38125601E-01 0.63010008E+03</pdfrwt>
<pdfrwt beam="2">  1       -2 0.53130794E-01 0.63010008E+03</pdfrwt>
<totfact> 0.45771067E+02</totfact>
</mgrwt>
</event>
<event>
 4    1  0.5069019E-005  0.5562816E+03  0.7818608E-02  0.1000050E+00
          2   -1    0    0  501    0  0.00000000000E+00  0.00000000000E+00  0.17250849499E+04  0.17250849499E+04  0.25500000000E-02 0.  1.
         -2   -1    0    0    0  501 -0.00000000000E+00 -0.00000000000E+00 -0.44845500347E+02  0.44845500420E+02  0.25500000000E-02 0. -1.
    5000001    1    1    2    0    0  0.69916487697E+01  0.14674423995E+03  0.43542156973E+03  0.50077509772E+03  0.19900000000E+03 0.  0.
   -5000001    1    1    2    0    0 -0.69916487697E+01 -0.14674423995E+03  0.12448178798E+04  0.12691553526E+04  0.19900000000E+03 0.  0.
<mgrwt>
<rscale>  0 0.55628158E+03</rscale>
<asrwt>0</asrwt>
<pdfrwt beam="1">  1        2 0.24644077E+00 0.55628158E+03</pdfrwt>
<pdfrwt beam="2">  1       -2 0.64064984E-02 0.55628158E+03</pdfrwt>
<totfact> 0.15909985E+03</totfact>
</mgrwt>
</event>
<event>
 4    1  0.5069019E-005  0.6724317E+03  0.7818608E-02  0.9765575E-01
          2   -1    0    0  501    0  0.00000000000E+00  0.00000000000E+00  0.17209903242E+04  0.17209903242E+04  0.25500000000E-02 0.  1.
         -2   -1    0    0    0  501 -0.00000000000E+00 -0.00000000000E+00 -0.65683759354E+02  0.65683759404E+02  0.25500000000E-02 0. -1.
    5000001    1    1    2    0    0 -0.17312341231E+03  0.20655126803E+03  0.90303873599E+03  0.96317968257E+03  0.19900000000E+03 0.  0.
   -5000001    1    1    2    0    0  0.17312341231E+03 -0.20655126803E+03  0.75226782889E+03  0.82349440108E+03  0.19900000000E+03 0.  0.
<mgrwt>
<rscale>  0 0.67243175E+03</rscale>
<asrwt>0</asrwt>
<pdfrwt beam="1">  1        2 0.24585576E+00 0.67243175E+03</pdfrwt>
<pdfrwt beam="2">  1       -2 0.93833941E-02 0.67243175E+03</pdfrwt>
<totfact> 0.86627004E+02</totfact>
</mgrwt>
</event>
<event>
 4    1  0.5069019E-005  0.5846965E+03  0.7818608E-02  0.9937675E-01
         -2   -1    0    0    0  501 -0.00000000000E+00  0.00000000000E+00  0.22169697167E+03  0.22169697169E+03  0.25500000000E-02 0. -1.
          2   -1    0    0  501    0  0.00000000000E+00 -0.00000000000E+00 -0.38551493408E+03  0.38551493409E+03  0.25500000000E-02 0.  1.
    5000001    1    1    2    0    0  0.17949252995E+03  0.85910512997E+02  0.31244264371E+00  0.28142367024E+03  0.19900000000E+03 0.  0.
   -5000001    1    1    2    0    0 -0.17949252995E+03 -0.85910512997E+02 -0.16413040505E+03  0.32578823554E+03  0.19900000000E+03 0.  0.
<mgrwt>
<rscale>  0 0.58469648E+03</rscale>
<asrwt>0</asrwt>
<pdfrwt beam="1">  1        2 0.55073562E-01 0.58469648E+03</pdfrwt>
<pdfrwt beam="2">  1       -2 0.31670996E-01 0.58469648E+03</pdfrwt>
<totfact> 0.83770037E+02</totfact>
</mgrwt>
</event>
<event>
 4    1  0.5069019E-005  0.6273087E+03  0.7818608E-02  0.9850315E-01
          2   -1    0    0  501    0  0.00000000000E+00  0.00000000000E+00  0.11515352434E+04  0.11515352434E+04  0.25500000000E-02 0.  1.
         -2   -1    0    0    0  501 -0.00000000000E+00 -0.00000000000E+00 -0.85432939288E+02  0.85432939326E+02  0.25500000000E-02 0. -1.
    5000001    1    1    2    0    0 -0.66282716603E+02  0.23302166601E+03  0.55128906282E+03  0.63420274844E+03  0.19900000000E+03 0.  0.
   -5000001    1    1    2    0    0  0.66282716603E+02 -0.23302166601E+03  0.51481324126E+03  0.60276543425E+03  0.19900000000E+03 0.  0.
<mgrwt>
<rscale>  0 0.62730867E+03</rscale>
<asrwt>0</asrwt>
<pdfrwt beam="1">  1        2 0.16450503E+00 0.62730867E+03</pdfrwt>
<pdfrwt beam="2">  1       -2 0.12204706E-01 0.62730867E+03</pdfrwt>
<totfact> 0.11357220E+03</totfact>
</mgrwt>
</event>
<event>
 4    1  0.5069019E-005  0.7063711E+03  0.7818608E-02  0.9706398E-01
         -2   -1    0    0    0  501 -0.00000000000E+00  0.00000000000E+00  0.83438315733E+02  0.83438315772E+02  0.25500000000E-02 0. -1.
          2   -1    0    0  501    0  0.00000000000E+00 -0.00000000000E+00 -0.14949970828E+04  0.14949970828E+04  0.25500000000E-02 0.  1.
    5000001    1    1    2    0    0  0.14313334505E+03 -0.23374765189E+03 -0.48216696162E+03  0.58924621179E+03  0.19900000000E+03 0.  0.
   -5000001    1    1    2    0    0 -0.14313334505E+03  0.23374765189E+03 -0.92939180545E+03  0.98918918679E+03  0.19900000000E+03 0.  0.
<mgrwt>
<rscale>  0 0.70637112E+03</rscale>
<asrwt>0</asrwt>
<pdfrwt beam="1">  1        2 0.21357100E+00 0.70637112E+03</pdfrwt>
<pdfrwt beam="2">  1       -2 0.11919760E-01 0.70637112E+03</pdfrwt>
<totfact> 0.76551191E+02</totfact>
</mgrwt>
</event>
<event>
 4    1  0.5069019E-005  0.4899002E+03  0.7818608E-02  0.1016449E+00
         -2   -1    0    0    0  501 -0.00000000000E+00  0.00000000000E+00  0.16066527044E+03  0.16066527046E+03  0.25500000000E-02 0. -1.
          2   -1    0    0  501    0  0.00000000000E+00 -0.00000000000E+00 -0.37345072657E+03  0.37345072658E+03  0.25500000000E-02 0.  1.
    5000001    1    1    2    0    0  0.28547132868E+02 -0.13885958481E+03 -0.12535936384E+03  0.27461408047E+03  0.19900000000E+03 0.  0.
   -5000001    1    1    2    0    0 -0.28547132868E+02  0.13885958481E+03 -0.87426092297E+02  0.25950191657E+03  0.19900000000E+03 0.  0.
<mgrwt>
<rscale>  0 0.48990024E+03</rscale>
<asrwt>0</asrwt>
<pdfrwt beam="1">  1        2 0.53350103E-01 0.48990024E+03</pdfrwt>
<pdfrwt beam="2">  1       -2 0.22952182E-01 0.48990024E+03</pdfrwt>
<totfact> 0.15556375E+03</totfact>
</mgrwt>
</event>
<event>
 4    1  0.5069019E-005  0.5323485E+03  0.7818608E-02  0.1005664E+00
          2   -1    0    0  501    0  0.00000000000E+00  0.00000000000E+00  0.34831339536E+03  0.34831339537E+03  0.25500000000E-02 0.  1.
         -2   -1    0    0    0  501 -0.00000000000E+00 -0.00000000000E+00 -0.20340512083E+03  0.20340512085E+03  0.25500000000E-02 0. -1.
    5000001    1    1    2    0    0  0.12336316370E+03  0.37022734800E+02  0.19793208714E+03  0.30881590660E+03  0.19900000000E+03 0.  0.
   -5000001    1    1    2    0    0 -0.12336316370E+03 -0.37022734800E+02 -0.53023812619E+02  0.24290260961E+03  0.19900000000E+03 0.  0.
<mgrwt>
<rscale>  0 0.53234849E+03</rscale>
<asrwt>0</asrwt>
<pdfrwt beam="1">  1        2 0.49759056E-01 0.53234849E+03</pdfrwt>
<pdfrwt beam="2">  1       -2 0.29057875E-01 0.53234849E+03</pdfrwt>
<totfact> 0.10990773E+03</totfact>
</mgrwt>
</event>
<event>
 4    1  0.5069019E-005  0.7707025E+03  0.7818608E-02  0.9603420E-01
          2   -1    0    0  501    0  0.00000000000E+00  0.00000000000E+00  0.35075493096E+04  0.35075493096E+04  0.25500000000E-02 0.  1.
         -2   -1    0    0    0  501 -0.00000000000E+00 -0.00000000000E+00 -0.42335997094E+02  0.42335997171E+02  0.25500000000E-02 0. -1.
    5000001    1    1    2    0    0 -0.12440831460E+03  0.16508761419E+03  0.54783147849E+03  0.61842677653E+03  0.19900000000E+03 0.  0.
   -5000001    1    1    2    0    0  0.12440831460E+03 -0.16508761419E+03  0.29173818340E+04  0.29314585302E+04  0.19900000000E+03 0.  0.
<mgrwt>
<rscale>  0 0.77070253E+03</rscale>
<asrwt>0</asrwt>
<pdfrwt beam="1">  1        2 0.50107875E+00 0.77070253E+03</pdfrwt>
<pdfrwt beam="2">  1       -2 0.60479962E-02 0.77070253E+03</pdfrwt>
<totfact> 0.19392922E+02</totfact>
</mgrwt>
</event>
<event>
 4    1  0.5069019E-005  0.6952797E+03  0.7818608E-02  0.9725339E-01
         -2   -1    0    0    0  501 -0.00000000000E+00  0.00000000000E+00  0.11879740122E+03  0.11879740125E+03  0.25500000000E-02 0. -1.
          2   -1    0    0  501    0  0.00000000000E+00 -0.00000000000E+00 -0.10173073992E+04  0.10173073992E+04  0.25500000000E-02 0.  1.
    5000001    1    1    2    0    0  0.25632618211E+03  0.69541671391E+02 -0.28012491766E+03  0.43429267228E+03  0.19900000000E+03 0.  0.
   -5000001    1    1    2    0    0 -0.25632618211E+03 -0.69541671391E+02 -0.61838508028E+03  0.70181212814E+03  0.19900000000E+03 0.  0.
<mgrwt>
<rscale>  0 0.69527973E+03</rscale>
<asrwt>0</asrwt>
<pdfrwt beam="1">  1        2 0.14532962E+00 0.69527973E+03</pdfrwt>
<pdfrwt beam="2">  1       -2 0.16971058E-01 0.69527973E+03</pdfrwt>
<totfact> 0.78124804E+02</totfact>
</mgrwt>
</event>
<event>
 4    1  0.5069019E-005  0.5133979E+03  0.7818608E-02  0.1010340E+00
         -2   -1    0    0    0  501 -0.00000000000E+00  0.00000000000E+00  0.32099752019E+03  0.32099752020E+03  0.25500000000E-02 0. -1.
          2   -1    0    0  501    0  0.00000000000E+00 -0.00000000000E+00 -0.20527996005E+03  0.20527996007E+03  0.25500000000E-02 0.  1.
    5000001    1    1    2    0    0  0.47904629951E+02  0.82683223029E+02 -0.76431471397E+02  0.23361108441E+03  0.19900000000E+03 0.  0.
   -5000001    1    1    2    0    0 -0.47904629951E+02 -0.82683223029E+02  0.19214903154E+03  0.29266639585E+03  0.19900000000E+03 0.  0.
<mgrwt>
<rscale>  0 0.51339793E+03</rscale>
<asrwt>0</asrwt>
<pdfrwt beam="1">  1        2 0.29325708E-01 0.51339793E+03</pdfrwt>
<pdfrwt beam="2">  1       -2 0.45856789E-01 0.51339793E+03</pdfrwt>
<totfact> 0.82667155E+02</totfact>
</mgrwt>
</event>
<event>
 4    1  0.5069019E-005  0.4977276E+03  0.7818608E-02  0.1014374E+00
          2   -1    0    0  501    0  0.00000000000E+00  0.00000000000E+00  0.29910296889E+04  0.29910296889E+04  0.25500000000E-02 0.  1.
         -2   -1    0    0    0  501 -0.00000000000E+00 -0.00000000000E+00 -0.20706310478E+02  0.20706310635E+02  0.25500000000E-02 0. -1.
    5000001    1    1    2    0    0  0.12261104717E+03  0.77721860439E+02  0.12705411791E+04  0.12941986108E+04  0.19900000000E+03 0.  0.
   -5000001    1    1    2    0    0 -0.12261104717E+03 -0.77721860439E+02  0.16997821993E+04  0.17175373887E+04  0.19900000000E+03 0.  0.
<mgrwt>
<rscale>  0 0.49772759E+03</rscale>
<asrwt>0</asrwt>
<pdfrwt beam="1">  1        2 0.42728965E+00 0.49772759E+03</pdfrwt>
<pdfrwt beam="2">  1       -2 0.29580465E-02 0.49772759E+03</pdfrwt>
<totfact> 0.11812256E+03</totfact>
</mgrwt>
</event>
<event>
 4    1  0.5069019E-005  0.6442400E+03  0.7818608E-02  0.9817648E-01
          2   -1    0    0  501    0  0.00000000000E+00  0.00000000000E+00  0.89503752392E+03  0.89503752393E+03  0.25500000000E-02 0.  1.
         -2   -1    0    0    0  501 -0.00000000000E+00 -0.00000000000E+00 -0.11592954986E+03  0.11592954989E+03  0.25500000000E-02 0. -1.
    5000001    1    1    2    0    0 -0.12081938288E+03 -0.20629402261E+03  0.25820804975E+03  0.40426098501E+03  0.19900000000E+03 0.  0.
   -5000001    1    1    2    0    0  0.12081938288E+03  0.20629402261E+03  0.52089992432E+03  0.60670608881E+03  0.19900000000E+03 0.  0.
<mgrwt>
<rscale>  0 0.64424001E+03</rscale>
<asrwt>0</asrwt>
<pdfrwt beam="1">  1        2 0.12786251E+00 0.64424001E+03</pdfrwt>
<pdfrwt beam="2">  1       -2 0.16561363E-01 0.64424001E+03</pdfrwt>
<totfact> 0.97320106E+02</totfact>
</mgrwt>
</event>
<event>
 4    1  0.5069019E-005  0.4975838E+03  0.7818608E-02  0.1014412E+00
         -2   -1    0    0    0  501 -0.00000000000E+00  0.00000000000E+00  0.30990430421E+03  0.30990430422E+03  0.25500000000E-02 0. -1.
          2   -1    0    0  501    0  0.00000000000E+00 -0.00000000000E+00 -0.19973072395E+03  0.19973072396E+03  0.25500000000E-02 0.  1.
    5000001    1    1    2    0    0  0.16512706101E+02  0.14758401512E+03  0.39130645135E+02  0.25136809338E+03  0.19900000000E+03 0.  0.
   -5000001    1    1    2    0    0 -0.16512706101E+02 -0.14758401512E+03  0.71042935125E+02  0.25826693480E+03  0.19900000000E+03 0.  0.
<mgrwt>
<rscale>  0 0.49758381E+03</rscale>
<asrwt>0</asrwt>
<pdfrwt beam="1">  1        2 0.28532961E-01 0.49758381E+03</pdfrwt>
<pdfrwt beam="2">  1       -2 0.44272043E-01 0.49758381E+03</pdfrwt>
<totfact> 0.91395461E+02</totfact>
</mgrwt>
</event>
<event>
 4    1  0.5069019E-005  0.6910473E+03  0.7818608E-02  0.9732666E-01
          2   -1    0    0  501    0  0.00000000000E+00  0.00000000000E+00  0.28624020833E+04  0.28624020833E+04  0.25500000000E-02 0. -1.
         -2   -1    0    0    0  501 -0.00000000000E+00 -0.00000000000E+00 -0.41708536038E+02  0.41708536116E+02  0.25500000000E-02 0.  1.
    5000001    1    1    2    0    0  0.27703179392E+03  0.41457077160E+02  0.15630474979E+04  0.16003698899E+04  0.19900000000E+03 0.  0.
   -5000001    1    1    2    0    0 -0.27703179392E+03 -0.41457077160E+02  0.12576460494E+04  0.13037407294E+04  0.19900000000E+03 0.  0.
<mgrwt>
<rscale>  0 0.69104732E+03</rscale>
<asrwt>0</asrwt>
<pdfrwt beam="1">  1        2 0.40891469E+00 0.69104732E+03</pdfrwt>
<pdfrwt beam="2">  1       -2 0.59583607E-02 0.69104732E+03</pdfrwt>
<totfact> 0.46310213E+02</totfact>
</mgrwt>
</event>
<event>
 4    1  0.5069019E-005  0.5334205E+03  0.7818608E-02  0.1005406E+00
         -2   -1    0    0    0  501 -0.00000000000E+00  0.00000000000E+00  0.16322126565E+03  0.16322126567E+03  0.25500000000E-02 0. -1.
          2   -1    0    0  501    0  0.00000000000E+00 -0.00000000000E+00 -0.43581555163E+03  0.43581555164E+03  0.25500000000E-02 0.  1.
    5000001    1    1    2    0    0  0.69106664372E+02 -0.44629191458E+02 -0.31302726733E+03  0.37994021356E+03  0.19900000000E+03 0.  0.
   -5000001    1    1    2    0    0 -0.69106664372E+02  0.44629191458E+02  0.40432981343E+02  0.21909660374E+03  0.19900000000E+03 0.  0.
<mgrwt>
<rscale>  0 0.53342053E+03</rscale>
<asrwt>0</asrwt>
<pdfrwt beam="1">  1        2 0.62259364E-01 0.53342053E+03</pdfrwt>
<pdfrwt beam="2">  1       -2 0.23317324E-01 0.53342053E+03</pdfrwt>
<totfact> 0.12752214E+03</totfact>
</mgrwt>
</event>
<event>
 4    1  0.5069019E-005  0.8011550E+03  0.7818608E-02  0.9558347E-01
         -2   -1    0    0    0  501 -0.00000000000E+00  0.00000000000E+00  0.83722335205E+02  0.83722335244E+02  0.25500000000E-02 0. -1.
          2   -1    0    0  501    0  0.00000000000E+00 -0.00000000000E+00 -0.19166013841E+04  0.19166013841E+04  0.25500000000E-02 0.  1.
    5000001    1    1    2    0    0 -0.16546882716E+03 -0.27616281772E+03 -0.12440393460E+04  0.13003386978E+04  0.19900000000E+03 0.  0.
   -5000001    1    1    2    0    0  0.16546882716E+03  0.27616281772E+03 -0.58883970289E+03  0.69998502152E+03  0.19900000000E+03 0.  0.
<mgrwt>
<rscale>  0 0.80115503E+03</rscale>
<asrwt>0</asrwt>
<pdfrwt beam="1">  1        2 0.27380017E+00 0.80115503E+03</pdfrwt>
<pdfrwt beam="2">  1       -2 0.11960335E-01 0.80115503E+03</pdfrwt>
<totfact> 0.45997719E+02</totfact>
</mgrwt>
</event>
<event>
 4    1  0.5069019E-005  0.6836062E+03  0.7818608E-02  0.9745686E-01
         -2   -1    0    0    0  501 -0.00000000000E+00  0.00000000000E+00  0.11964443413E+04  0.11964443413E+04  0.25500000000E-02 0. -1.
          2   -1    0    0  501    0  0.00000000000E+00 -0.00000000000E+00 -0.97647145171E+02  0.97647145204E+02  0.25500000000E-02 0.  1.
    5000001    1    1    2    0    0  0.12367535241E+03  0.24381604382E+03  0.45500233799E+03  0.56689503755E+03  0.19900000000E+03 0.  0.
   -5000001    1    1    2    0    0 -0.12367535241E+03 -0.24381604382E+03  0.64379485817E+03  0.72719644899E+03  0.19900000000E+03 0.  0.
<mgrwt>
<rscale>  0 0.68360624E+03</rscale>
<asrwt>0</asrwt>
<pdfrwt beam="1">  1        2 0.13949593E-01 0.68360624E+03</pdfrwt>
<pdfrwt beam="2">  1       -2 0.17092060E+00 0.68360624E+03</pdfrwt>
<totfact> 0.93522825E+01</totfact>
</mgrwt>
</event>
<event>
 4    1  0.5069019E-005  0.1085127E+04  0.7818608E-02  0.9219810E-01
         -2   -1    0    0    0  501 -0.00000000000E+00  0.00000000000E+00  0.11124721262E+03  0.11124721265E+03  0.25500000000E-02 0.  1.
          2   -1    0    0  501    0  0.00000000000E+00 -0.00000000000E+00 -0.26461374311E+04  0.26461374311E+04  0.25500000000E-02 0. -1.
    5000001    1    1    2    0    0  0.85075007456E+02  0.27665658058E+03 -0.23182252163E+04  0.23446845788E+04  0.19900000000E+03 0.  0.
   -5000001    1    1    2    0    0 -0.85075007456E+02 -0.27665658058E+03 -0.21666500222E+03  0.41270006501E+03  0.19900000000E+03 0.  0.
<mgrwt>
<rscale>  0 0.10851275E+04</rscale>
<asrwt>0</asrwt>
<pdfrwt beam="1">  1        2 0.37801959E+00 0.10851275E+04</pdfrwt>
<pdfrwt beam="2">  1       -2 0.15892461E-01 0.10851275E+04</pdfrwt>
<totfact> 0.11765927E+02</totfact>
</mgrwt>
</event>
<event>
 4    1  0.5069019E-005  0.5792218E+03  0.7818608E-02  0.9949477E-01
         -2   -1    0    0    0  501 -0.00000000000E+00  0.00000000000E+00  0.65438094143E+03  0.65438094143E+03  0.25500000000E-02 0. -1.
          2   -1    0    0  501    0  0.00000000000E+00 -0.00000000000E+00 -0.12817378949E+03  0.12817378951E+03  0.25500000000E-02 0.  1.
    5000001    1    1    2    0    0  0.24429667943E+02 -0.19797913091E+03  0.35354228637E+03  0.45209035956E+03  0.19900000000E+03 0.  0.
   -5000001    1    1    2    0    0 -0.24429667943E+02  0.19797913091E+03  0.17266486557E+03  0.33046437138E+03  0.19900000000E+03 0.  0.
<mgrwt>
<rscale>  0 0.57922184E+03</rscale>
<asrwt>0</asrwt>
<pdfrwt beam="1">  1        2 0.18310541E-01 0.57922184E+03</pdfrwt>
<pdfrwt beam="2">  1       -2 0.93482991E-01 0.57922184E+03</pdfrwt>
<totfact> 0.30865030E+02</totfact>
</mgrwt>
</event>
<event>
 4    1  0.5069019E-005  0.5216970E+03  0.7818608E-02  0.1008266E+00
          2   -1    0    0  501    0  0.00000000000E+00  0.00000000000E+00  0.10909348215E+04  0.10909348215E+04  0.25500000000E-02 0.  1.
         -2   -1    0    0    0  501 -0.00000000000E+00 -0.00000000000E+00 -0.62370309193E+02  0.62370309245E+02  0.25500000000E-02 0. -1.
    5000001    1    1    2    0    0 -0.40937006546E+02 -0.86803595212E+02  0.82084418818E+03  0.85005698863E+03  0.19900000000E+03 0.  0.
   -5000001    1    1    2    0    0  0.40937006546E+02  0.86803595212E+02  0.20772032414E+03  0.30324814214E+03  0.19900000000E+03 0.  0.
<mgrwt>
<rscale>  0 0.52169701E+03</rscale>
<asrwt>0</asrwt>
<pdfrwt beam="1">  1        2 0.15584782E+00 0.52169701E+03</pdfrwt>
<pdfrwt beam="2">  1       -2 0.89100447E-02 0.52169701E+03</pdfrwt>
<totfact> 0.20565820E+03</totfact>
</mgrwt>
</event>
<event>
 4    1  0.5069019E-005  0.5374601E+03  0.7818608E-02  0.1004439E+00
         -2   -1    0    0    0  501 -0.00000000000E+00  0.00000000000E+00  0.15431878407E+03  0.15431878409E+03  0.25500000000E-02 0. -1.
          2   -1    0    0  501    0  0.00000000000E+00 -0.00000000000E+00 -0.46796525710E+03  0.46796525710E+03  0.25500000000E-02 0.  1.
    5000001    1    1    2    0    0 -0.89969353795E+02 -0.14276428486E+03 -0.23130923426E+03  0.34868479678E+03  0.19900000000E+03 0.  0.
   -5000001    1    1    2    0    0  0.89969353795E+02  0.14276428486E+03 -0.82337238766E+02  0.27359924441E+03  0.19900000000E+03 0.  0.
<mgrwt>
<rscale>  0 0.53746006E+03</rscale>
<asrwt>0</asrwt>
<pdfrwt beam="1">  1        2 0.66852179E-01 0.53746006E+03</pdfrwt>
<pdfrwt beam="2">  1       -2 0.22045541E-01 0.53746006E+03</pdfrwt>
<totfact> 0.13002402E+03</totfact>
</mgrwt>
</event>
<event>
 4    1  0.5069019E-005  0.6165255E+03  0.7818608E-02  0.9871702E-01
         -2   -1    0    0    0  501 -0.00000000000E+00  0.00000000000E+00  0.73652498249E+02  0.73652498293E+02  0.25500000000E-02 0. -1.
          2   -1    0    0  501    0  0.00000000000E+00 -0.00000000000E+00 -0.12901929278E+04  0.12901929278E+04  0.25500000000E-02 0.  1.
    5000001    1    1    2    0    0 -0.21210888323E+02  0.21496295314E+03 -0.81538629253E+03  0.86666878279E+03  0.19900000000E+03 0.  0.
   -5000001    1    1    2    0    0  0.21210888323E+02 -0.21496295314E+03 -0.40115413701E+03  0.49717664330E+03  0.19900000000E+03 0.  0.
<mgrwt>
<rscale>  0 0.61652553E+03</rscale>
<asrwt>0</asrwt>
<pdfrwt beam="1">  1        2 0.18431326E+00 0.61652553E+03</pdfrwt>
<pdfrwt beam="2">  1       -2 0.10521786E-01 0.61652553E+03</pdfrwt>
<totfact> 0.12125686E+03</totfact>
</mgrwt>
</event>
<event>
 4    1  0.5069019E-005  0.4946083E+03  0.7818608E-02  0.1015196E+00
          2   -1    0    0  501    0  0.00000000000E+00  0.00000000000E+00  0.64400016731E+02  0.64400016782E+02  0.25500000000E-02 0.  1.
         -2   -1    0    0    0  501 -0.00000000000E+00 -0.00000000000E+00 -0.94967891981E+03  0.94967891981E+03  0.25500000000E-02 0. -1.
    5000001    1    1    2    0    0 -0.13007524781E+02 -0.14516699931E+03 -0.40621128398E+03  0.47523810939E+03  0.19900000000E+03 0.  0.
   -5000001    1    1    2    0    0  0.13007524781E+02  0.14516699931E+03 -0.47906761910E+03  0.53884082720E+03  0.19900000000E+03 0.  0.
<mgrwt>
<rscale>  0 0.49460828E+03</rscale>
<asrwt>0</asrwt>
<pdfrwt beam="1">  1        2 0.92000030E-02 0.49460828E+03</pdfrwt>
<pdfrwt beam="2">  1       -2 0.13566841E+00 0.49460828E+03</pdfrwt>
<totfact> 0.29223847E+02</totfact>
</mgrwt>
</event>
<event>
 4    1  0.5069019E-005  0.9191602E+03  0.7818608E-02  0.9401942E-01
         -2   -1    0    0    0  501 -0.00000000000E+00  0.00000000000E+00  0.12111214510E+04  0.12111214510E+04  0.25500000000E-02 0. -1.
          2   -1    0    0  501    0  0.00000000000E+00 -0.00000000000E+00 -0.17439527651E+03  0.17439527653E+03  0.25500000000E-02 0.  1.
    5000001    1    1    2    0    0  0.18973577970E+03 -0.36825498470E+03  0.51654141882E+03  0.69139528290E+03  0.19900000000E+03 0.  0.
   -5000001    1    1    2    0    0 -0.18973577970E+03  0.36825498470E+03  0.52018475566E+03  0.69412144462E+03  0.19900000000E+03 0.  0.
<mgrwt>
<rscale>  0 0.91916018E+03</rscale>
<asrwt>0</asrwt>
<pdfrwt beam="1">  1        2 0.24913611E-01 0.91916018E+03</pdfrwt>
<pdfrwt beam="2">  1       -2 0.17301735E+00 0.91916018E+03</pdfrwt>
<totfact> 0.44820362E+01</totfact>
</mgrwt>
</event>
<event>
 4    1  0.5069019E-005  0.6672679E+03  0.7818608E-02  0.9774906E-01
         -2   -1    0    0    0  501 -0.00000000000E+00  0.00000000000E+00  0.40743106211E+02  0.40743106290E+02  0.25500000000E-02 0. -1.
          2   -1    0    0  501    0  0.00000000000E+00 -0.00000000000E+00 -0.27320355132E+04  0.27320355132E+04  0.25500000000E-02 0.  1.
    5000001    1    1    2    0    0 -0.31389223891E+01 -0.26696724605E+03 -0.14317396444E+04  0.14699526430E+04  0.19900000000E+03 0.  0.
   -5000001    1    1    2    0    0  0.31389223891E+01  0.26696724605E+03 -0.12595527626E+04  0.13028259765E+04  0.19900000000E+03 0.  0.
<mgrwt>
<rscale>  0 0.66726790E+03</rscale>
<asrwt>0</asrwt>
<pdfrwt beam="1">  1        2 0.39029067E+00 0.66726790E+03</pdfrwt>
<pdfrwt beam="2">  1       -2 0.58204455E-02 0.66726790E+03</pdfrwt>
<totfact> 0.56470203E+02</totfact>
</mgrwt>
</event>
<event>
 4    1  0.5069019E-005  0.5134475E+03  0.7818608E-02  0.1010327E+00
          2   -1    0    0  501    0  0.00000000000E+00  0.00000000000E+00  0.13748540057E+04  0.13748540057E+04  0.25500000000E-02 0.  1.
         -2   -1    0    0    0  501 -0.00000000000E+00 -0.00000000000E+00 -0.47937514394E+02  0.47937514462E+02  0.25500000000E-02 0. -1.
    5000001    1    1    2    0    0 -0.99207427105E+02  0.10103763102E+03  0.88262346343E+03  0.91579249542E+03  0.19900000000E+03 0.  0.
   -5000001    1    1    2    0    0  0.99207427105E+02 -0.10103763102E+03  0.44429302791E+03  0.50699902478E+03  0.19900000000E+03 0.  0.
<mgrwt>
<rscale>  0 0.51344750E+03</rscale>
<asrwt>0</asrwt>
<pdfrwt beam="1">  1        2 0.19640770E+00 0.51344750E+03</pdfrwt>
<pdfrwt beam="2">  1       -2 0.68482170E-02 0.51344750E+03</pdfrwt>
<totfact> 0.21753311E+03</totfact>
</mgrwt>
</event>
<event>
 4    1  0.5069019E-005  0.7390895E+03  0.7818608E-02  0.9652624E-01
          2   -1    0    0  501    0  0.00000000000E+00  0.00000000000E+00  0.13072938879E+04  0.13072938879E+04  0.25500000000E-02 0.  1.
         -2   -1    0    0    0  501 -0.00000000000E+00 -0.00000000000E+00 -0.10446260771E+03  0.10446260774E+03  0.25500000000E-02 0. -1.
    5000001    1    1    2    0    0 -0.27639998785E+03  0.13644555192E+03  0.68572110813E+03  0.77770738717E+03  0.19900000000E+03 0.  0.
   -5000001    1    1    2    0    0  0.27639998785E+03 -0.13644555192E+03  0.51711017210E+03  0.63404910852E+03  0.19900000000E+03 0.  0.
<mgrwt>
<rscale>  0 0.73908952E+03</rscale>
<asrwt>0</asrwt>
<pdfrwt beam="1">  1        2 0.18675630E+00 0.73908952E+03</pdfrwt>
<pdfrwt beam="2">  1       -2 0.14923228E-01 0.73908952E+03</pdfrwt>
<totfact> 0.66188694E+02</totfact>
</mgrwt>
</event>
<event>
 4    1  0.5069019E-005  0.5331041E+03  0.7818608E-02  0.1005482E+00
         -2   -1    0    0    0  501 -0.00000000000E+00  0.00000000000E+00  0.11159024609E+03  0.11159024612E+03  0.25500000000E-02 0. -1.
          2   -1    0    0  501    0  0.00000000000E+00 -0.00000000000E+00 -0.63670435878E+03  0.63670435878E+03  0.25500000000E-02 0.  1.
    5000001    1    1    2    0    0  0.36774371381E+02 -0.12503168087E+03 -0.43136800068E+03  0.49261001575E+03  0.19900000000E+03 0.  0.
   -5000001    1    1    2    0    0 -0.36774371381E+02  0.12503168087E+03 -0.93746112005E+02  0.25568458915E+03  0.19900000000E+03 0.  0.
<mgrwt>
<rscale>  0 0.53310410E+03</rscale>
<asrwt>0</asrwt>
<pdfrwt beam="1">  1        2 0.90957763E-01 0.53310410E+03</pdfrwt>
<pdfrwt beam="2">  1       -2 0.15941464E-01 0.53310410E+03</pdfrwt>
<totfact> 0.15945557E+03</totfact>
</mgrwt>
</event>
<event>
 4    1  0.5069019E-005  0.6488796E+03  0.7818608E-02  0.9808884E-01
         -2   -1    0    0    0  501 -0.00000000000E+00  0.00000000000E+00  0.54207954335E+02  0.54207954395E+02  0.25500000000E-02 0. -1.
          2   -1    0    0  501    0  0.00000000000E+00 -0.00000000000E+00 -0.19418030150E+04  0.19418030150E+04  0.25500000000E-02 0.  1.
    5000001    1    1    2    0    0  0.18547307573E+03  0.17298749830E+03 -0.83139467709E+03  0.89170793732E+03  0.19900000000E+03 0.  0.
   -5000001    1    1    2    0    0 -0.18547307573E+03 -0.17298749830E+03 -0.10562003836E+04  0.11043030321E+04  0.19900000000E+03 0.  0.
<mgrwt>
<rscale>  0 0.64887956E+03</rscale>
<asrwt>0</asrwt>
<pdfrwt beam="1">  1        2 0.27740039E+00 0.64887956E+03</pdfrwt>
<pdfrwt beam="2">  1       -2 0.77439947E-02 0.64887956E+03</pdfrwt>
<totfact> 0.91246775E+02</totfact>
</mgrwt>
</event>
<event>
 4    1  0.5069019E-005  0.5163045E+03  0.7818608E-02  0.1009609E+00
         -2   -1    0    0    0  501 -0.00000000000E+00  0.00000000000E+00  0.56883875477E+02  0.56883875534E+02  0.25500000000E-02 0. -1.
          2   -1    0    0  501    0  0.00000000000E+00 -0.00000000000E+00 -0.11715549958E+04  0.11715549958E+04  0.25500000000E-02 0.  1.
    5000001    1    1    2    0    0  0.16277180836E+03  0.18946094834E+02 -0.52471475302E+03  0.58461969531E+03  0.19900000000E+03 0.  0.
   -5000001    1    1    2    0    0 -0.16277180836E+03 -0.18946094834E+02 -0.58995636734E+03  0.64381917606E+03  0.19900000000E+03 0.  0.
<mgrwt>
<rscale>  0 0.51630452E+03</rscale>
<asrwt>0</asrwt>
<pdfrwt beam="1">  1        2 0.16736498E+00 0.51630452E+03</pdfrwt>
<pdfrwt beam="2">  1       -2 0.81262687E-02 0.51630452E+03</pdfrwt>
<totfact> 0.21423681E+03</totfact>
</mgrwt>
</event>
<event>
 4    1  0.5069019E-005  0.5412887E+03  0.7818608E-02  0.1003531E+00
         -2   -1    0    0    0  501 -0.00000000000E+00  0.00000000000E+00  0.46118237103E+03  0.46118237103E+03  0.25500000000E-02 0. -1.
          2   -1    0    0  501    0  0.00000000000E+00 -0.00000000000E+00 -0.15882735624E+03  0.15882735626E+03  0.25500000000E-02 0.  1.
    5000001    1    1    2    0    0 -0.16566034677E+03  0.65774632545E+02  0.10154280986E+03  0.28579992129E+03  0.19900000000E+03 0.  0.
   -5000001    1    1    2    0    0  0.16566034677E+03 -0.65774632545E+02  0.20081220493E+03  0.33420980600E+03  0.19900000000E+03 0.  0.
<mgrwt>
<rscale>  0 0.54128875E+03</rscale>
<asrwt>0</asrwt>
<pdfrwt beam="1">  1        2 0.22689622E-01 0.54128875E+03</pdfrwt>
<pdfrwt beam="2">  1       -2 0.65883196E-01 0.54128875E+03</pdfrwt>
<totfact> 0.52412356E+02</totfact>
</mgrwt>
</event>
<event>
 4    1  0.5069019E-005  0.9247223E+03  0.7818608E-02  0.9395194E-01
         -2   -1    0    0    0  501 -0.00000000000E+00  0.00000000000E+00  0.11597068081E+03  0.11597068083E+03  0.25500000000E-02 0. -1.
          2   -1    0    0  501    0  0.00000000000E+00 -0.00000000000E+00 -0.18433781392E+04  0.18433781392E+04  0.25500000000E-02 0.  1.
    5000001    1    1    2    0    0  0.34459735098E+03  0.15372112861E+03 -0.12415448418E+04  0.13127879166E+04  0.19900000000E+03 0.  0.
   -5000001    1    1    2    0    0 -0.34459735098E+03 -0.15372112861E+03 -0.48586261656E+03  0.64656090344E+03  0.19900000000E+03 0.  0.
<mgrwt>
<rscale>  0 0.92472227E+03</rscale>
<asrwt>0</asrwt>
<pdfrwt beam="1">  1        2 0.26333972E+00 0.92472227E+03</pdfrwt>
<pdfrwt beam="2">  1       -2 0.16567241E-01 0.92472227E+03</pdfrwt>
<totfact> 0.28734099E+02</totfact>
</mgrwt>
</event>
<event>
 4    1  0.5069019E-005  0.7191676E+03  0.7818608E-02  0.9685003E-01
          2   -1    0    0  501    0  0.00000000000E+00  0.00000000000E+00  0.15843899314E+04  0.15843899314E+04  0.25500000000E-02 0.  1.
         -2   -1    0    0    0  501 -0.00000000000E+00 -0.00000000000E+00 -0.81609019718E+02  0.81609019758E+02  0.25500000000E-02 0. -1.
    5000001    1    1    2    0    0 -0.12411490149E+03  0.18262049068E+03  0.28263778164E+03  0.41017053526E+03  0.19900000000E+03 0.  0.
   -5000001    1    1    2    0    0  0.12411490149E+03 -0.18262049068E+03  0.12201431301E+04  0.12558284159E+04  0.19900000000E+03 0.  0.
<mgrwt>
<rscale>  0 0.71916760E+03</rscale>
<asrwt>0</asrwt>
<pdfrwt beam="1">  1        2 0.22634141E+00 0.71916760E+03</pdfrwt>
<pdfrwt beam="2">  1       -2 0.11658432E-01 0.71916760E+03</pdfrwt>
<totfact> 0.71279572E+02</totfact>
</mgrwt>
</event>
<event>
 4    1  0.5069019E-005  0.4917270E+03  0.7818608E-02  0.1015961E+00
         -2   -1    0    0    0  501 -0.00000000000E+00  0.00000000000E+00  0.29179173447E+02  0.29179173559E+02  0.25500000000E-02 0. -1.
          2   -1    0    0  501    0  0.00000000000E+00 -0.00000000000E+00 -0.20716443705E+04  0.20716443705E+04  0.25500000000E-02 0.  1.
    5000001    1    1    2    0    0  0.21707198931E+02  0.12973987079E+03 -0.76688556498E+03  0.80313019264E+03  0.19900000000E+03 0.  0.
   -5000001    1    1    2    0    0 -0.21707198931E+02 -0.12973987079E+03 -0.12755796320E+04  0.12976933514E+04  0.19900000000E+03 0.  0.
<mgrwt>
<rscale>  0 0.49172704E+03</rscale>
<asrwt>0</asrwt>
<pdfrwt beam="1">  1        2 0.29594910E+00 0.49172704E+03</pdfrwt>
<pdfrwt beam="2">  1       -2 0.41684547E-02 0.49172704E+03</pdfrwt>
<totfact> 0.20813347E+03</totfact>
</mgrwt>
</event>
<event>
 4    1  0.5069019E-005  0.6993593E+03  0.7818608E-02  0.9718328E-01
         -2   -1    0    0    0  501 -0.00000000000E+00  0.00000000000E+00  0.63589602289E+03  0.63589602290E+03  0.25500000000E-02 0. -1.
          2   -1    0    0  501    0  0.00000000000E+00 -0.00000000000E+00 -0.19228908074E+03  0.19228908076E+03  0.25500000000E-02 0.  1.
    5000001    1    1    2    0    0  0.27471880101E+03 -0.52340409136E+02  0.14267476374E+03  0.37170825423E+03  0.19900000000E+03 0.  0.
   -5000001    1    1    2    0    0 -0.27471880101E+03  0.52340409136E+02  0.30093217841E+03  0.45647684942E+03  0.19900000000E+03 0.  0.
<mgrwt>
<rscale>  0 0.69935931E+03</rscale>
<asrwt>0</asrwt>
<pdfrwt beam="1">  1        2 0.27469869E-01 0.69935931E+03</pdfrwt>
<pdfrwt beam="2">  1       -2 0.90842289E-01 0.69935931E+03</pdfrwt>
<totfact> 0.20545765E+02</totfact>
</mgrwt>
</event>
<event>
 4    1  0.5069019E-005  0.8664958E+03  0.7818608E-02  0.9468460E-01
         -2   -1    0    0    0  501 -0.00000000000E+00  0.00000000000E+00  0.13219867769E+03  0.13219867771E+03  0.25500000000E-02 0. -1.
          2   -1    0    0  501    0  0.00000000000E+00 -0.00000000000E+00 -0.14198609362E+04  0.14198609362E+04  0.25500000000E-02 0.  1.
    5000001    1    1    2    0    0  0.27470307365E+03 -0.21986700070E+03 -0.36461515104E+03  0.54437899026E+03  0.19900000000E+03 0.  0.
   -5000001    1    1    2    0    0 -0.27470307365E+03  0.21986700070E+03 -0.92304710750E+03  0.10076806237E+04  0.19900000000E+03 0.  0.
<mgrwt>
<rscale>  0 0.86649579E+03</rscale>
<asrwt>0</asrwt>
<pdfrwt beam="1">  1        2 0.20283727E+00 0.86649579E+03</pdfrwt>
<pdfrwt beam="2">  1       -2 0.18885526E-01 0.86649579E+03</pdfrwt>
<totfact> 0.38195059E+02</totfact>
</mgrwt>
</event>
<event>
 4    1  0.5069019E-005  0.8464555E+03  0.7818608E-02  0.9495107E-01
         -2   -1    0    0    0  501 -0.00000000000E+00  0.00000000000E+00  0.19026004923E+03  0.19026004924E+03  0.25500000000E-02 0. -1.
          2   -1    0    0  501    0  0.00000000000E+00 -0.00000000000E+00 -0.94145743362E+03  0.94145743362E+03  0.25500000000E-02 0.  1.
    5000001    1    1    2    0    0  0.37345512370E+03 -0.65855295388E+01 -0.37166892173E+03  0.56325028717E+03  0.19900000000E+03 0.  0.
   -5000001    1    1    2    0    0 -0.37345512370E+03  0.65855295388E+01 -0.37952846266E+03  0.56846719570E+03  0.19900000000E+03 0.  0.
<mgrwt>
<rscale>  0 0.84645552E+03</rscale>
<asrwt>0</asrwt>
<pdfrwt beam="1">  1        2 0.13449392E+00 0.84645552E+03</pdfrwt>
<pdfrwt beam="2">  1       -2 0.27180007E-01 0.84645552E+03</pdfrwt>
<totfact> 0.37672152E+02</totfact>
</mgrwt>
</event>
<event>
 4    1  0.5069019E-005  0.6603574E+03  0.7818608E-02  0.9787536E-01
         -2   -1    0    0    0  501 -0.00000000000E+00  0.00000000000E+00  0.30587362666E+02  0.30587362773E+02  0.25500000000E-02 0. -1.
          2   -1    0    0  501    0  0.00000000000E+00 -0.00000000000E+00 -0.35641510214E+04  0.35641510214E+04  0.25500000000E-02 0.  1.
    5000001    1    1    2    0    0 -0.25167586832E+03 -0.74392975850E+02 -0.16400584250E+04  0.16728023479E+04  0.19900000000E+03 0.  0.
   -5000001    1    1    2    0    0  0.25167586832E+03  0.74392975850E+02 -0.18935052337E+04  0.19219360363E+04  0.19900000000E+03 0.  0.
<mgrwt>
<rscale>  0 0.66035742E+03</rscale>
<asrwt>0</asrwt>
<pdfrwt beam="1">  1        2 0.50916417E+00 0.66035742E+03</pdfrwt>
<pdfrwt beam="2">  1       -2 0.43696255E-02 0.66035742E+03</pdfrwt>
<totfact> 0.30153317E+02</totfact>
</mgrwt>
</event>
<event>
 4    1  0.5069019E-005  0.9600884E+03  0.7818608E-02  0.9353436E-01
          2   -1    0    0  501    0  0.00000000000E+00  0.00000000000E+00  0.13389347277E+04  0.13389347277E+04  0.25500000000E-02 0.  1.
         -2   -1    0    0    0  501 -0.00000000000E+00 -0.00000000000E+00 -0.17210878663E+03  0.17210878665E+03  0.25500000000E-02 0. -1.
    5000001    1    1    2    0    0  0.10563560752E+03  0.37956502785E+03  0.88042200617E+03  0.98487176875E+03  0.19900000000E+03 0.  0.
   -5000001    1    1    2    0    0 -0.10563560752E+03 -0.37956502785E+03  0.28640393492E+03  0.52617174561E+03  0.19900000000E+03 0.  0.
<mgrwt>
<rscale>  0 0.96008839E+03</rscale>
<asrwt>0</asrwt>
<pdfrwt beam="1">  1        2 0.19127638E+00 0.96008839E+03</pdfrwt>
<pdfrwt beam="2">  1       -2 0.24586971E-01 0.96008839E+03</pdfrwt>
<totfact> 0.26342195E+02</totfact>
</mgrwt>
</event>
<event>
 4    1  0.5069019E-005  0.8629534E+03  0.7818608E-02  0.9473114E-01
         -2   -1    0    0    0  501 -0.00000000000E+00  0.00000000000E+00  0.12226680793E+03  0.12226680796E+03  0.25500000000E-02 0. -1.
          2   -1    0    0  501    0  0.00000000000E+00 -0.00000000000E+00 -0.15226711658E+04  0.15226711658E+04  0.25500000000E-02 0.  1.
    5000001    1    1    2    0    0  0.18554158572E+03  0.25745673177E+03 -0.29198969500E+03  0.47494066024E+03  0.19900000000E+03 0.  0.
   -5000001    1    1    2    0    0 -0.18554158572E+03 -0.25745673177E+03 -0.11084146629E+04  0.11699973136E+04  0.19900000000E+03 0.  0.
<mgrwt>
<rscale>  0 0.86295340E+03</rscale>
<asrwt>0</asrwt>
<pdfrwt beam="1">  1        2 0.21752444E+00 0.86295340E+03</pdfrwt>
<pdfrwt beam="2">  1       -2 0.17466688E-01 0.86295340E+03</pdfrwt>
<totfact> 0.38573033E+02</totfact>
</mgrwt>
</event>
<event>
 4    1  0.5069019E-005  0.8149358E+03  0.7818608E-02  0.9538646E-01
          2   -1    0    0  501    0  0.00000000000E+00  0.00000000000E+00  0.13785835789E+04  0.13785835789E+04  0.25500000000E-02 0.  1.
         -2   -1    0    0    0  501 -0.00000000000E+00 -0.00000000000E+00 -0.12043526130E+03  0.12043526132E+03  0.25500000000E-02 0. -1.
    5000001    1    1    2    0    0 -0.18860086696E+03 -0.20954181802E+03  0.23050269734E+03  0.41498259481E+03  0.19900000000E+03 0.  0.
   -5000001    1    1    2    0    0  0.18860086696E+03  0.20954181802E+03  0.10276456203E+04  0.10840362455E+04  0.19900000000E+03 0.  0.
<mgrwt>
<rscale>  0 0.81493576E+03</rscale>
<asrwt>0</asrwt>
<pdfrwt beam="1">  1        2 0.19694049E+00 0.81493576E+03</pdfrwt>
<pdfrwt beam="2">  1       -2 0.17205039E-01 0.81493576E+03</pdfrwt>
<totfact> 0.47347021E+02</totfact>
</mgrwt>
</event>
<event>
 4    1  0.5069019E-005  0.9741238E+03  0.7818608E-02  0.9337390E-01
          2   -1    0    0  501    0  0.00000000000E+00  0.00000000000E+00  0.10987041433E+04  0.10987041433E+04  0.25500000000E-02 0.  1.
         -2   -1    0    0    0  501 -0.00000000000E+00 -0.00000000000E+00 -0.21591736838E+03  0.21591736840E+03  0.25500000000E-02 0. -1.
    5000001    1    1    2    0    0 -0.31229282794E+03  0.25343834527E+03  0.18579665588E+03  0.48567396737E+03  0.19900000000E+03 0.  0.
   -5000001    1    1    2    0    0  0.31229282794E+03 -0.25343834527E+03  0.69699011906E+03  0.82894754436E+03  0.19900000000E+03 0.  0.
<mgrwt>
<rscale>  0 0.97412383E+03</rscale>
<asrwt>0</asrwt>
<pdfrwt beam="1">  1        2 0.15695774E+00 0.97412383E+03</pdfrwt>
<pdfrwt beam="2">  1       -2 0.30845338E-01 0.97412383E+03</pdfrwt>
<totfact> 0.23747952E+02</totfact>
</mgrwt>
</event>
<event>
 4    1  0.5069019E-005  0.7061599E+03  0.7818608E-02  0.9706756E-01
         -2   -1    0    0    0  501 -0.00000000000E+00  0.00000000000E+00  0.77108914577E+03  0.77108914578E+03  0.25500000000E-02 0. -1.
          2   -1    0    0  501    0  0.00000000000E+00 -0.00000000000E+00 -0.16167450350E+03  0.16167450352E+03  0.25500000000E-02 0.  1.
    5000001    1    1    2    0    0  0.43399437754E+02 -0.27142464973E+03  0.43351737171E+03  0.55053897523E+03  0.19900000000E+03 0.  0.
   -5000001    1    1    2    0    0 -0.43399437754E+02  0.27142464973E+03  0.17589727056E+03  0.38222467407E+03  0.19900000000E+03 0.  0.
<mgrwt>
<rscale>  0 0.70615991E+03</rscale>
<asrwt>0</asrwt>
<pdfrwt beam="1">  1        2 0.23096358E-01 0.70615991E+03</pdfrwt>
<pdfrwt beam="2">  1       -2 0.11015559E+00 0.70615991E+03</pdfrwt>
<totfact> 0.15887244E+02</totfact>
</mgrwt>
</event>
<event>
 4    1  0.5069019E-005  0.1266317E+04  0.7818608E-02  0.9056711E-01
          2   -1    0    0  501    0  0.00000000000E+00  0.00000000000E+00  0.12917708023E+04  0.12917708023E+04  0.25500000000E-02 0.  1.
         -2   -1    0    0    0  501 -0.00000000000E+00 -0.00000000000E+00 -0.31034134339E+03  0.31034134340E+03  0.25500000000E-02 0. -1.
    5000001    1    1    2    0    0  0.48946859179E+03 -0.25197726651E+03  0.79597809284E+03  0.98805575221E+03  0.19900000000E+03 0.  0.
   -5000001    1    1    2    0    0 -0.48946859179E+03  0.25197726651E+03  0.18545136603E+03  0.61405639346E+03  0.19900000000E+03 0.  0.
<mgrwt>
<rscale>  0 0.12663173E+04</rscale>
<asrwt>0</asrwt>
<pdfrwt beam="1">  1        2 0.18453869E+00 0.12663173E+04</pdfrwt>
<pdfrwt beam="2">  1       -2 0.44334476E-01 0.12663173E+04</pdfrwt>
<totfact> 0.89918245E+01</totfact>
</mgrwt>
</event>
<event>
 4    1  0.5069019E-005  0.6141770E+03  0.7818608E-02  0.9876422E-01
          2   -1    0    0  501    0  0.00000000000E+00  0.00000000000E+00  0.23725524944E+04  0.23725524944E+04  0.25500000000E-02 0.  1.
         -2   -1    0    0    0  501 -0.00000000000E+00 -0.00000000000E+00 -0.39747629344E+02  0.39747629426E+02  0.25500000000E-02 0. -1.
    5000001    1    1    2    0    0 -0.18597944255E+03 -0.11677067788E+03  0.14825414947E+04  0.15118710355E+04  0.19900000000E+03 0.  0.
   -5000001    1    1    2    0    0  0.18597944255E+03  0.11677067788E+03  0.85026337032E+03  0.90042908836E+03  0.19900000000E+03 0.  0.
<mgrwt>
<rscale>  0 0.61417697E+03</rscale>
<asrwt>0</asrwt>
<pdfrwt beam="1">  1        2 0.33893618E+00 0.61417697E+03</pdfrwt>
<pdfrwt beam="2">  1       -2 0.56782310E-02 0.61417697E+03</pdfrwt>
<totfact> 0.90419550E+02</totfact>
</mgrwt>
</event>
<event>
 4    1  0.5069019E-005  0.8056036E+03  0.7818608E-02  0.9551941E-01
          2   -1    0    0  501    0  0.00000000000E+00  0.00000000000E+00  0.14415637623E+04  0.14415637623E+04  0.25500000000E-02 0.  1.
         -2   -1    0    0    0  501 -0.00000000000E+00 -0.00000000000E+00 -0.11255090663E+03  0.11255090665E+03  0.25500000000E-02 0. -1.
    5000001    1    1    2    0    0 -0.28114675512E+03  0.20175525551E+03  0.56062623828E+03  0.68822340856E+03  0.19900000000E+03 0.  0.
   -5000001    1    1    2    0    0  0.28114675512E+03 -0.20175525551E+03  0.76838661740E+03  0.86589126040E+03  0.19900000000E+03 0.  0.
<mgrwt>
<rscale>  0 0.80560365E+03</rscale>
<asrwt>0</asrwt>
<pdfrwt beam="1">  1        2 0.20593769E+00 0.80560365E+03</pdfrwt>
<pdfrwt beam="2">  1       -2 0.16078701E-01 0.80560365E+03</pdfrwt>
<totfact> 0.49216352E+02</totfact>
</mgrwt>
</event>
<event>
 4    1  0.5069019E-005  0.7705306E+03  0.7818608E-02  0.9603680E-01
         -2   -1    0    0    0  501 -0.00000000000E+00  0.00000000000E+00  0.60052116341E+02  0.60052116396E+02  0.25500000000E-02 0.  1.
          2   -1    0    0  501    0  0.00000000000E+00 -0.00000000000E+00 -0.24716758301E+04  0.24716758301E+04  0.25500000000E-02 0. -1.
    5000001    1    1    2    0    0  0.29668884881E+03 -0.13872806704E+03 -0.13355287534E+04  0.13894271484E+04  0.19900000000E+03 0.  0.
   -5000001    1    1    2    0    0 -0.29668884881E+03  0.13872806704E+03 -0.10760949603E+04  0.11423007981E+04  0.19900000000E+03 0.  0.
<mgrwt>
<rscale>  0 0.77053063E+03</rscale>
<asrwt>0</asrwt>
<pdfrwt beam="1">  1        2 0.35309648E+00 0.77053063E+03</pdfrwt>
<pdfrwt beam="2">  1       -2 0.85788753E-02 0.77053063E+03</pdfrwt>
<totfact> 0.41341752E+02</totfact>
</mgrwt>
</event>
<event>
 4    1  0.5069019E-005  0.1525016E+04  0.7818608E-02  0.8867986E-01
         -2   -1    0    0    0  501 -0.00000000000E+00  0.00000000000E+00  0.62942900535E+03  0.62942900535E+03  0.25500000000E-02 0. -1.
          2   -1    0    0  501    0  0.00000000000E+00 -0.00000000000E+00 -0.92372351246E+03  0.92372351246E+03  0.25500000000E-02 0.  1.
    5000001    1    1    2    0    0  0.56906699077E+03  0.41833601152E+03 -0.35827642752E+03  0.81658144544E+03  0.19900000000E+03 0.  0.
   -5000001    1    1    2    0    0 -0.56906699077E+03 -0.41833601152E+03  0.63981920404E+02  0.73657107238E+03  0.19900000000E+03 0.  0.
<mgrwt>
<rscale>  0 0.15250159E+04</rscale>
<asrwt>0</asrwt>
<pdfrwt beam="1">  1        2 0.13196050E+00 0.15250159E+04</pdfrwt>
<pdfrwt beam="2">  1       -2 0.89918430E-01 0.15250159E+04</pdfrwt>
<totfact> 0.32124132E+01</totfact>
</mgrwt>
</event>
<event>
 4    1  0.5069019E-005  0.6363513E+03  0.7818608E-02  0.9832733E-01
         -2   -1    0    0    0  501 -0.00000000000E+00  0.00000000000E+00  0.17469566945E+03  0.17469566947E+03  0.25500000000E-02 0.  1.
          2   -1    0    0  501    0  0.00000000000E+00 -0.00000000000E+00 -0.57949772070E+03  0.57949772071E+03  0.25500000000E-02 0. -1.
    5000001    1    1    2    0    0  0.18696787686E+03  0.14058358558E+03 -0.30094970665E+03  0.42999122950E+03  0.19900000000E+03 0.  0.
   -5000001    1    1    2    0    0 -0.18696787686E+03 -0.14058358558E+03 -0.10385234459E+03  0.32420216068E+03  0.19900000000E+03 0.  0.
<mgrwt>
<rscale>  0 0.63635129E+03</rscale>
<asrwt>0</asrwt>
<pdfrwt beam="1">  1        2 0.82785388E-01 0.63635129E+03</pdfrwt>
<pdfrwt beam="2">  1       -2 0.24956524E-01 0.63635129E+03</pdfrwt>
<totfact> 0.81558432E+02</totfact>
</mgrwt>
</event>
<event>
 4    1  0.5069019E-005  0.5244195E+03  0.7818608E-02  0.1007595E+00
          2   -1    0    0  501    0  0.00000000000E+00  0.00000000000E+00  0.11039014706E+04  0.11039014706E+04  0.25500000000E-02 0.  1.
         -2   -1    0    0    0  501 -0.00000000000E+00 -0.00000000000E+00 -0.62282693223E+02  0.62282693275E+02  0.25500000000E-02 0. -1.
    5000001    1    1    2    0    0 -0.11526940461E+02  0.16950033976E+03  0.55866047859E+03  0.61690012634E+03  0.19900000000E+03 0.  0.
   -5000001    1    1    2    0    0  0.11526940461E+02 -0.16950033976E+03  0.48295829882E+03  0.54928403757E+03  0.19900000000E+03 0.  0.
<mgrwt>
<rscale>  0 0.52441951E+03</rscale>
<asrwt>0</asrwt>
<pdfrwt beam="1">  1        2 0.15770021E+00 0.52441951E+03</pdfrwt>
<pdfrwt beam="2">  1       -2 0.88975274E-02 0.52441951E+03</pdfrwt>
<totfact> 0.20258073E+03</totfact>
</mgrwt>
</event>
<event>
 4    1  0.5069019E-005  0.5820270E+03  0.7818608E-02  0.9943412E-01
          2   -1    0    0  501    0  0.00000000000E+00  0.00000000000E+00  0.48373506234E+03  0.48373506235E+03  0.25500000000E-02 0. -1.
         -2   -1    0    0    0  501 -0.00000000000E+00 -0.00000000000E+00 -0.17507278804E+03  0.17507278805E+03  0.25500000000E-02 0.  1.
    5000001    1    1    2    0    0  0.12334285074E+03  0.15820175997E+03  0.23313251648E+03  0.36632366280E+03  0.19900000000E+03 0.  0.
   -5000001    1    1    2    0    0 -0.12334285074E+03 -0.15820175997E+03  0.75529757830E+02  0.29248418761E+03  0.19900000000E+03 0.  0.
<mgrwt>
<rscale>  0 0.58202696E+03</rscale>
<asrwt>0</asrwt>
<pdfrwt beam="1">  1        2 0.69105008E-01 0.58202696E+03</pdfrwt>
<pdfrwt beam="2">  1       -2 0.25010399E-01 0.58202696E+03</pdfrwt>
<totfact> 0.10007148E+03</totfact>
</mgrwt>
</event>
<event>
 4    1  0.5069019E-005  0.7632017E+03  0.7818608E-02  0.9614864E-01
         -2   -1    0    0    0  501 -0.00000000000E+00  0.00000000000E+00  0.82971465731E+02  0.82971465770E+02  0.25500000000E-02 0. -1.
          2   -1    0    0  501    0  0.00000000000E+00 -0.00000000000E+00 -0.17550515596E+04  0.17550515596E+04  0.25500000000E-02 0.  1.
    5000001    1    1    2    0    0 -0.28399425439E+03  0.10896091242E+03 -0.55629292693E+03  0.66452090826E+03  0.19900000000E+03 0.  0.
   -5000001    1    1    2    0    0  0.28399425439E+03 -0.10896091242E+03 -0.11157871670E+04  0.11735021171E+04  0.19900000000E+03 0.  0.
<mgrwt>
<rscale>  0 0.76320168E+03</rscale>
<asrwt>0</asrwt>
<pdfrwt beam="1">  1        2 0.25072163E+00 0.76320168E+03</pdfrwt>
<pdfrwt beam="2">  1       -2 0.11853068E-01 0.76320168E+03</pdfrwt>
<totfact> 0.56542942E+02</totfact>
</mgrwt>
</event>
<event>
 4    1  0.5069019E-005  0.6108992E+03  0.7818608E-02  0.9883048E-01
          2   -1    0    0  501    0  0.00000000000E+00  0.00000000000E+00  0.30594661105E+04  0.30594661105E+04  0.25500000000E-02 0.  1.
         -2   -1    0    0    0  501 -0.00000000000E+00 -0.00000000000E+00 -0.30495339488E+02  0.30495339594E+02  0.25500000000E-02 0. -1.
    5000001    1    1    2    0    0 -0.14717082188E+03 -0.17897866151E+03  0.15022560103E+04  0.15329927373E+04  0.19900000000E+03 0.  0.
   -5000001    1    1    2    0    0  0.14717082188E+03  0.17897866151E+03  0.15267147607E+04  0.15569687128E+04  0.19900000000E+03 0.  0.
<mgrwt>
<rscale>  0 0.61089920E+03</rscale>
<asrwt>0</asrwt>
<pdfrwt beam="1">  1        2 0.43706650E+00 0.61089920E+03</pdfrwt>
<pdfrwt beam="2">  1       -2 0.43564780E-02 0.61089920E+03</pdfrwt>
<totfact> 0.59378471E+02</totfact>
</mgrwt>
</event>
<event>
 4    1  0.5069019E-005  0.7663823E+03  0.7818608E-02  0.9609994E-01
         -2   -1    0    0    0  501 -0.00000000000E+00  0.00000000000E+00  0.91261839567E+03  0.91261839568E+03  0.25500000000E-02 0. -1.
          2   -1    0    0  501    0  0.00000000000E+00 -0.00000000000E+00 -0.16089468022E+03  0.16089468024E+03  0.25500000000E-02 0.  1.
    5000001    1    1    2    0    0  0.24941097784E+03  0.14538717015E+03  0.15935049676E+03  0.38514522707E+03  0.19900000000E+03 0.  0.
   -5000001    1    1    2    0    0 -0.24941097784E+03 -0.14538717015E+03  0.59237321869E+03  0.68836784885E+03  0.19900000000E+03 0.  0.
<mgrwt>
<rscale>  0 0.76638227E+03</rscale>
<asrwt>0</asrwt>
<pdfrwt beam="1">  1        2 0.22984954E-01 0.76638227E+03</pdfrwt>
<pdfrwt beam="2">  1       -2 0.13037406E+00 0.76638227E+03</pdfrwt>
<totfact> 0.10507709E+02</totfact>
</mgrwt>
</event>
<event>
 4    1  0.5069019E-005  0.6471032E+03  0.7818608E-02  0.9812230E-01
         -2   -1    0    0    0  501 -0.00000000000E+00  0.00000000000E+00  0.29611105669E+02  0.29611105779E+02  0.25500000000E-02 0. -1.
          2   -1    0    0  501    0  0.00000000000E+00 -0.00000000000E+00 -0.35353508696E+04  0.35353508696E+04  0.25500000000E-02 0.  1.
    5000001    1    1    2    0    0 -0.18772316780E+03 -0.16834657737E+03 -0.15392122937E+04  0.15723727430E+04  0.19900000000E+03 0.  0.
   -5000001    1    1    2    0    0  0.18772316780E+03  0.16834657737E+03 -0.19665274703E+04  0.19925892324E+04  0.19900000000E+03 0.  0.
<mgrwt>
<rscale>  0 0.64710323E+03</rscale>
<asrwt>0</asrwt>
<pdfrwt beam="1">  1        2 0.50504986E+00 0.64710323E+03</pdfrwt>
<pdfrwt beam="2">  1       -2 0.42301602E-02 0.64710323E+03</pdfrwt>
<totfact> 0.33043761E+02</totfact>
</mgrwt>
</event>
<event>
 4    1  0.5069019E-005  0.8144340E+03  0.7818608E-02  0.9539356E-01
          2   -1    0    0  501    0  0.00000000000E+00  0.00000000000E+00  0.42489215763E+03  0.42489215763E+03  0.25500000000E-02 0.  1.
         -2   -1    0    0    0  501 -0.00000000000E+00 -0.00000000000E+00 -0.39027713330E+03  0.39027713331E+03  0.25500000000E-02 0. -1.
    5000001    1    1    2    0    0  0.34330274394E+03 -0.61998618386E+02  0.84629595843E+02  0.41044338364E+03  0.19900000000E+03 0.  0.
   -5000001    1    1    2    0    0 -0.34330274394E+03  0.61998618386E+02 -0.50014571514E+02  0.40472590730E+03  0.19900000000E+03 0.  0.
<mgrwt>
<rscale>  0 0.81443402E+03</rscale>
<asrwt>0</asrwt>
<pdfrwt beam="1">  1        2 0.60698880E-01 0.81443402E+03</pdfrwt>
<pdfrwt beam="2">  1       -2 0.55753876E-01 0.81443402E+03</pdfrwt>
<totfact> 0.24573740E+02</totfact>
</mgrwt>
</event>
<event>
 4    1  0.5069019E-005  0.4085151E+03  0.7818608E-02  0.1040870E+00
         -2   -1    0    0    0  501 -0.00000000000E+00  0.00000000000E+00  0.35472031465E+02  0.35472031557E+02  0.25500000000E-02 0. -1.
          2   -1    0    0  501    0  0.00000000000E+00 -0.00000000000E+00 -0.11761704045E+04  0.11761704045E+04  0.25500000000E-02 0.  1.
    5000001    1    1    2    0    0  0.36239732591E+02 -0.20487599470E+02 -0.62870369007E+03  0.66075894989E+03  0.19900000000E+03 0.  0.
   -5000001    1    1    2    0    0 -0.36239732591E+02  0.20487599470E+02 -0.51199468295E+03  0.55088348616E+03  0.19900000000E+03 0.  0.
<mgrwt>
<rscale>  0 0.40851513E+03</rscale>
<asrwt>0</asrwt>
<pdfrwt beam="1">  1        2 0.16802432E+00 0.40851513E+03</pdfrwt>
<pdfrwt beam="2">  1       -2 0.50674338E-02 0.40851513E+03</pdfrwt>
<totfact> 0.44532076E+03</totfact>
</mgrwt>
</event>
<event>
 4    1  0.5069019E-005  0.5602743E+03  0.7818608E-02  0.9991434E-01
          2   -1    0    0  501    0  0.00000000000E+00  0.00000000000E+00  0.12247761664E+04  0.12247761664E+04  0.25500000000E-02 0.  1.
         -2   -1    0    0    0  501 -0.00000000000E+00 -0.00000000000E+00 -0.64074413442E+02  0.64074413493E+02  0.25500000000E-02 0. -1.
    5000001    1    1    2    0    0  0.18668885429E+03  0.50436777619E+02  0.66882533871E+03  0.72410284529E+03  0.19900000000E+03 0.  0.
   -5000001    1    1    2    0    0 -0.18668885429E+03 -0.50436777619E+02  0.49187641423E+03  0.56474773459E+03  0.19900000000E+03 0.  0.
<mgrwt>
<rscale>  0 0.56027427E+03</rscale>
<asrwt>0</asrwt>
<pdfrwt beam="1">  1        2 0.17496803E+00 0.56027427E+03</pdfrwt>
<pdfrwt beam="2">  1       -2 0.91534872E-02 0.56027427E+03</pdfrwt>
<totfact> 0.16527858E+03</totfact>
</mgrwt>
</event>
<event>
 4    1  0.5069019E-005  0.8850203E+03  0.7818608E-02  0.9444503E-01
          2   -1    0    0  501    0  0.00000000000E+00  0.00000000000E+00  0.22579552033E+04  0.22579552033E+04  0.25500000000E-02 0.  1.
         -2   -1    0    0    0  501 -0.00000000000E+00 -0.00000000000E+00 -0.86722379132E+02  0.86722379169E+02  0.25500000000E-02 0. -1.
    5000001    1    1    2    0    0  0.30113265064E+03  0.25577020737E+03  0.10572090066E+04  0.11460327900E+04  0.19900000000E+03 0.  0.
   -5000001    1    1    2    0    0 -0.30113265064E+03 -0.25577020737E+03  0.11140238176E+04  0.11986447924E+04  0.19900000000E+03 0.  0.
<mgrwt>
<rscale>  0 0.88502033E+03</rscale>
<asrwt>0</asrwt>
<pdfrwt beam="1">  1        2 0.32256497E+00 0.88502033E+03</pdfrwt>
<pdfrwt beam="2">  1       -2 0.12388914E-01 0.88502033E+03</pdfrwt>
<totfact> 0.28930163E+02</totfact>
</mgrwt>
</event>
<event>
 4    1  0.5069019E-005  0.5373754E+03  0.7818608E-02  0.1004459E+00
          2   -1    0    0  501    0  0.00000000000E+00  0.00000000000E+00  0.20880120071E+04  0.20880120071E+04  0.25500000000E-02 0.  1.
         -2   -1    0    0    0  501 -0.00000000000E+00 -0.00000000000E+00 -0.34575025119E+02  0.34575025213E+02  0.25500000000E-02 0. -1.
    5000001    1    1    2    0    0 -0.71337135217E+02 -0.16538732453E+03  0.10751132077E+04  0.11081116205E+04  0.19900000000E+03 0.  0.
   -5000001    1    1    2    0    0  0.71337135217E+02  0.16538732453E+03  0.97832377423E+03  0.10144754118E+04  0.19900000000E+03 0.  0.
<mgrwt>
<rscale>  0 0.53737535E+03</rscale>
<asrwt>0</asrwt>
<pdfrwt beam="1">  1        2 0.29828735E+00 0.53737535E+03</pdfrwt>
<pdfrwt beam="2">  1       -2 0.49392907E-02 0.53737535E+03</pdfrwt>
<totfact> 0.15696827E+03</totfact>
</mgrwt>
</event>
<event>
 4    1  0.5069019E-005  0.4736663E+03  0.7818608E-02  0.1020891E+00
          2   -1    0    0  501    0  0.00000000000E+00  0.00000000000E+00  0.37448305639E+04  0.37448305639E+04  0.25500000000E-02 0.  1.
         -2   -1    0    0    0  501 -0.00000000000E+00 -0.00000000000E+00 -0.14977961731E+02  0.14977961948E+02  0.25500000000E-02 0. -1.
    5000001    1    1    2    0    0  0.10988175932E+03 -0.53287354796E+01  0.23906456707E+04  0.24014350125E+04  0.19900000000E+03 0.  0.
   -5000001    1    1    2    0    0 -0.10988175932E+03  0.53287354796E+01  0.13392069315E+04  0.13583735133E+04  0.19900000000E+03 0.  0.
<mgrwt>
<rscale>  0 0.47366625E+03</rscale>
<asrwt>0</asrwt>
<pdfrwt beam="1">  1        2 0.53497564E+00 0.47366625E+03</pdfrwt>
<pdfrwt beam="2">  1       -2 0.21397095E-02 0.47366625E+03</pdfrwt>
<totfact> 0.70824902E+02</totfact>
</mgrwt>
</event>
<event>
 4    1  0.5069019E-005  0.4240381E+03  0.7818608E-02  0.1035760E+00
          2   -1    0    0  501    0  0.00000000000E+00  0.00000000000E+00  0.36966353885E+04  0.36966353885E+04  0.25500000000E-02 0.  1.
         -2   -1    0    0    0  501 -0.00000000000E+00 -0.00000000000E+00 -0.12160269031E+02  0.12160269298E+02  0.25500000000E-02 0. -1.
    5000001    1    1    2    0    0  0.14891608346E+02  0.70474393963E+02  0.17306806198E+04  0.17435724269E+04  0.19900000000E+03 0.  0.
   -5000001    1    1    2    0    0 -0.14891608346E+02 -0.70474393963E+02  0.19537944997E+04  0.19652232309E+04  0.19900000000E+03 0.  0.
<mgrwt>
<rscale>  0 0.42403812E+03</rscale>
<asrwt>0</asrwt>
<pdfrwt beam="1">  1        2 0.52809052E+00 0.42403812E+03</pdfrwt>
<pdfrwt beam="2">  1       -2 0.17371821E-02 0.42403812E+03</pdfrwt>
<totfact> 0.10418335E+03</totfact>
</mgrwt>
</event>
<event>
 4    1  0.5069019E-005  0.6282051E+03  0.7818608E-02  0.9848558E-01
          2   -1    0    0  501    0  0.00000000000E+00  0.00000000000E+00  0.79816670164E+03  0.79816670164E+03  0.25500000000E-02 0.  1.
         -2   -1    0    0    0  501 -0.00000000000E+00 -0.00000000000E+00 -0.12360877828E+03  0.12360877830E+03  0.25500000000E-02 0. -1.
    5000001    1    1    2    0    0 -0.22411924410E+03 -0.77718260929E+02  0.25977678405E+03  0.40417142550E+03  0.19900000000E+03 0.  0.
   -5000001    1    1    2    0    0  0.22411924410E+03  0.77718260929E+02  0.41478113931E+03  0.51760405445E+03  0.19900000000E+03 0.  0.
<mgrwt>
<rscale>  0 0.62820510E+03</rscale>
<asrwt>0</asrwt>
<pdfrwt beam="1">  1        2 0.11402381E+00 0.62820510E+03</pdfrwt>
<pdfrwt beam="2">  1       -2 0.17658397E-01 0.62820510E+03</pdfrwt>
<totfact> 0.10133566E+03</totfact>
</mgrwt>
</event>
<event>
 4    1  0.5069019E-005  0.9348776E+03  0.7818608E-02  0.9383003E-01
         -2   -1    0    0    0  501 -0.00000000000E+00  0.00000000000E+00  0.37443459801E+03  0.37443459802E+03  0.25500000000E-02 0. -1.
          2   -1    0    0  501    0  0.00000000000E+00 -0.00000000000E+00 -0.58354397186E+03  0.58354397187E+03  0.25500000000E-02 0.  1.
    5000001    1    1    2    0    0 -0.28097379506E+03 -0.30371113565E+03 -0.19453873479E+03  0.49863117308E+03  0.19900000000E+03 0.  0.
   -5000001    1    1    2    0    0  0.28097379506E+03  0.30371113565E+03 -0.14570639059E+02  0.45934739681E+03  0.19900000000E+03 0.  0.
<mgrwt>
<rscale>  0 0.93487764E+03</rscale>
<asrwt>0</asrwt>
<pdfrwt beam="1">  1        2 0.83363424E-01 0.93487764E+03</pdfrwt>
<pdfrwt beam="2">  1       -2 0.53490657E-01 0.93487764E+03</pdfrwt>
<totfact> 0.18501751E+02</totfact>
</mgrwt>
</event>
<event>
 4    1  0.5069019E-005  0.4338634E+03  0.7818608E-02  0.1032646E+00
          2   -1    0    0  501    0  0.00000000000E+00  0.00000000000E+00  0.39464723834E+04  0.39464723834E+04  0.25500000000E-02 0.  1.
         -2   -1    0    0    0  501 -0.00000000000E+00 -0.00000000000E+00 -0.11924413881E+02  0.11924414154E+02  0.25500000000E-02 0. -1.
    5000001    1    1    2    0    0 -0.59329727060E+02  0.50908476447E+02  0.23020841693E+04  0.23119913953E+04  0.19900000000E+03 0.  0.
   -5000001    1    1    2    0    0  0.59329727060E+02 -0.50908476447E+02  0.16324638003E+04  0.16464054023E+04  0.19900000000E+03 0.  0.
<mgrwt>
<rscale>  0 0.43386344E+03</rscale>
<asrwt>0</asrwt>
<pdfrwt beam="1">  1        2 0.56378141E+00 0.43386344E+03</pdfrwt>
<pdfrwt beam="2">  1       -2 0.17034888E-02 0.43386344E+03</pdfrwt>
<totfact> 0.74469696E+02</totfact>
</mgrwt>
</event>
<event>
 4    1  0.5069019E-005  0.5872417E+03  0.7818608E-02  0.9932235E-01
          2   -1    0    0  501    0  0.00000000000E+00  0.00000000000E+00  0.56260271907E+04  0.56260271907E+04  0.25500000000E-02 0.  1.
         -2   -1    0    0    0  501 -0.00000000000E+00 -0.00000000000E+00 -0.15323995071E+02  0.15323995283E+02  0.25500000000E-02 0. -1.
    5000001    1    1    2    0    0  0.13865328356E+03  0.13614169680E+03  0.37092288705E+04  0.37196423361E+04  0.19900000000E+03 0.  0.
   -5000001    1    1    2    0    0 -0.13865328356E+03 -0.13614169680E+03  0.19014743251E+04  0.19217088499E+04  0.19900000000E+03 0.  0.
<mgrwt>
<rscale>  0 0.58724173E+03</rscale>
<asrwt>0</asrwt>
<pdfrwt beam="1">  1        2 0.80371812E+00 0.58724173E+03</pdfrwt>
<pdfrwt beam="2">  1       -2 0.21891423E-02 0.58724173E+03</pdfrwt>
<totfact> 0.15472085E+01</totfact>
</mgrwt>
</event>
<event>
 4    1  0.5069019E-005  0.5937435E+03  0.7818608E-02  0.9918472E-01
         -2   -1    0    0    0  501 -0.00000000000E+00  0.00000000000E+00  0.63454467155E+03  0.63454467156E+03  0.25500000000E-02 0. -1.
          2   -1    0    0  501    0  0.00000000000E+00 -0.00000000000E+00 -0.13889144161E+03  0.13889144164E+03  0.25500000000E-02 0.  1.
    5000001    1    1    2    0    0 -0.13842743547E+03 -0.91788639585E+02  0.43634806027E+03  0.50753121968E+03  0.19900000000E+03 0.  0.
   -5000001    1    1    2    0    0  0.13842743547E+03  0.91788639585E+02  0.59305169675E+02  0.26590489352E+03  0.19900000000E+03 0.  0.
<mgrwt>
<rscale>  0 0.59374346E+03</rscale>
<asrwt>0</asrwt>
<pdfrwt beam="1">  1        2 0.19841634E-01 0.59374346E+03</pdfrwt>
<pdfrwt beam="2">  1       -2 0.90649240E-01 0.59374346E+03</pdfrwt>
<totfact> 0.30139600E+02</totfact>
</mgrwt>
</event>
<event>
 4    1  0.5069019E-005  0.5338809E+03  0.7818608E-02  0.1005295E+00
          2   -1    0    0  501    0  0.00000000000E+00  0.00000000000E+00  0.12272034578E+04  0.12272034578E+04  0.25500000000E-02 0.  1.
         -2   -1    0    0    0  501 -0.00000000000E+00 -0.00000000000E+00 -0.58064694896E+02  0.58064694952E+02  0.25500000000E-02 0. -1.
    5000001    1    1    2    0    0 -0.73896364684E+02  0.10462684804E+03  0.88184988844E+03  0.91305403771E+03  0.19900000000E+03 0.  0.
   -5000001    1    1    2    0    0  0.73896364684E+02 -0.10462684804E+03  0.28728887446E+03  0.37221411503E+03  0.19900000000E+03 0.  0.
<mgrwt>
<rscale>  0 0.53388086E+03</rscale>
<asrwt>0</asrwt>
<pdfrwt beam="1">  1        2 0.17531474E+00 0.53388086E+03</pdfrwt>
<pdfrwt beam="2">  1       -2 0.82949583E-02 0.53388086E+03</pdfrwt>
<totfact> 0.19299197E+03</totfact>
</mgrwt>
</event>
<event>
 4    1  0.5069019E-005  0.6248828E+03  0.7818608E-02  0.9855086E-01
          2   -1    0    0  501    0  0.00000000000E+00  0.00000000000E+00  0.85853626224E+03  0.85853626224E+03  0.25500000000E-02 0.  1.
         -2   -1    0    0    0  501 -0.00000000000E+00 -0.00000000000E+00 -0.11370473462E+03  0.11370473465E+03  0.25500000000E-02 0. -1.
    5000001    1    1    2    0    0  0.13076092113E+03  0.16145437670E+03  0.56203312391E+03  0.63138590942E+03  0.19900000000E+03 0.  0.
   -5000001    1    1    2    0    0 -0.13076092113E+03 -0.16145437670E+03  0.18279840371E+03  0.34085508746E+03  0.19900000000E+03 0.  0.
<mgrwt>
<rscale>  0 0.62488283E+03</rscale>
<asrwt>0</asrwt>
<pdfrwt beam="1">  1        2 0.12264804E+00 0.62488283E+03</pdfrwt>
<pdfrwt beam="2">  1       -2 0.16243534E-01 0.62488283E+03</pdfrwt>
<totfact> 0.10633881E+03</totfact>
</mgrwt>
</event>
<event>
 4    1  0.5069019E-005  0.6701818E+03  0.7818608E-02  0.9769629E-01
          2   -1    0    0  501    0  0.00000000000E+00  0.00000000000E+00  0.16176555981E+03  0.16176555983E+03  0.25500000000E-02 0.  1.
         -2   -1    0    0    0  501 -0.00000000000E+00 -0.00000000000E+00 -0.69412750228E+03  0.69412750228E+03  0.25500000000E-02 0. -1.
    5000001    1    1    2    0    0  0.40936717942E+02 -0.24381967563E+03 -0.40349849368E+03  0.51335746172E+03  0.19900000000E+03 0.  0.
   -5000001    1    1    2    0    0 -0.40936717942E+02  0.24381967563E+03 -0.12886344879E+03  0.34253560039E+03  0.19900000000E+03 0.  0.
<mgrwt>
<rscale>  0 0.67018184E+03</rscale>
<asrwt>0</asrwt>
<pdfrwt beam="1">  1        2 0.23109366E-01 0.67018184E+03</pdfrwt>
<pdfrwt beam="2">  1       -2 0.99161070E-01 0.67018184E+03</pdfrwt>
<totfact> 0.20439119E+02</totfact>
</mgrwt>
</event>
<event>
 4    1  0.5069019E-005  0.4630544E+03  0.7818608E-02  0.1023899E+00
          2   -1    0    0  501    0  0.00000000000E+00  0.00000000000E+00  0.15380678063E+04  0.15380678063E+04  0.25500000000E-02 0. -1.
         -2   -1    0    0    0  501 -0.00000000000E+00 -0.00000000000E+00 -0.34852064407E+02  0.34852064500E+02  0.25500000000E-02 0.  1.
    5000001    1    1    2    0    0 -0.79459614919E+02 -0.81145079353E+02  0.63866707562E+03  0.67852412469E+03  0.19900000000E+03 0.  0.
   -5000001    1    1    2    0    0  0.79459614919E+02  0.81145079353E+02  0.86454866626E+03  0.89439574610E+03  0.19900000000E+03 0.  0.
<mgrwt>
<rscale>  0 0.46305437E+03</rscale>
<asrwt>0</asrwt>
<pdfrwt beam="1">  1        2 0.21972396E+00 0.46305437E+03</pdfrwt>
<pdfrwt beam="2">  1       -2 0.49788666E-02 0.46305437E+03</pdfrwt>
<totfact> 0.29393137E+03</totfact>
</mgrwt>
</event>
<event>
 4    1  0.5069019E-005  0.8529779E+03  0.7818608E-02  0.9486349E-01
         -2   -1    0    0    0  501 -0.00000000000E+00  0.00000000000E+00  0.65472690646E+02  0.65472690696E+02  0.25500000000E-02 0.  1.
          2   -1    0    0  501    0  0.00000000000E+00 -0.00000000000E+00 -0.27781477632E+04  0.27781477632E+04  0.25500000000E-02 0. -1.
    5000001    1    1    2    0    0  0.21216385458E+03  0.63294076668E+01 -0.31677067216E+03  0.43011419569E+03  0.19900000000E+03 0.  0.
   -5000001    1    1    2    0    0 -0.21216385458E+03 -0.63294076668E+01 -0.23959044003E+04  0.24135062582E+04  0.19900000000E+03 0.  0.
<mgrwt>
<rscale>  0 0.85297786E+03</rscale>
<asrwt>0</asrwt>
<pdfrwt beam="1">  1        2 0.39687818E+00 0.85297786E+03</pdfrwt>
<pdfrwt beam="2">  1       -2 0.93532433E-02 0.85297786E+03</pdfrwt>
<totfact> 0.24664737E+02</totfact>
</mgrwt>
</event>
<event>
 4    1  0.5069019E-005  0.7875235E+03  0.7818608E-02  0.9578254E-01
         -2   -1    0    0    0  501 -0.00000000000E+00  0.00000000000E+00  0.52091485531E+03  0.52091485532E+03  0.25500000000E-02 0.  1.
          2   -1    0    0  501    0  0.00000000000E+00 -0.00000000000E+00 -0.29764621300E+03  0.29764621301E+03  0.25500000000E-02 0. -1.
    5000001    1    1    2    0    0  0.19693449477E+03 -0.24570750584E+03 -0.21036131083E+02  0.37309367787E+03  0.19900000000E+03 0.  0.
   -5000001    1    1    2    0    0 -0.19693449477E+03  0.24570750584E+03  0.24430477340E+03  0.44546739045E+03  0.19900000000E+03 0.  0.
<mgrwt>
<rscale>  0 0.78752355E+03</rscale>
<asrwt>0</asrwt>
<pdfrwt beam="1">  1        2 0.42520888E-01 0.78752355E+03</pdfrwt>
<pdfrwt beam="2">  1       -2 0.74416408E-01 0.78752355E+03</pdfrwt>
<totfact> 0.19696813E+02</totfact>
</mgrwt>
</event>
<event>
 4    1  0.5069019E-005  0.5514131E+03  0.7818608E-02  0.1001167E+00
          2   -1    0    0  501    0  0.00000000000E+00  0.00000000000E+00  0.24408284727E+04  0.24408284727E+04  0.25500000000E-02 0.  1.
         -2   -1    0    0    0  501 -0.00000000000E+00 -0.00000000000E+00 -0.31142741782E+02  0.31142741887E+02  0.25500000000E-02 0. -1.
    5000001    1    1    2    0    0 -0.11099295630E+03 -0.82563238676E+02  0.17940935598E+04  0.18103891366E+04  0.19900000000E+03 0.  0.
   -5000001    1    1    2    0    0  0.11099295630E+03  0.82563238676E+02  0.61559217112E+03  0.66158207796E+03  0.19900000000E+03 0.  0.
<mgrwt>
<rscale>  0 0.55141306E+03</rscale>
<asrwt>0</asrwt>
<pdfrwt beam="1">  1        2 0.34868999E+00 0.55141306E+03</pdfrwt>
<pdfrwt beam="2">  1       -2 0.44489604E-02 0.55141306E+03</pdfrwt>
<totfact> 0.12238523E+03</totfact>
</mgrwt>
</event>
<event>
 4    1  0.5069019E-005  0.1095667E+04  0.7818608E-02  0.9209425E-01
          2   -1    0    0  501    0  0.00000000000E+00  0.00000000000E+00  0.83396280259E+03  0.83396280260E+03  0.25500000000E-02 0.  1.
         -2   -1    0    0    0  501 -0.00000000000E+00 -0.00000000000E+00 -0.35987407936E+03  0.35987407937E+03  0.25500000000E-02 0. -1.
    5000001    1    1    2    0    0 -0.49881226334E+03 -0.72713921604E+02  0.14974308274E+03  0.56224992599E+03  0.19900000000E+03 0.  0.
   -5000001    1    1    2    0    0  0.49881226334E+03  0.72713921604E+02  0.32434564050E+03  0.63158695598E+03  0.19900000000E+03 0.  0.
<mgrwt>
<rscale>  0 0.10956671E+04</rscale>
<asrwt>0</asrwt>
<pdfrwt beam="1">  1        2 0.11913754E+00 0.10956671E+04</pdfrwt>
<pdfrwt beam="2">  1       -2 0.51410583E-01 0.10956671E+04</pdfrwt>
<totfact> 0.12780900E+02</totfact>
</mgrwt>
</event>
<event>
 4    1  0.5069019E-005  0.7584512E+03  0.7818608E-02  0.9622184E-01
         -2   -1    0    0    0  501 -0.00000000000E+00  0.00000000000E+00  0.68952771326E+03  0.68952771327E+03  0.25500000000E-02 0. -1.
          2   -1    0    0  501    0  0.00000000000E+00 -0.00000000000E+00 -0.20856601029E+03  0.20856601030E+03  0.25500000000E-02 0.  1.
    5000001    1    1    2    0    0  0.34901000068E+02  0.32010328374E+03  0.26766015882E+03  0.46360236484E+03  0.19900000000E+03 0.  0.
   -5000001    1    1    2    0    0 -0.34901000068E+02 -0.32010328374E+03  0.21330154416E+03  0.43449135873E+03  0.19900000000E+03 0.  0.
<mgrwt>
<rscale>  0 0.75845117E+03</rscale>
<asrwt>0</asrwt>
<pdfrwt beam="1">  1        2 0.29795144E-01 0.75845117E+03</pdfrwt>
<pdfrwt beam="2">  1       -2 0.98503959E-01 0.75845117E+03</pdfrwt>
<totfact> 0.15483188E+02</totfact>
</mgrwt>
</event>
<event>
 4    1  0.5069019E-005  0.8400479E+03  0.7818608E-02  0.9503793E-01
         -2   -1    0    0    0  501 -0.00000000000E+00  0.00000000000E+00  0.15857026353E+03  0.15857026355E+03  0.25500000000E-02 0. -1.
          2   -1    0    0  501    0  0.00000000000E+00 -0.00000000000E+00 -0.11125673570E+04  0.11125673570E+04  0.25500000000E-02 0.  1.
    5000001    1    1    2    0    0  0.23014515444E+03  0.28312833813E+03 -0.38507219213E+03  0.56657748025E+03  0.19900000000E+03 0.  0.
   -5000001    1    1    2    0    0 -0.23014515444E+03 -0.28312833813E+03 -0.56892490137E+03  0.70456014035E+03  0.19900000000E+03 0.  0.
<mgrwt>
<rscale>  0 0.84004785E+03</rscale>
<asrwt>0</asrwt>
<pdfrwt beam="1">  1        2 0.15893819E+00 0.84004785E+03</pdfrwt>
<pdfrwt beam="2">  1       -2 0.22652896E-01 0.84004785E+03</pdfrwt>
<totfact> 0.41182124E+02</totfact>
</mgrwt>
</event>
<event>
 4    1  0.5069019E-005  0.5769081E+03  0.7818608E-02  0.9954507E-01
         -2   -1    0    0    0  501 -0.00000000000E+00  0.00000000000E+00  0.10784557920E+03  0.10784557923E+03  0.25500000000E-02 0. -1.
          2   -1    0    0  501    0  0.00000000000E+00 -0.00000000000E+00 -0.77152668217E+03  0.77152668217E+03  0.25500000000E-02 0.  1.
    5000001    1    1    2    0    0  0.94474663526E+02 -0.13237450317E+03 -0.13218675906E+03  0.28900313218E+03  0.19900000000E+03 0.  0.
   -5000001    1    1    2    0    0 -0.94474663526E+02  0.13237450317E+03 -0.53149434391E+03  0.59036912923E+03  0.19900000000E+03 0.  0.
<mgrwt>
<rscale>  0 0.57690811E+03</rscale>
<asrwt>0</asrwt>
<pdfrwt beam="1">  1        2 0.11021809E+00 0.57690811E+03</pdfrwt>
<pdfrwt beam="2">  1       -2 0.15406512E-01 0.57690811E+03</pdfrwt>
<totfact> 0.13354347E+03</totfact>
</mgrwt>
</event>
<event>
 4    1  0.5069019E-005  0.7833010E+03  0.7818608E-02  0.9584508E-01
          2   -1    0    0  501    0  0.00000000000E+00  0.00000000000E+00  0.25621735384E+04  0.25621735384E+04  0.25500000000E-02 0.  1.
         -2   -1    0    0    0  501 -0.00000000000E+00 -0.00000000000E+00 -0.59867177026E+02  0.59867177081E+02  0.25500000000E-02 0. -1.
    5000001    1    1    2    0    0  0.16118144993E+03  0.26869033359E+03  0.16694492076E+04  0.17102150777E+04  0.19900000000E+03 0.  0.
   -5000001    1    1    2    0    0 -0.16118144993E+03 -0.26869033359E+03  0.83285715384E+03  0.91182563787E+03  0.19900000000E+03 0.  0.
<mgrwt>
<rscale>  0 0.78330096E+03</rscale>
<asrwt>0</asrwt>
<pdfrwt beam="1">  1        2 0.36602480E+00 0.78330096E+03</pdfrwt>
<pdfrwt beam="2">  1       -2 0.85524536E-02 0.78330096E+03</pdfrwt>
<totfact> 0.37258195E+02</totfact>
</mgrwt>
</event>
<event>
 4    1  0.5069019E-005  0.7987067E+03  0.7818608E-02  0.9561891E-01
         -2   -1    0    0    0  501 -0.00000000000E+00  0.00000000000E+00  0.13343882247E+04  0.13343882247E+04  0.25500000000E-02 0. -1.
          2   -1    0    0  501    0  0.00000000000E+00 -0.00000000000E+00 -0.11951777718E+03  0.11951777720E+03  0.25500000000E-02 0.  1.
    5000001    1    1    2    0    0 -0.11181174412E+03 -0.31941711624E+03  0.74061728919E+03  0.83823870664E+03  0.19900000000E+03 0.  0.
   -5000001    1    1    2    0    0  0.11181174412E+03  0.31941711624E+03  0.47425315834E+03  0.61566729527E+03  0.19900000000E+03 0.  0.
<mgrwt>
<rscale>  0 0.79870674E+03</rscale>
<asrwt>0</asrwt>
<pdfrwt beam="1">  1        2 0.17073970E-01 0.79870674E+03</pdfrwt>
<pdfrwt beam="2">  1       -2 0.19062687E+00 0.79870674E+03</pdfrwt>
<totfact> 0.53334585E+01</totfact>
</mgrwt>
</event>
<event>
 4    1  0.5069019E-005  0.6559575E+03  0.7818608E-02  0.9795664E-01
          2   -1    0    0  501    0  0.00000000000E+00  0.00000000000E+00  0.39060304467E+03  0.39060304468E+03  0.25500000000E-02 0.  1.
         -2   -1    0    0    0  501 -0.00000000000E+00 -0.00000000000E+00 -0.27539482948E+03  0.27539482949E+03  0.25500000000E-02 0. -1.
    5000001    1    1    2    0    0 -0.25601666123E+03  0.12808084745E+02  0.93318537107E+01  0.32464851972E+03  0.19900000000E+03 0.  0.
   -5000001    1    1    2    0    0  0.25601666123E+03 -0.12808084745E+02  0.10587636148E+03  0.34134935445E+03  0.19900000000E+03 0.  0.
<mgrwt>
<rscale>  0 0.65595750E+03</rscale>
<asrwt>0</asrwt>
<pdfrwt beam="1">  1        2 0.55800434E-01 0.65595750E+03</pdfrwt>
<pdfrwt beam="2">  1       -2 0.39342119E-01 0.65595750E+03</pdfrwt>
<totfact> 0.54616427E+02</totfact>
</mgrwt>
</event>
<event>
 4    1  0.5069019E-005  0.1080872E+04  0.7818608E-02  0.9224039E-01
         -2   -1    0    0    0  501 -0.00000000000E+00  0.00000000000E+00  0.15504401427E+03  0.15504401429E+03  0.25500000000E-02 0. -1.
          2   -1    0    0  501    0  0.00000000000E+00 -0.00000000000E+00 -0.18837940120E+04  0.18837940120E+04  0.25500000000E-02 0.  1.
    5000001    1    1    2    0    0  0.39614901660E+03  0.25699160727E+03 -0.11883079718E+04  0.12940848370E+04  0.19900000000E+03 0.  0.
   -5000001    1    1    2    0    0 -0.39614901660E+03 -0.25699160727E+03 -0.54044202600E+03  0.74475318933E+03  0.19900000000E+03 0.  0.
<mgrwt>
<rscale>  0 0.10808718E+04</rscale>
<asrwt>0</asrwt>
<pdfrwt beam="1">  1        2 0.26911342E+00 0.10808718E+04</pdfrwt>
<pdfrwt beam="2">  1       -2 0.22149146E-01 0.10808718E+04</pdfrwt>
<totfact> 0.16330858E+02</totfact>
</mgrwt>
</event>
<event>
 4    1  0.5069019E-005  0.5245542E+03  0.7818608E-02  0.1007561E+00
         -2   -1    0    0    0  501 -0.00000000000E+00  0.00000000000E+00  0.39825294303E+03  0.39825294304E+03  0.25500000000E-02 0. -1.
          2   -1    0    0  501    0  0.00000000000E+00 -0.00000000000E+00 -0.17272758332E+03  0.17272758334E+03  0.25500000000E-02 0.  1.
    5000001    1    1    2    0    0  0.83443060096E+02 -0.42665326055E+02  0.26825227064E+03  0.34690539781E+03  0.19900000000E+03 0.  0.
   -5000001    1    1    2    0    0 -0.83443060096E+02  0.42665326055E+02 -0.42726910932E+02  0.22407512857E+03  0.19900000000E+03 0.  0.
<mgrwt>
<rscale>  0 0.52455417E+03</rscale>
<asrwt>0</asrwt>
<pdfrwt beam="1">  1        2 0.24675369E-01 0.52455417E+03</pdfrwt>
<pdfrwt beam="2">  1       -2 0.56893277E-01 0.52455417E+03</pdfrwt>
<totfact> 0.64861553E+02</totfact>
</mgrwt>
</event>
<event>
 4    1  0.5069019E-005  0.6145552E+03  0.7818608E-02  0.9875660E-01
         -2   -1    0    0    0  501 -0.00000000000E+00  0.00000000000E+00  0.28112962044E+03  0.28112962045E+03  0.25500000000E-02 0. -1.
          2   -1    0    0  501    0  0.00000000000E+00 -0.00000000000E+00 -0.33585764470E+03  0.33585764470E+03  0.25500000000E-02 0.  1.
    5000001    1    1    2    0    0  0.11762788990E+03 -0.20144501826E+03 -0.47496207172E+02  0.31027939919E+03  0.19900000000E+03 0.  0.
   -5000001    1    1    2    0    0 -0.11762788990E+03  0.20144501826E+03 -0.72318170821E+01  0.30670786597E+03  0.19900000000E+03 0.  0.
<mgrwt>
<rscale>  0 0.61455523E+03</rscale>
<asrwt>0</asrwt>
<pdfrwt beam="1">  1        2 0.47979664E-01 0.61455523E+03</pdfrwt>
<pdfrwt beam="2">  1       -2 0.40161374E-01 0.61455523E+03</pdfrwt>
<totfact> 0.62087503E+02</totfact>
</mgrwt>
</event>
<event>
 4    1  0.5069019E-005  0.1537423E+04  0.7818608E-02  0.8859942E-01
          2   -1    0    0  501    0  0.00000000000E+00  0.00000000000E+00  0.23521154485E+04  0.23521154485E+04  0.25500000000E-02 0.  1.
         -2   -1    0    0    0  501 -0.00000000000E+00 -0.00000000000E+00 -0.25122802186E+03  0.25122802187E+03  0.25500000000E-02 0. -1.
    5000001    1    1    2    0    0 -0.54476763635E+03 -0.28809737288E+03  0.17517802074E+04  0.18676473888E+04  0.19900000000E+03 0.  0.
   -5000001    1    1    2    0    0  0.54476763635E+03  0.28809737288E+03  0.34910721919E+03  0.73569608152E+03  0.19900000000E+03 0.  0.
<mgrwt>
<rscale>  0 0.15374229E+04</rscale>
<asrwt>0</asrwt>
<pdfrwt beam="1">  1        2 0.33601650E+00 0.15374229E+04</pdfrwt>
<pdfrwt beam="2">  1       -2 0.35889717E-01 0.15374229E+04</pdfrwt>
<totfact> 0.37165959E+01</totfact>
</mgrwt>
</event>
<event>
 4    1  0.5069019E-005  0.5697709E+03  0.7818608E-02  0.9970186E-01
          2   -1    0    0  501    0  0.00000000000E+00  0.00000000000E+00  0.59122685335E+03  0.59122685335E+03  0.25500000000E-02 0.  1.
         -2   -1    0    0    0  501 -0.00000000000E+00 -0.00000000000E+00 -0.13727338747E+03  0.13727338750E+03  0.25500000000E-02 0. -1.
    5000001    1    1    2    0    0 -0.16351356063E+03  0.10804081404E+03  0.15522534150E+03  0.31953936949E+03  0.19900000000E+03 0.  0.
   -5000001    1    1    2    0    0  0.16351356063E+03 -0.10804081404E+03  0.29872812437E+03  0.40896087136E+03  0.19900000000E+03 0.  0.
<mgrwt>
<rscale>  0 0.56977088E+03</rscale>
<asrwt>0</asrwt>
<pdfrwt beam="1">  1        2 0.84460980E-01 0.56977088E+03</pdfrwt>
<pdfrwt beam="2">  1       -2 0.19610484E-01 0.56977088E+03</pdfrwt>
<totfact> 0.12204172E+03</totfact>
</mgrwt>
</event>
<event>
 4    1  0.5069019E-005  0.6248236E+03  0.7818608E-02  0.9855202E-01
         -2   -1    0    0    0  501 -0.00000000000E+00  0.00000000000E+00  0.60370327029E+02  0.60370327083E+02  0.25500000000E-02 0. -1.
          2   -1    0    0  501    0  0.00000000000E+00 -0.00000000000E+00 -0.16167072689E+04  0.16167072689E+04  0.25500000000E-02 0.  1.
    5000001    1    1    2    0    0  0.47762641094E+02  0.22272779226E+03 -0.56834251616E+03  0.64381919434E+03  0.19900000000E+03 0.  0.
   -5000001    1    1    2    0    0 -0.47762641094E+02 -0.22272779226E+03 -0.98799442570E+03  0.10332584016E+04  0.19900000000E+03 0.  0.
<mgrwt>
<rscale>  0 0.62482364E+03</rscale>
<asrwt>0</asrwt>
<pdfrwt beam="1">  1        2 0.23095815E+00 0.62482364E+03</pdfrwt>
<pdfrwt beam="2">  1       -2 0.86243334E-02 0.62482364E+03</pdfrwt>
<totfact> 0.11244743E+03</totfact>
</mgrwt>
</event>
<event>
 4    1  0.5069019E-005  0.6097628E+03  0.7818608E-02  0.9885356E-01
          2   -1    0    0  501    0  0.00000000000E+00  0.00000000000E+00  0.33702021277E+04  0.33702021277E+04  0.25500000000E-02 0.  1.
         -2   -1    0    0    0  501 -0.00000000000E+00 -0.00000000000E+00 -0.27580737970E+02  0.27580738087E+02  0.25500000000E-02 0. -1.
    5000001    1    1    2    0    0  0.22201518978E+03  0.96256488675E+01  0.20223332393E+04  0.20442152843E+04  0.19900000000E+03 0.  0.
   -5000001    1    1    2    0    0 -0.22201518978E+03 -0.96256488675E+01  0.13202881504E+04  0.13535675815E+04  0.19900000000E+03 0.  0.
<mgrwt>
<rscale>  0 0.60976278E+03</rscale>
<asrwt>0</asrwt>
<pdfrwt beam="1">  1        2 0.48145719E+00 0.60976278E+03</pdfrwt>
<pdfrwt beam="2">  1       -2 0.39401075E-02 0.60976278E+03</pdfrwt>
<totfact> 0.46312715E+02</totfact>
</mgrwt>
</event>
<event>
 4    1  0.5069019E-005  0.1101138E+04  0.7818608E-02  0.9204084E-01
          2   -1    0    0  501    0  0.00000000000E+00  0.00000000000E+00  0.20915668222E+04  0.20915668222E+04  0.25500000000E-02 0. -1.
         -2   -1    0    0    0  501 -0.00000000000E+00 -0.00000000000E+00 -0.14492777482E+03  0.14492777484E+03  0.25500000000E-02 0.  1.
    5000001    1    1    2    0    0 -0.32231950831E+03  0.39779133777E+03  0.89739662006E+03  0.10521642018E+04  0.19900000000E+03 0.  0.
   -5000001    1    1    2    0    0  0.32231950831E+03 -0.39779133777E+03  0.10492424273E+04  0.11843303953E+04  0.19900000000E+03 0.  0.
<mgrwt>
<rscale>  0 0.11011378E+04</rscale>
<asrwt>0</asrwt>
<pdfrwt beam="1">  1        2 0.29879527E+00 0.11011378E+04</pdfrwt>
<pdfrwt beam="2">  1       -2 0.20703967E-01 0.11011378E+04</pdfrwt>
<totfact> 0.14390000E+02</totfact>
</mgrwt>
</event>
<event>
 4    1  0.5069019E-005  0.5275633E+03  0.7818608E-02  0.1006825E+00
          2   -1    0    0  501    0  0.00000000000E+00  0.00000000000E+00  0.14393240297E+04  0.14393240297E+04  0.25500000000E-02 0.  1.
         -2   -1    0    0    0  501 -0.00000000000E+00 -0.00000000000E+00 -0.48342672205E+02  0.48342672272E+02  0.25500000000E-02 0. -1.
    5000001    1    1    2    0    0 -0.16518709280E+03 -0.35724203220E+02  0.80163128162E+03  0.84307574155E+03  0.19900000000E+03 0.  0.
   -5000001    1    1    2    0    0  0.16518709280E+03  0.35724203220E+02  0.58935007585E+03  0.64459096040E+03  0.19900000000E+03 0.  0.
<mgrwt>
<rscale>  0 0.52756334E+03</rscale>
<asrwt>0</asrwt>
<pdfrwt beam="1">  1        2 0.20561770E+00 0.52756334E+03</pdfrwt>
<pdfrwt beam="2">  1       -2 0.69060966E-02 0.52756334E+03</pdfrwt>
<totfact> 0.19844390E+03</totfact>
</mgrwt>
</event>
<event>
 4    1  0.5069019E-005  0.5779847E+03  0.7818608E-02  0.9952164E-01
          2   -1    0    0  501    0  0.00000000000E+00  0.00000000000E+00  0.37839967631E+03  0.37839967632E+03  0.25500000000E-02 0.  1.
         -2   -1    0    0    0  501 -0.00000000000E+00 -0.00000000000E+00 -0.22070995212E+03  0.22070995214E+03  0.25500000000E-02 0. -1.
    5000001    1    1    2    0    0  0.13303667368E+03  0.13565099451E+03  0.17048206837E+03  0.32367434945E+03  0.19900000000E+03 0.  0.
   -5000001    1    1    2    0    0 -0.13303667368E+03 -0.13565099451E+03 -0.12792344176E+02  0.27543527901E+03  0.19900000000E+03 0.  0.
<mgrwt>
<rscale>  0 0.57798469E+03</rscale>
<asrwt>0</asrwt>
<pdfrwt beam="1">  1        2 0.54057096E-01 0.57798469E+03</pdfrwt>
<pdfrwt beam="2">  1       -2 0.31529993E-01 0.57798469E+03</pdfrwt>
<totfact> 0.86236573E+02</totfact>
</mgrwt>
</event>
<event>
 4    1  0.5069019E-005  0.5020598E+03  0.7818608E-02  0.1013243E+00
          2   -1    0    0  501    0  0.00000000000E+00  0.00000000000E+00  0.39660785454E+03  0.39660785455E+03  0.25500000000E-02 0.  1.
         -2   -1    0    0    0  501 -0.00000000000E+00 -0.00000000000E+00 -0.15888744446E+03  0.15888744448E+03  0.25500000000E-02 0. -1.
    5000001    1    1    2    0    0  0.43191196473E+02  0.11770944211E+03  0.21591153622E+03  0.31928010224E+03  0.19900000000E+03 0.  0.
   -5000001    1    1    2    0    0 -0.43191196473E+02 -0.11770944211E+03  0.21808873863E+02  0.23621519679E+03  0.19900000000E+03 0.  0.
<mgrwt>
<rscale>  0 0.50205979E+03</rscale>
<asrwt>0</asrwt>
<pdfrwt beam="1">  1        2 0.56658265E-01 0.50205979E+03</pdfrwt>
<pdfrwt beam="2">  1       -2 0.22698206E-01 0.50205979E+03</pdfrwt>
<totfact> 0.14847320E+03</totfact>
</mgrwt>
</event>
<event>
 4    1  0.5069019E-005  0.6042633E+03  0.7818608E-02  0.9896600E-01
         -2   -1    0    0    0  501 -0.00000000000E+00  0.00000000000E+00  0.22922921269E+03  0.22922921270E+03  0.25500000000E-02 0. -1.
          2   -1    0    0  501    0  0.00000000000E+00 -0.00000000000E+00 -0.39821949697E+03  0.39821949698E+03  0.25500000000E-02 0.  1.
    5000001    1    1    2    0    0  0.79156400148E+02 -0.19342256665E+03  0.84056792820E+01  0.28870344719E+03  0.19900000000E+03 0.  0.
   -5000001    1    1    2    0    0 -0.79156400148E+02  0.19342256665E+03 -0.17739596357E+03  0.33874526249E+03  0.19900000000E+03 0.  0.
<mgrwt>
<rscale>  0 0.60426333E+03</rscale>
<asrwt>0</asrwt>
<pdfrwt beam="1">  1        2 0.56888499E-01 0.60426333E+03</pdfrwt>
<pdfrwt beam="2">  1       -2 0.32747030E-01 0.60426333E+03</pdfrwt>
<totfact> 0.75898465E+02</totfact>
</mgrwt>
</event>
<event>
 4    1  0.5069019E-005  0.6559202E+03  0.7818608E-02  0.9795733E-01
         -2   -1    0    0    0  501 -0.00000000000E+00  0.00000000000E+00  0.22323813601E+03  0.22323813602E+03  0.25500000000E-02 0. -1.
          2   -1    0    0  501    0  0.00000000000E+00 -0.00000000000E+00 -0.48180751798E+03  0.48180751799E+03  0.25500000000E-02 0.  1.
    5000001    1    1    2    0    0 -0.25440171417E+03  0.41160837299E+02 -0.87070359123E+02  0.33704108672E+03  0.19900000000E+03 0.  0.
   -5000001    1    1    2    0    0  0.25440171417E+03 -0.41160837299E+02 -0.17149902285E+03  0.36800456728E+03  0.19900000000E+03 0.  0.
<mgrwt>
<rscale>  0 0.65592015E+03</rscale>
<asrwt>0</asrwt>
<pdfrwt beam="1">  1        2 0.68829645E-01 0.65592015E+03</pdfrwt>
<pdfrwt beam="2">  1       -2 0.31891162E-01 0.65592015E+03</pdfrwt>
<totfact> 0.64348022E+02</totfact>
</mgrwt>
</event>
<event>
 4    1  0.5069019E-005  0.9175847E+03  0.7818608E-02  0.9403863E-01
          2   -1    0    0  501    0  0.00000000000E+00  0.00000000000E+00  0.10625309330E+04  0.10625309330E+04  0.25500000000E-02 0.  1.
         -2   -1    0    0    0  501 -0.00000000000E+00 -0.00000000000E+00 -0.19810287706E+03  0.19810287707E+03  0.25500000000E-02 0. -1.
    5000001    1    1    2    0    0 -0.33782689028E+03 -0.62009855252E+02  0.74825342201E+03  0.84702798862E+03  0.19900000000E+03 0.  0.
   -5000001    1    1    2    0    0  0.33782689028E+03  0.62009855252E+02  0.11617463388E+03  0.41360582141E+03  0.19900000000E+03 0.  0.
<mgrwt>
<rscale>  0 0.91758473E+03</rscale>
<asrwt>0</asrwt>
<pdfrwt beam="1">  1        2 0.15179013E+00 0.91758473E+03</pdfrwt>
<pdfrwt beam="2">  1       -2 0.28300411E-01 0.91758473E+03</pdfrwt>
<totfact> 0.29359653E+02</totfact>
</mgrwt>
</event>
<event>
 4    1  0.5069019E-005  0.1096298E+04  0.7818608E-02  0.9208808E-01
          2   -1    0    0  501    0  0.00000000000E+00  0.00000000000E+00  0.12345723717E+04  0.12345723717E+04  0.25500000000E-02 0.  1.
         -2   -1    0    0    0  501 -0.00000000000E+00 -0.00000000000E+00 -0.24337762855E+03  0.24337762856E+03  0.25500000000E-02 0. -1.
    5000001    1    1    2    0    0  0.29265532150E+02  0.26295144224E+03  0.10845709895E+04  0.11339731759E+04  0.19900000000E+03 0.  0.
   -5000001    1    1    2    0    0 -0.29265532150E+02 -0.26295144224E+03 -0.93376246335E+02  0.34397682440E+03  0.19900000000E+03 0.  0.
<mgrwt>
<rscale>  0 0.10962979E+04</rscale>
<asrwt>0</asrwt>
<pdfrwt beam="1">  1        2 0.17636748E+00 0.10962979E+04</pdfrwt>
<pdfrwt beam="2">  1       -2 0.34768232E-01 0.10962979E+04</pdfrwt>
<totfact> 0.15711376E+02</totfact>
</mgrwt>
</event>
<event>
 4    1  0.5069019E-005  0.8544431E+03  0.7818608E-02  0.9484393E-01
         -2   -1    0    0    0  501 -0.00000000000E+00  0.00000000000E+00  0.55725050290E+02  0.55725050349E+02  0.25500000000E-02 0. -1.
          2   -1    0    0  501    0  0.00000000000E+00 -0.00000000000E+00 -0.32753361636E+04  0.32753361636E+04  0.25500000000E-02 0.  1.
    5000001    1    1    2    0    0  0.16280903902E+03 -0.34068413559E+03 -0.15374138516E+04  0.15955609717E+04  0.19900000000E+03 0.  0.
   -5000001    1    1    2    0    0 -0.16280903902E+03  0.34068413559E+03 -0.16821972617E+04  0.17355002423E+04  0.19900000000E+03 0.  0.
<mgrwt>
<rscale>  0 0.85444315E+03</rscale>
<asrwt>0</asrwt>
<pdfrwt beam="1">  1        2 0.46790504E+00 0.85444315E+03</pdfrwt>
<pdfrwt beam="2">  1       -2 0.79607235E-02 0.85444315E+03</pdfrwt>
<totfact> 0.16991303E+02</totfact>
</mgrwt>
</event>
<event>
 4    1  0.5069019E-005  0.9984634E+03  0.7818608E-02  0.9310232E-01
          2   -1    0    0  501    0  0.00000000000E+00  0.00000000000E+00  0.11715697976E+04  0.11715697976E+04  0.25500000000E-02 0.  1.
         -2   -1    0    0    0  501 -0.00000000000E+00 -0.00000000000E+00 -0.21273360515E+03  0.21273360516E+03  0.25500000000E-02 0. -1.
    5000001    1    1    2    0    0 -0.24622700153E+03 -0.33893657593E+03  0.22330083645E+03  0.51475236993E+03  0.19900000000E+03 0.  0.
   -5000001    1    1    2    0    0  0.24622700153E+03  0.33893657593E+03  0.73553535598E+03  0.86955103282E+03  0.19900000000E+03 0.  0.
<mgrwt>
<rscale>  0 0.99846335E+03</rscale>
<asrwt>0</asrwt>
<pdfrwt beam="1">  1        2 0.16736711E+00 0.99846335E+03</pdfrwt>
<pdfrwt beam="2">  1       -2 0.30390515E-01 0.99846335E+03</pdfrwt>
<totfact> 0.22114127E+02</totfact>
</mgrwt>
</event>
<event>
 4    1  0.5069019E-005  0.4591750E+03  0.7818608E-02  0.1025021E+00
          2   -1    0    0  501    0  0.00000000000E+00  0.00000000000E+00  0.23439938654E+03  0.23439938655E+03  0.25500000000E-02 0.  1.
         -2   -1    0    0    0  501 -0.00000000000E+00 -0.00000000000E+00 -0.22487440668E+03  0.22487440670E+03  0.25500000000E-02 0. -1.
    5000001    1    1    2    0    0  0.59874629247E+02  0.41047125519E+02 -0.83797990063E+02  0.22780022142E+03  0.19900000000E+03 0.  0.
   -5000001    1    1    2    0    0 -0.59874629247E+02 -0.41047125519E+02  0.93322969916E+02  0.23147357183E+03  0.19900000000E+03 0.  0.
<mgrwt>
<rscale>  0 0.45917501E+03</rscale>
<asrwt>0</asrwt>
<pdfrwt beam="1">  1        2 0.33485627E-01 0.45917501E+03</pdfrwt>
<pdfrwt beam="2">  1       -2 0.32124915E-01 0.45917501E+03</pdfrwt>
<totfact> 0.14117016E+03</totfact>
</mgrwt>
</event>
<event>
 4    1  0.5069019E-005  0.8455326E+03  0.7818608E-02  0.9496353E-01
         -2   -1    0    0    0  501 -0.00000000000E+00  0.00000000000E+00  0.77998434587E+02  0.77998434629E+02  0.25500000000E-02 0. -1.
          2   -1    0    0  501    0  0.00000000000E+00 -0.00000000000E+00 -0.22914736872E+04  0.22914736872E+04  0.25500000000E-02 0.  1.
    5000001    1    1    2    0    0 -0.74902768289E+02  0.35842235681E+03 -0.90752772697E+03  0.99864136995E+03  0.19900000000E+03 0.  0.
   -5000001    1    1    2    0    0  0.74902768289E+02 -0.35842235681E+03 -0.13059475256E+04  0.13708307518E+04  0.19900000000E+03 0.  0.
<mgrwt>
<rscale>  0 0.84553264E+03</rscale>
<asrwt>0</asrwt>
<pdfrwt beam="1">  1        2 0.32735334E+00 0.84553264E+03</pdfrwt>
<pdfrwt beam="2">  1       -2 0.11142635E-01 0.84553264E+03</pdfrwt>
<totfact> 0.33238292E+02</totfact>
</mgrwt>
</event>
<event>
 4    1  0.5069019E-005  0.5548811E+03  0.7818608E-02  0.1000370E+00
         -2   -1    0    0    0  501 -0.00000000000E+00  0.00000000000E+00  0.24246329036E+03  0.24246329037E+03  0.25500000000E-02 0. -1.
          2   -1    0    0  501    0  0.00000000000E+00 -0.00000000000E+00 -0.31746357800E+03  0.31746357801E+03  0.25500000000E-02 0.  1.
    5000001    1    1    2    0    0 -0.33590475890E+02 -0.18567522315E+03 -0.79937951575E+02  0.28564783329E+03  0.19900000000E+03 0.  0.
   -5000001    1    1    2    0    0  0.33590475890E+02  0.18567522315E+03  0.49376639340E+01  0.27427903509E+03  0.19900000000E+03 0.  0.
<mgrwt>
<rscale>  0 0.55488112E+03</rscale>
<asrwt>0</asrwt>
<pdfrwt beam="1">  1        2 0.45351940E-01 0.55488112E+03</pdfrwt>
<pdfrwt beam="2">  1       -2 0.34637613E-01 0.55488112E+03</pdfrwt>
<totfact> 0.87777716E+02</totfact>
</mgrwt>
</event>
<event>
 4    1  0.5069019E-005  0.4838315E+03  0.7818608E-02  0.1018087E+00
          2   -1    0    0  501    0  0.00000000000E+00  0.00000000000E+00  0.37302833978E+03  0.37302833979E+03  0.25500000000E-02 0.  1.
         -2   -1    0    0    0  501 -0.00000000000E+00 -0.00000000000E+00 -0.15688680133E+03  0.15688680136E+03  0.25500000000E-02 0. -1.
    5000001    1    1    2    0    0  0.65969180821E+02 -0.93088005471E+02  0.19223333825E+03  0.29928575963E+03  0.19900000000E+03 0.  0.
   -5000001    1    1    2    0    0 -0.65969180821E+02  0.93088005471E+02  0.23908200190E+02  0.23062938151E+03  0.19900000000E+03 0.  0.
<mgrwt>
<rscale>  0 0.48383147E+03</rscale>
<asrwt>0</asrwt>
<pdfrwt beam="1">  1        2 0.53289762E-01 0.48383147E+03</pdfrwt>
<pdfrwt beam="2">  1       -2 0.22412400E-01 0.48383147E+03</pdfrwt>
<totfact> 0.16242039E+03</totfact>
</mgrwt>
</event>
<event>
 4    1  0.5069019E-005  0.4883712E+03  0.7818608E-02  0.1016860E+00
          2   -1    0    0  501    0  0.00000000000E+00  0.00000000000E+00  0.21902049766E+04  0.21902049766E+04  0.25500000000E-02 0.  1.
         -2   -1    0    0    0  501 -0.00000000000E+00 -0.00000000000E+00 -0.27224217399E+02  0.27224217519E+02  0.25500000000E-02 0. -1.
    5000001    1    1    2    0    0 -0.13078024210E+03 -0.16476360834E+02  0.13152545099E+04  0.13367387060E+04  0.19900000000E+03 0.  0.
   -5000001    1    1    2    0    0  0.13078024210E+03  0.16476360834E+02  0.84772624932E+03  0.88069048818E+03  0.19900000000E+03 0.  0.
<mgrwt>
<rscale>  0 0.48837124E+03</rscale>
<asrwt>0</asrwt>
<pdfrwt beam="1">  1        2 0.31288647E+00 0.48837124E+03</pdfrwt>
<pdfrwt beam="2">  1       -2 0.38891733E-02 0.48837124E+03</pdfrwt>
<totfact> 0.20196275E+03</totfact>
</mgrwt>
</event>
<event>
 4    1  0.5069019E-005  0.4760877E+03  0.7818608E-02  0.1020216E+00
          2   -1    0    0  501    0  0.00000000000E+00  0.00000000000E+00  0.22799971933E+04  0.22799971933E+04  0.25500000000E-02 0.  1.
         -2   -1    0    0    0  501 -0.00000000000E+00 -0.00000000000E+00 -0.24853044590E+02  0.24853044721E+02  0.25500000000E-02 0. -1.
    5000001    1    1    2    0    0 -0.64186404406E+02  0.11137725293E+03  0.12399767604E+04  0.12624057008E+04  0.19900000000E+03 0.  0.
   -5000001    1    1    2    0    0  0.64186404406E+02 -0.11137725293E+03  0.10151673883E+04  0.10424445373E+04  0.19900000000E+03 0.  0.
<mgrwt>
<rscale>  0 0.47608769E+03</rscale>
<asrwt>0</asrwt>
<pdfrwt beam="1">  1        2 0.32571394E+00 0.47608769E+03</pdfrwt>
<pdfrwt beam="2">  1       -2 0.35504343E-02 0.47608769E+03</pdfrwt>
<totfact> 0.20935775E+03</totfact>
</mgrwt>
</event>
<event>
 4    1  0.5069019E-005  0.4921388E+03  0.7818608E-02  0.1015851E+00
          2   -1    0    0  501    0  0.00000000000E+00  0.00000000000E+00  0.14056640641E+04  0.14056640641E+04  0.25500000000E-02 0. -1.
         -2   -1    0    0    0  501 -0.00000000000E+00 -0.00000000000E+00 -0.43075836472E+02  0.43075836547E+02  0.25500000000E-02 0.  1.
    5000001    1    1    2    0    0  0.32793289218E+01  0.70940234557E+02  0.10525571461E+04  0.10735552229E+04  0.19900000000E+03 0.  0.
   -5000001    1    1    2    0    0 -0.32793289218E+01 -0.70940234557E+02  0.31003108150E+03  0.37518467769E+03  0.19900000000E+03 0.  0.
<mgrwt>
<rscale>  0 0.49213882E+03</rscale>
<asrwt>0</asrwt>
<pdfrwt beam="1">  1        2 0.20080911E+00 0.49213882E+03</pdfrwt>
<pdfrwt beam="2">  1       -2 0.61536921E-02 0.49213882E+03</pdfrwt>
<totfact> 0.24783247E+03</totfact>
</mgrwt>
</event>
<event>
 4    1  0.5069019E-005  0.4538762E+03  0.7818608E-02  0.1026572E+00
         -2   -1    0    0    0  501 -0.00000000000E+00  0.00000000000E+00  0.26620417631E+02  0.26620417753E+02  0.25500000000E-02 0. -1.
          2   -1    0    0  501    0  0.00000000000E+00 -0.00000000000E+00 -0.19346390138E+04  0.19346390138E+04  0.25500000000E-02 0.  1.
    5000001    1    1    2    0    0 -0.64108308033E+02 -0.84393031963E+02 -0.84234001211E+03  0.87199183195E+03  0.19900000000E+03 0.  0.
   -5000001    1    1    2    0    0  0.64108308033E+02  0.84393031963E+02 -0.10656785840E+04  0.10892675996E+04  0.19900000000E+03 0.  0.
<mgrwt>
<rscale>  0 0.45387619E+03</rscale>
<asrwt>0</asrwt>
<pdfrwt beam="1">  1        2 0.27637691E+00 0.45387619E+03</pdfrwt>
<pdfrwt beam="2">  1       -2 0.38029180E-02 0.45387619E+03</pdfrwt>
<totfact> 0.28056984E+03</totfact>
</mgrwt>
</event>
<event>
 4    1  0.5069019E-005  0.1019334E+04  0.7818608E-02  0.9287591E-01
         -2   -1    0    0    0  501 -0.00000000000E+00  0.00000000000E+00  0.17760127119E+03  0.17760127121E+03  0.25500000000E-02 0. -1.
          2   -1    0    0  501    0  0.00000000000E+00 -0.00000000000E+00 -0.14626034576E+04  0.14626034576E+04  0.25500000000E-02 0.  1.
    5000001    1    1    2    0    0 -0.26013764916E+03  0.37435702449E+03 -0.82128058244E+03  0.96016538856E+03  0.19900000000E+03 0.  0.
   -5000001    1    1    2    0    0  0.26013764916E+03 -0.37435702449E+03 -0.46372160395E+03  0.68003934024E+03  0.19900000000E+03 0.  0.
<mgrwt>
<rscale>  0 0.10193336E+04</rscale>
<asrwt>0</asrwt>
<pdfrwt beam="1">  1        2 0.20894334E+00 0.10193336E+04</pdfrwt>
<pdfrwt beam="2">  1       -2 0.25371611E-01 0.10193336E+04</pdfrwt>
<totfact> 0.21270787E+02</totfact>
</mgrwt>
</event>
<event>
 4    1  0.5069019E-005  0.6587727E+03  0.7818608E-02  0.9790456E-01
          2   -1    0    0  501    0  0.00000000000E+00  0.00000000000E+00  0.36935257633E+04  0.36935257633E+04  0.25500000000E-02 0.  1.
         -2   -1    0    0    0  501 -0.00000000000E+00 -0.00000000000E+00 -0.29374467800E+02  0.29374467911E+02  0.25500000000E-02 0. -1.
    5000001    1    1    2    0    0 -0.23110596682E+03  0.12020473040E+03  0.16502480552E+04  0.16824918392E+04  0.19900000000E+03 0.  0.
   -5000001    1    1    2    0    0  0.23110596682E+03 -0.12020473040E+03  0.20139032403E+04  0.20404083921E+04  0.19900000000E+03 0.  0.
<mgrwt>
<rscale>  0 0.65877266E+03</rscale>
<asrwt>0</asrwt>
<pdfrwt beam="1">  1        2 0.52764635E+00 0.65877266E+03</pdfrwt>
<pdfrwt beam="2">  1       -2 0.41963541E-02 0.65877266E+03</pdfrwt>
<totfact> 0.26754543E+02</totfact>
</mgrwt>
</event>
<event>
 4    1  0.5069019E-005  0.7049090E+03  0.7818608E-02  0.9708874E-01
         -2   -1    0    0    0  501 -0.00000000000E+00  0.00000000000E+00  0.68902573099E+02  0.68902573146E+02  0.25500000000E-02 0. -1.
          2   -1    0    0  501    0  0.00000000000E+00 -0.00000000000E+00 -0.18028961139E+04  0.18028961139E+04  0.25500000000E-02 0.  1.
    5000001    1    1    2    0    0 -0.19375860105E+03 -0.18979640172E+03 -0.58776388888E+03  0.67722408304E+03  0.19900000000E+03 0.  0.
   -5000001    1    1    2    0    0  0.19375860105E+03  0.18979640172E+03 -0.11462296519E+04  0.11945746040E+04  0.19900000000E+03 0.  0.
<mgrwt>
<rscale>  0 0.70490902E+03</rscale>
<asrwt>0</asrwt>
<pdfrwt beam="1">  1        2 0.25755656E+00 0.70490902E+03</pdfrwt>
<pdfrwt beam="2">  1       -2 0.98432258E-02 0.70490902E+03</pdfrwt>
<totfact> 0.72707293E+02</totfact>
</mgrwt>
</event>
<event>
 4    1  0.5069019E-005  0.4417266E+03  0.7818608E-02  0.1030218E+00
          2   -1    0    0  501    0  0.00000000000E+00  0.00000000000E+00  0.18845610398E+04  0.18845610398E+04  0.25500000000E-02 0.  1.
         -2   -1    0    0    0  501 -0.00000000000E+00 -0.00000000000E+00 -0.25884330186E+02  0.25884330312E+02  0.25500000000E-02 0. -1.
    5000001    1    1    2    0    0 -0.29360036296E+02  0.88483457483E+02  0.83377102410E+03  0.86224500846E+03  0.19900000000E+03 0.  0.
   -5000001    1    1    2    0    0  0.29360036296E+02 -0.88483457483E+02  0.10249056855E+04  0.10482003617E+04  0.19900000000E+03 0.  0.
<mgrwt>
<rscale>  0 0.44172661E+03</rscale>
<asrwt>0</asrwt>
<pdfrwt beam="1">  1        2 0.26922309E+00 0.44172661E+03</pdfrwt>
<pdfrwt beam="2">  1       -2 0.36977603E-02 0.44172661E+03</pdfrwt>
<totfact> 0.31018509E+03</totfact>
</mgrwt>
</event>
<event>
 4    1  0.5069019E-005  0.8449722E+03  0.7818608E-02  0.9497110E-01
         -2   -1    0    0    0  501 -0.00000000000E+00  0.00000000000E+00  0.77214188974E+03  0.77214188974E+03  0.25500000000E-02 0. -1.
          2   -1    0    0  501    0  0.00000000000E+00 -0.00000000000E+00 -0.23116800203E+03  0.23116800205E+03  0.25500000000E-02 0.  1.
    5000001    1    1    2    0    0  0.10605865363E+03 -0.28468603532E+03  0.14168054256E+02  0.36345056125E+03  0.19900000000E+03 0.  0.
   -5000001    1    1    2    0    0 -0.10605865363E+03  0.28468603532E+03  0.52680583345E+03  0.63985933054E+03  0.19900000000E+03 0.  0.
<mgrwt>
<rscale>  0 0.84497218E+03</rscale>
<asrwt>0</asrwt>
<pdfrwt beam="1">  1        2 0.33024001E-01 0.84497218E+03</pdfrwt>
<pdfrwt beam="2">  1       -2 0.11030598E+00 0.84497218E+03</pdfrwt>
<totfact> 0.10478950E+02</totfact>
</mgrwt>
</event>
<event>
 4    1  0.5069019E-005  0.5592904E+03  0.7818608E-02  0.9993662E-01
         -2   -1    0    0    0  501 -0.00000000000E+00  0.00000000000E+00  0.39365493700E+02  0.39365493783E+02  0.25500000000E-02 0. -1.
          2   -1    0    0  501    0  0.00000000000E+00 -0.00000000000E+00 -0.19865478953E+04  0.19865478953E+04  0.25500000000E-02 0.  1.
    5000001    1    1    2    0    0  0.66373700214E+02  0.17699049510E+03 -0.11676235575E+04  0.11994485714E+04  0.19900000000E+03 0.  0.
   -5000001    1    1    2    0    0 -0.66373700214E+02 -0.17699049510E+03 -0.77955884414E+03  0.82646481771E+03  0.19900000000E+03 0.  0.
<mgrwt>
<rscale>  0 0.55929040E+03</rscale>
<asrwt>0</asrwt>
<pdfrwt beam="1">  1        2 0.28379249E+00 0.55929040E+03</pdfrwt>
<pdfrwt beam="2">  1       -2 0.56236432E-02 0.55929040E+03</pdfrwt>
<totfact> 0.14409515E+03</totfact>
</mgrwt>
</event>
<event>
 4    1  0.5069019E-005  0.7170335E+03  0.7818608E-02  0.9688538E-01
         -2   -1    0    0    0  501 -0.00000000000E+00  0.00000000000E+00  0.53805059131E+02  0.53805059191E+02  0.25500000000E-02 0. -1.
          2   -1    0    0  501    0  0.00000000000E+00 -0.00000000000E+00 -0.23888876678E+04  0.23888876678E+04  0.25500000000E-02 0.  1.
    5000001    1    1    2    0    0 -0.13206279877E+03 -0.14725533127E+03 -0.40724781493E+03  0.49454676035E+03  0.19900000000E+03 0.  0.
   -5000001    1    1    2    0    0  0.13206279877E+03  0.14725533127E+03 -0.19278347937E+04  0.19481459667E+04  0.19900000000E+03 0.  0.
<mgrwt>
<rscale>  0 0.71703345E+03</rscale>
<asrwt>0</asrwt>
<pdfrwt beam="1">  1        2 0.34126960E+00 0.71703345E+03</pdfrwt>
<pdfrwt beam="2">  1       -2 0.76864385E-02 0.71703345E+03</pdfrwt>
<totfact> 0.54591399E+02</totfact>
</mgrwt>
</event>
<event>
 4    1  0.5069019E-005  0.6600973E+03  0.7818608E-02  0.9788015E-01
          2   -1    0    0  501    0  0.00000000000E+00  0.00000000000E+00  0.14867300661E+04  0.14867300661E+04  0.25500000000E-02 0.  1.
         -2   -1    0    0    0  501 -0.00000000000E+00 -0.00000000000E+00 -0.73269606515E+02  0.73269606559E+02  0.25500000000E-02 0. -1.
    5000001    1    1    2    0    0 -0.19477091128E+03  0.15993706390E+03  0.52650645083E+03  0.61670545243E+03  0.19900000000E+03 0.  0.
   -5000001    1    1    2    0    0  0.19477091128E+03 -0.15993706390E+03  0.88695400878E+03  0.94329422026E+03  0.19900000000E+03 0.  0.
<mgrwt>
<rscale>  0 0.66009735E+03</rscale>
<asrwt>0</asrwt>
<pdfrwt beam="1">  1        2 0.21238999E+00 0.66009735E+03</pdfrwt>
<pdfrwt beam="2">  1       -2 0.10467088E-01 0.66009735E+03</pdfrwt>
<totfact> 0.95882567E+02</totfact>
</mgrwt>
</event>
<event>
 4    1  0.5069019E-005  0.6366311E+03  0.7818608E-02  0.9832193E-01
          2   -1    0    0  501    0  0.00000000000E+00  0.00000000000E+00  0.15311199939E+04  0.15311199939E+04  0.25500000000E-02 0.  1.
         -2   -1    0    0    0  501 -0.00000000000E+00 -0.00000000000E+00 -0.66176916935E+02  0.66176916984E+02  0.25500000000E-02 0. -1.
    5000001    1    1    2    0    0 -0.14560995038E+03 -0.20125416357E+03  0.72173710912E+03  0.78880349307E+03  0.19900000000E+03 0.  0.
   -5000001    1    1    2    0    0  0.14560995038E+03  0.20125416357E+03  0.74320596781E+03  0.80849341778E+03  0.19900000000E+03 0.  0.
<mgrwt>
<rscale>  0 0.63663114E+03</rscale>
<asrwt>0</asrwt>
<pdfrwt beam="1">  1        2 0.21873144E+00 0.63663114E+03</pdfrwt>
<pdfrwt beam="2">  1       -2 0.94538448E-02 0.63663114E+03</pdfrwt>
<totfact> 0.10733724E+03</totfact>
</mgrwt>
</event>
<event>
 4    1  0.5069019E-005  0.9315139E+03  0.7818608E-02  0.9387023E-01
          2   -1    0    0  501    0  0.00000000000E+00  0.00000000000E+00  0.12849193368E+04  0.12849193368E+04  0.25500000000E-02 0.  1.
         -2   -1    0    0    0  501 -0.00000000000E+00 -0.00000000000E+00 -0.16882735821E+03  0.16882735823E+03  0.25500000000E-02 0. -1.
    5000001    1    1    2    0    0 -0.36373415380E+03 -0.29098637866E+02  0.88607229780E+03  0.97871057126E+03  0.19900000000E+03 0.  0.
   -5000001    1    1    2    0    0  0.36373415380E+03  0.29098637866E+02  0.23001968082E+03  0.47503612381E+03  0.19900000000E+03 0.  0.
<mgrwt>
<rscale>  0 0.93151390E+03</rscale>
<asrwt>0</asrwt>
<pdfrwt beam="1">  1        2 0.18355991E+00 0.93151390E+03</pdfrwt>
<pdfrwt beam="2">  1       -2 0.24118194E-01 0.93151390E+03</pdfrwt>
<totfact> 0.29247754E+02</totfact>
</mgrwt>
</event>
<event>
 4    1  0.5069019E-005  0.1032957E+04  0.7818608E-02  0.9273119E-01
          2   -1    0    0  501    0  0.00000000000E+00  0.00000000000E+00  0.24538129616E+04  0.24538129616E+04  0.25500000000E-02 0.  1.
         -2   -1    0    0    0  501 -0.00000000000E+00 -0.00000000000E+00 -0.10870834491E+03  0.10870834494E+03  0.25500000000E-02 0. -1.
    5000001    1    1    2    0    0 -0.10496511358E+03  0.46173554676E+03  0.10382342559E+04  0.11583387934E+04  0.19900000000E+03 0.  0.
   -5000001    1    1    2    0    0  0.10496511358E+03 -0.46173554676E+03  0.13068703608E+04  0.14041825131E+04  0.19900000000E+03 0.  0.
<mgrwt>
<rscale>  0 0.10329568E+04</rscale>
<asrwt>0</asrwt>
<pdfrwt beam="1">  1        2 0.35054466E+00 0.10329568E+04</pdfrwt>
<pdfrwt beam="2">  1       -2 0.15529766E-01 0.10329568E+04</pdfrwt>
<totfact> 0.15501489E+02</totfact>
</mgrwt>
</event>
<event>
 4    1  0.5069019E-005  0.6534941E+03  0.7818608E-02  0.9800245E-01
          2   -1    0    0  501    0  0.00000000000E+00  0.00000000000E+00  0.34588953773E+03  0.34588953774E+03  0.25500000000E-02 0.  1.
         -2   -1    0    0    0  501 -0.00000000000E+00 -0.00000000000E+00 -0.30866396338E+03  0.30866396339E+03  0.25500000000E-02 0. -1.
    5000001    1    1    2    0    0  0.79191346587E+02 -0.23271687384E+03  0.10080813166E+03  0.33195134004E+03  0.19900000000E+03 0.  0.
   -5000001    1    1    2    0    0 -0.79191346587E+02  0.23271687384E+03 -0.63582557314E+02  0.32260216109E+03  0.19900000000E+03 0.  0.
<mgrwt>
<rscale>  0 0.65349410E+03</rscale>
<asrwt>0</asrwt>
<pdfrwt beam="1">  1        2 0.49412791E-01 0.65349410E+03</pdfrwt>
<pdfrwt beam="2">  1       -2 0.44094852E-01 0.65349410E+03</pdfrwt>
<totfact> 0.49997201E+02</totfact>
</mgrwt>
</event>
<event>
 4    1  0.5069019E-005  0.6198791E+03  0.7818608E-02  0.9865000E-01
         -2   -1    0    0    0  501 -0.00000000000E+00  0.00000000000E+00  0.34275555820E+03  0.34275555821E+03  0.25500000000E-02 0. -1.
          2   -1    0    0  501    0  0.00000000000E+00 -0.00000000000E+00 -0.28026538905E+03  0.28026538906E+03  0.25500000000E-02 0.  1.
    5000001    1    1    2    0    0 -0.21575993058E+03  0.70649786380E+02 -0.39237238566E+02  0.30444096447E+03  0.19900000000E+03 0.  0.
   -5000001    1    1    2    0    0  0.21575993058E+03 -0.70649786380E+02  0.10172740772E+03  0.31857998280E+03  0.19900000000E+03 0.  0.
<mgrwt>
<rscale>  0 0.61987908E+03</rscale>
<asrwt>0</asrwt>
<pdfrwt beam="1">  1        2 0.40037913E-01 0.61987908E+03</pdfrwt>
<pdfrwt beam="2">  1       -2 0.48965080E-01 0.61987908E+03</pdfrwt>
<totfact> 0.51204684E+02</totfact>
</mgrwt>
</event>
<event>
 4    1  0.5069019E-005  0.1186133E+04  0.7818608E-02  0.9125081E-01
         -2   -1    0    0    0  501 -0.00000000000E+00  0.00000000000E+00  0.21459743881E+03  0.21459743883E+03  0.25500000000E-02 0. -1.
          2   -1    0    0  501    0  0.00000000000E+00 -0.00000000000E+00 -0.16390129980E+04  0.16390129980E+04  0.25500000000E-02 0.  1.
    5000001    1    1    2    0    0 -0.40853707772E+03 -0.36537889552E+03 -0.54300830016E+03  0.79678309169E+03  0.19900000000E+03 0.  0.
   -5000001    1    1    2    0    0  0.40853707772E+03  0.36537889552E+03 -0.88140725902E+03  0.10568273451E+04  0.19900000000E+03 0.  0.
<mgrwt>
<rscale>  0 0.11861332E+04</rscale>
<asrwt>0</asrwt>
<pdfrwt beam="1">  1        2 0.23414471E+00 0.11861332E+04</pdfrwt>
<pdfrwt beam="2">  1       -2 0.30656778E-01 0.11861332E+04</pdfrwt>
<totfact> 0.11994320E+02</totfact>
</mgrwt>
</event>
<event>
 4    1  0.5069019E-005  0.5583415E+03  0.7818608E-02  0.9995814E-01
          2   -1    0    0  501    0  0.00000000000E+00  0.00000000000E+00  0.41654503329E+03  0.41654503330E+03  0.25500000000E-02 0.  1.
         -2   -1    0    0    0  501 -0.00000000000E+00 -0.00000000000E+00 -0.18710173064E+03  0.18710173066E+03  0.25500000000E-02 0. -1.
    5000001    1    1    2    0    0 -0.81916256035E+02  0.10853992939E+03 -0.37577955596E+02  0.24393501598E+03  0.19900000000E+03 0.  0.
   -5000001    1    1    2    0    0  0.81916256035E+02 -0.10853992939E+03  0.26702125824E+03  0.35971174797E+03  0.19900000000E+03 0.  0.
<mgrwt>
<rscale>  0 0.55834146E+03</rscale>
<asrwt>0</asrwt>
<pdfrwt beam="1">  1        2 0.59506434E-01 0.55834146E+03</pdfrwt>
<pdfrwt beam="2">  1       -2 0.26728819E-01 0.55834146E+03</pdfrwt>
<totfact> 0.10499425E+03</totfact>
</mgrwt>
</event>
<event>
 4    1  0.5069019E-005  0.7745080E+03  0.7818608E-02  0.9597667E-01
          2   -1    0    0  501    0  0.00000000000E+00  0.00000000000E+00  0.13494565601E+04  0.13494565601E+04  0.25500000000E-02 0.  1.
         -2   -1    0    0    0  501 -0.00000000000E+00 -0.00000000000E+00 -0.11113041301E+03  0.11113041304E+03  0.25500000000E-02 0. -1.
    5000001    1    1    2    0    0  0.28770337026E+03  0.16555847110E+03  0.64459224563E+03  0.75185304398E+03  0.19900000000E+03 0.  0.
   -5000001    1    1    2    0    0 -0.28770337026E+03 -0.16555847110E+03  0.59373390148E+03  0.70873392919E+03  0.19900000000E+03 0.  0.
<mgrwt>
<rscale>  0 0.77450801E+03</rscale>
<asrwt>0</asrwt>
<pdfrwt beam="1">  1        2 0.19277950E+00 0.77450801E+03</pdfrwt>
<pdfrwt beam="2">  1       -2 0.15875774E-01 0.77450801E+03</pdfrwt>
<totfact> 0.56440220E+02</totfact>
</mgrwt>
</event>
<event>
 4    1  0.5069019E-005  0.8539600E+03  0.7818608E-02  0.9485037E-01
          2   -1    0    0  501    0  0.00000000000E+00  0.00000000000E+00  0.10337786724E+04  0.10337786724E+04  0.25500000000E-02 0.  1.
         -2   -1    0    0    0  501 -0.00000000000E+00 -0.00000000000E+00 -0.17635488136E+03  0.17635488138E+03  0.25500000000E-02 0. -1.
    5000001    1    1    2    0    0 -0.38970847578E+02  0.35355375347E+03  0.60903239878E+03  0.73283043490E+03  0.19900000000E+03 0.  0.
   -5000001    1    1    2    0    0  0.38970847578E+02 -0.35355375347E+03  0.24839139227E+03  0.47730311890E+03  0.19900000000E+03 0.  0.
<mgrwt>
<rscale>  0 0.85395999E+03</rscale>
<asrwt>0</asrwt>
<pdfrwt beam="1">  1        2 0.14768267E+00 0.85395999E+03</pdfrwt>
<pdfrwt beam="2">  1       -2 0.25193554E-01 0.85395999E+03</pdfrwt>
<totfact> 0.37888853E+02</totfact>
</mgrwt>
</event>
<event>
 4    1  0.5069019E-005  0.5012408E+03  0.7818608E-02  0.1013456E+00
         -2   -1    0    0    0  501 -0.00000000000E+00  0.00000000000E+00  0.16764268154E+03  0.16764268156E+03  0.25500000000E-02 0. -1.
          2   -1    0    0  501    0  0.00000000000E+00 -0.00000000000E+00 -0.37466933947E+03  0.37466933948E+03  0.25500000000E-02 0.  1.
    5000001    1    1    2    0    0  0.31664002922E+02 -0.14826968591E+03 -0.87354215441E+02  0.26498729742E+03  0.19900000000E+03 0.  0.
   -5000001    1    1    2    0    0 -0.31664002922E+02  0.14826968591E+03 -0.11967244248E+03  0.27732472362E+03  0.19900000000E+03 0.  0.
<mgrwt>
<rscale>  0 0.50124075E+03</rscale>
<asrwt>0</asrwt>
<pdfrwt beam="1">  1        2 0.53524191E-01 0.50124075E+03</pdfrwt>
<pdfrwt beam="2">  1       -2 0.23948955E-01 0.50124075E+03</pdfrwt>
<totfact> 0.14377134E+03</totfact>
</mgrwt>
</event>
<event>
 4    1  0.5069019E-005  0.9034141E+03  0.7818608E-02  0.9421324E-01
         -2   -1    0    0    0  501 -0.00000000000E+00  0.00000000000E+00  0.11553273932E+04  0.11553273932E+04  0.25500000000E-02 0. -1.
          2   -1    0    0  501    0  0.00000000000E+00 -0.00000000000E+00 -0.17660729482E+03  0.17660729484E+03  0.25500000000E-02 0.  1.
    5000001    1    1    2    0    0  0.24400991078E+02 -0.40045160947E+03  0.40236998466E+03  0.60204609827E+03  0.19900000000E+03 0.  0.
   -5000001    1    1    2    0    0 -0.24400991078E+02  0.40045160947E+03  0.57635011373E+03  0.72988858978E+03  0.19900000000E+03 0.  0.
<mgrwt>
<rscale>  0 0.90341407E+03</rscale>
<asrwt>0</asrwt>
<pdfrwt beam="1">  1        2 0.25229613E-01 0.90341407E+03</pdfrwt>
<pdfrwt beam="2">  1       -2 0.16504678E+00 0.90341407E+03</pdfrwt>
<totfact> 0.50385051E+01</totfact>
</mgrwt>
</event>
<event>
 4    1  0.5069019E-005  0.8566078E+03  0.7818608E-02  0.9481511E-01
         -2   -1    0    0    0  501 -0.00000000000E+00  0.00000000000E+00  0.11197280508E+03  0.11197280511E+03  0.25500000000E-02 0. -1.
          2   -1    0    0  501    0  0.00000000000E+00 -0.00000000000E+00 -0.16382926871E+04  0.16382926871E+04  0.25500000000E-02 0.  1.
    5000001    1    1    2    0    0  0.18346252917E+03  0.32706863840E+03 -0.87893921726E+03  0.97609812082E+03  0.19900000000E+03 0.  0.
   -5000001    1    1    2    0    0 -0.18346252917E+03 -0.32706863840E+03 -0.64738066476E+03  0.77416737140E+03  0.19900000000E+03 0.  0.
<mgrwt>
<rscale>  0 0.85660779E+03</rscale>
<asrwt>0</asrwt>
<pdfrwt beam="1">  1        2 0.23404180E+00 0.85660779E+03</pdfrwt>
<pdfrwt beam="2">  1       -2 0.15996116E-01 0.85660779E+03</pdfrwt>
<totfact> 0.39050026E+02</totfact>
</mgrwt>
</event>
<event>
 4    1  0.5069019E-005  0.1797173E+04  0.7818608E-02  0.8707804E-01
          2   -1    0    0  501    0  0.00000000000E+00  0.00000000000E+00  0.18828149018E+04  0.18828149018E+04  0.25500000000E-02 0.  1.
         -2   -1    0    0    0  501 -0.00000000000E+00 -0.00000000000E+00 -0.42885646290E+03  0.42885646291E+03  0.25500000000E-02 0. -1.
    5000001    1    1    2    0    0  0.15604205881E+03 -0.59727960912E+03  0.15269230352E+04  0.16589716727E+04  0.19900000000E+03 0.  0.
   -5000001    1    1    2    0    0 -0.15604205881E+03  0.59727960912E+03 -0.72964596278E+02  0.65269969197E+03  0.19900000000E+03 0.  0.
<mgrwt>
<rscale>  0 0.17971726E+04</rscale>
<asrwt>0</asrwt>
<pdfrwt beam="1">  1        2 0.26897355E+00 0.17971726E+04</pdfrwt>
<pdfrwt beam="2">  1       -2 0.61265210E-01 0.17971726E+04</pdfrwt>
<totfact> 0.21635469E+01</totfact>
</mgrwt>
</event>
<event>
 4    1  0.5069019E-005  0.1149883E+04  0.7818608E-02  0.9157892E-01
          2   -1    0    0  501    0  0.00000000000E+00  0.00000000000E+00  0.10190116924E+04  0.10190116924E+04  0.25500000000E-02 0.  1.
         -2   -1    0    0    0  501 -0.00000000000E+00 -0.00000000000E+00 -0.32439024369E+03  0.32439024370E+03  0.25500000000E-02 0. -1.
    5000001    1    1    2    0    0 -0.36543728234E+03 -0.32777078357E+03  0.60849287132E+03  0.80674820628E+03  0.19900000000E+03 0.  0.
   -5000001    1    1    2    0    0  0.36543728234E+03  0.32777078357E+03  0.86128577391E+02  0.53665372982E+03  0.19900000000E+03 0.  0.
<mgrwt>
<rscale>  0 0.11498825E+04</rscale>
<asrwt>0</asrwt>
<pdfrwt beam="1">  1        2 0.14557309E+00 0.11498825E+04</pdfrwt>
<pdfrwt beam="2">  1       -2 0.46341465E-01 0.11498825E+04</pdfrwt>
<totfact> 0.11942099E+02</totfact>
</mgrwt>
</event>
<event>
 4    1  0.5069019E-005  0.4992018E+03  0.7818608E-02  0.1013987E+00
         -2   -1    0    0    0  501 -0.00000000000E+00  0.00000000000E+00  0.20109192834E+02  0.20109192996E+02  0.25500000000E-02 0. -1.
          2   -1    0    0  501    0  0.00000000000E+00 -0.00000000000E+00 -0.30981157918E+04  0.30981157918E+04  0.25500000000E-02 0.  1.
    5000001    1    1    2    0    0  0.13920911541E+03  0.55443860712E+02 -0.14409506653E+04  0.14623245260E+04  0.19900000000E+03 0.  0.
   -5000001    1    1    2    0    0 -0.13920911541E+03 -0.55443860712E+02 -0.16370559337E+04  0.16559004589E+04  0.19900000000E+03 0.  0.
<mgrwt>
<rscale>  0 0.49920180E+03</rscale>
<asrwt>0</asrwt>
<pdfrwt beam="1">  1        2 0.44258767E+00 0.49920180E+03</pdfrwt>
<pdfrwt beam="2">  1       -2 0.28727438E-02 0.49920180E+03</pdfrwt>
<totfact> 0.10793783E+03</totfact>
</mgrwt>
</event>
<event>
 4    1  0.5069019E-005  0.1081131E+04  0.7818608E-02  0.9223780E-01
         -2   -1    0    0    0  501 -0.00000000000E+00  0.00000000000E+00  0.60667814531E+03  0.60667814532E+03  0.25500000000E-02 0. -1.
          2   -1    0    0  501    0  0.00000000000E+00 -0.00000000000E+00 -0.48165771124E+03  0.48165771125E+03  0.25500000000E-02 0.  1.
    5000001    1    1    2    0    0  0.20651543709E+03 -0.44220468760E+03  0.18337947721E+03  0.55805254605E+03  0.19900000000E+03 0.  0.
   -5000001    1    1    2    0    0 -0.20651543709E+03  0.44220468760E+03 -0.58359043137E+02  0.53028331051E+03  0.19900000000E+03 0.  0.
<mgrwt>
<rscale>  0 0.10811313E+04</rscale>
<asrwt>0</asrwt>
<pdfrwt beam="1">  1        2 0.68808244E-01 0.10811313E+04</pdfrwt>
<pdfrwt beam="2">  1       -2 0.86668307E-01 0.10811313E+04</pdfrwt>
<totfact> 0.80376514E+01</totfact>
</mgrwt>
</event>
<event>
 4    1  0.5069019E-005  0.4869202E+03  0.7818608E-02  0.1017250E+00
          2   -1    0    0  501    0  0.00000000000E+00  0.00000000000E+00  0.66811815964E+03  0.66811815964E+03  0.25500000000E-02 0.  1.
         -2   -1    0    0    0  501 -0.00000000000E+00 -0.00000000000E+00 -0.88716074387E+02  0.88716074424E+02  0.25500000000E-02 0. -1.
    5000001    1    1    2    0    0 -0.11595651888E+03 -0.76180074158E+02  0.25775202095E+03  0.35395822108E+03  0.19900000000E+03 0.  0.
   -5000001    1    1    2    0    0  0.11595651888E+03  0.76180074158E+02  0.32165006431E+03  0.40287601299E+03  0.19900000000E+03 0.  0.
<mgrwt>
<rscale>  0 0.48692020E+03</rscale>
<asrwt>0</asrwt>
<pdfrwt beam="1">  1        2 0.95445452E-01 0.48692020E+03</pdfrwt>
<pdfrwt beam="2">  1       -2 0.12673725E-01 0.48692020E+03</pdfrwt>
<totfact> 0.22069911E+03</totfact>
</mgrwt>
</event>
<event>
 4    1  0.5069019E-005  0.8197107E+03  0.7818608E-02  0.9531917E-01
          2   -1    0    0  501    0  0.00000000000E+00  0.00000000000E+00  0.20374808430E+04  0.20374808430E+04  0.25500000000E-02 0.  1.
         -2   -1    0    0    0  501 -0.00000000000E+00 -0.00000000000E+00 -0.82445630813E+02  0.82445630852E+02  0.25500000000E-02 0. -1.
    5000001    1    1    2    0    0  0.20904810594E+03  0.16790909057E+03  0.36286470984E+03  0.49311902310E+03  0.19900000000E+03 0.  0.
   -5000001    1    1    2    0    0 -0.20904810594E+03 -0.16790909057E+03  0.15921705024E+04  0.16268074508E+04  0.19900000000E+03 0.  0.
<mgrwt>
<rscale>  0 0.81971066E+03</rscale>
<asrwt>0</asrwt>
<pdfrwt beam="1">  1        2 0.29106870E+00 0.81971066E+03</pdfrwt>
<pdfrwt beam="2">  1       -2 0.11777947E-01 0.81971066E+03</pdfrwt>
<totfact> 0.40919967E+02</totfact>
</mgrwt>
</event>
<event>
 4    1  0.5069019E-005  0.8459820E+03  0.7818608E-02  0.9495746E-01
          2   -1    0    0  501    0  0.00000000000E+00  0.00000000000E+00  0.10821457176E+04  0.10821457176E+04  0.25500000000E-02 0.  1.
         -2   -1    0    0    0  501 -0.00000000000E+00 -0.00000000000E+00 -0.16533946555E+03  0.16533946557E+03  0.25500000000E-02 0. -1.
    5000001    1    1    2    0    0  0.17785372123E+03  0.22008161147E+03  0.81734797262E+03  0.88753961613E+03  0.19900000000E+03 0.  0.
   -5000001    1    1    2    0    0 -0.17785372123E+03 -0.22008161147E+03  0.99458279387E+02  0.35994556700E+03  0.19900000000E+03 0.  0.
<mgrwt>
<rscale>  0 0.84598202E+03</rscale>
<asrwt>0</asrwt>
<pdfrwt beam="1">  1        2 0.15459224E+00 0.84598202E+03</pdfrwt>
<pdfrwt beam="2">  1       -2 0.23619924E-01 0.84598202E+03</pdfrwt>
<totfact> 0.39818561E+02</totfact>
</mgrwt>
</event>
<event>
 4    1  0.5069019E-005  0.8577771E+03  0.7818608E-02  0.9479958E-01
         -2   -1    0    0    0  501 -0.00000000000E+00  0.00000000000E+00  0.41697728561E+03  0.41697728562E+03  0.25500000000E-02 0. -1.
          2   -1    0    0  501    0  0.00000000000E+00 -0.00000000000E+00 -0.44114008260E+03  0.44114008261E+03  0.25500000000E-02 0.  1.
    5000001    1    1    2    0    0  0.37214061559E+03  0.65685718451E+02 -0.51354362938E+02  0.43016452896E+03  0.19900000000E+03 0.  0.
   -5000001    1    1    2    0    0 -0.37214061559E+03 -0.65685718451E+02  0.27191565950E+02  0.42795283927E+03  0.19900000000E+03 0.  0.
<mgrwt>
<rscale>  0 0.85777711E+03</rscale>
<asrwt>0</asrwt>
<pdfrwt beam="1">  1        2 0.63020012E-01 0.85777711E+03</pdfrwt>
<pdfrwt beam="2">  1       -2 0.59568184E-01 0.85777711E+03</pdfrwt>
<totfact> 0.20473116E+02</totfact>
</mgrwt>
</event>
<event>
 4    1  0.5069019E-005  0.6345979E+03  0.7818608E-02  0.9836117E-01
          2   -1    0    0  501    0  0.00000000000E+00  0.00000000000E+00  0.19214469467E+04  0.19214469467E+04  0.25500000000E-02 0.  1.
         -2   -1    0    0    0  501 -0.00000000000E+00 -0.00000000000E+00 -0.52397290298E+02  0.52397290360E+02  0.25500000000E-02 0. -1.
    5000001    1    1    2    0    0 -0.21056930368E+03  0.10509051842E+03  0.11692335811E+04  0.12091698044E+04  0.19900000000E+03 0.  0.
   -5000001    1    1    2    0    0  0.21056930368E+03 -0.10509051842E+03  0.69981607534E+03  0.76467443269E+03  0.19900000000E+03 0.  0.
<mgrwt>
<rscale>  0 0.63459787E+03</rscale>
<asrwt>0</asrwt>
<pdfrwt beam="1">  1        2 0.27449244E+00 0.63459787E+03</pdfrwt>
<pdfrwt beam="2">  1       -2 0.74853266E-02 0.63459787E+03</pdfrwt>
<totfact> 0.98692704E+02</totfact>
</mgrwt>
</event>
<event>
 4    1  0.5069019E-005  0.8401626E+03  0.7818608E-02  0.9503636E-01
          2   -1    0    0  501    0  0.00000000000E+00  0.00000000000E+00  0.77415022521E+03  0.77415022522E+03  0.25500000000E-02 0.  1.
         -2   -1    0    0    0  501 -0.00000000000E+00 -0.00000000000E+00 -0.22795097923E+03  0.22795097925E+03  0.25500000000E-02 0. -1.
    5000001    1    1    2    0    0  0.26613438065E+03 -0.19480161140E+03  0.47301239238E+03  0.61001385207E+03  0.19900000000E+03 0.  0.
   -5000001    1    1    2    0    0 -0.26613438065E+03  0.19480161140E+03  0.73186853600E+02  0.39208735240E+03  0.19900000000E+03 0.  0.
<mgrwt>
<rscale>  0 0.84016261E+03</rscale>
<asrwt>0</asrwt>
<pdfrwt beam="1">  1        2 0.11059289E+00 0.84016261E+03</pdfrwt>
<pdfrwt beam="2">  1       -2 0.32564426E-01 0.84016261E+03</pdfrwt>
<totfact> 0.34919745E+02</totfact>
</mgrwt>
</event>
<event>
 4    1  0.5069019E-005  0.6862563E+03  0.7818608E-02  0.9741029E-01
         -2   -1    0    0    0  501 -0.00000000000E+00  0.00000000000E+00  0.65270395385E+03  0.65270395386E+03  0.25500000000E-02 0. -1.
          2   -1    0    0  501    0  0.00000000000E+00 -0.00000000000E+00 -0.18038335405E+03  0.18038335407E+03  0.25500000000E-02 0.  1.
    5000001    1    1    2    0    0  0.22802539358E+03 -0.59019771084E+02  0.53432124830E+02  0.31294553114E+03  0.19900000000E+03 0.  0.
   -5000001    1    1    2    0    0 -0.22802539358E+03  0.59019771084E+02  0.41888847497E+03  0.52014177679E+03  0.19900000000E+03 0.  0.
<mgrwt>
<rscale>  0 0.68625630E+03</rscale>
<asrwt>0</asrwt>
<pdfrwt beam="1">  1        2 0.25769050E-01 0.68625630E+03</pdfrwt>
<pdfrwt beam="2">  1       -2 0.93243425E-01 0.68625630E+03</pdfrwt>
<totfact> 0.20812893E+02</totfact>
</mgrwt>
</event>
<event>
 4    1  0.5069019E-005  0.4346177E+03  0.7818608E-02  0.1032411E+00
          2   -1    0    0  501    0  0.00000000000E+00  0.00000000000E+00  0.15832139118E+04  0.15832139118E+04  0.25500000000E-02 0.  1.
         -2   -1    0    0    0  501 -0.00000000000E+00 -0.00000000000E+00 -0.29827391646E+02  0.29827391755E+02  0.25500000000E-02 0. -1.
    5000001    1    1    2    0    0  0.45876979152E+02  0.53673504725E+02  0.58612081305E+03  0.62299610738E+03  0.19900000000E+03 0.  0.
   -5000001    1    1    2    0    0 -0.45876979152E+02 -0.53673504725E+02  0.96726570714E+03  0.99004519621E+03  0.19900000000E+03 0.  0.
<mgrwt>
<rscale>  0 0.43461772E+03</rscale>
<asrwt>0</asrwt>
<pdfrwt beam="1">  1        2 0.22617344E+00 0.43461772E+03</pdfrwt>
<pdfrwt beam="2">  1       -2 0.42610556E-02 0.43461772E+03</pdfrwt>
<totfact> 0.35406145E+03</totfact>
</mgrwt>
</event>
<event>
 4    1  0.5069019E-005  0.7558739E+03  0.7818608E-02  0.9626180E-01
         -2   -1    0    0    0  501 -0.00000000000E+00  0.00000000000E+00  0.19860764964E+03  0.19860764965E+03  0.25500000000E-02 0.  1.
          2   -1    0    0  501    0  0.00000000000E+00 -0.00000000000E+00 -0.71918859522E+03  0.71918859523E+03  0.25500000000E-02 0. -1.
    5000001    1    1    2    0    0  0.25074858900E+03  0.15355519231E+03 -0.41758360435E+03  0.54811597184E+03  0.19900000000E+03 0.  0.
   -5000001    1    1    2    0    0 -0.25074858900E+03 -0.15355519231E+03 -0.10299734124E+03  0.36968027304E+03  0.19900000000E+03 0.  0.
<mgrwt>
<rscale>  0 0.75587395E+03</rscale>
<asrwt>0</asrwt>
<pdfrwt beam="1">  1        2 0.10274123E+00 0.75587395E+03</pdfrwt>
<pdfrwt beam="2">  1       -2 0.28372522E-01 0.75587395E+03</pdfrwt>
<totfact> 0.49655936E+02</totfact>
</mgrwt>
</event>
<event>
 4    1  0.5069019E-005  0.4293534E+03  0.7818608E-02  0.1034064E+00
          2   -1    0    0  501    0  0.00000000000E+00  0.00000000000E+00  0.80082888957E+02  0.80082888997E+02  0.25500000000E-02 0.  1.
         -2   -1    0    0    0  501 -0.00000000000E+00 -0.00000000000E+00 -0.57547986100E+03  0.57547986101E+03  0.25500000000E-02 0. -1.
    5000001    1    1    2    0    0 -0.79605914096E+02 -0.61428964988E+01 -0.23166622720E+03  0.31566608555E+03  0.19900000000E+03 0.  0.
   -5000001    1    1    2    0    0  0.79605914096E+02  0.61428964988E+01 -0.26373074484E+03  0.33989666446E+03  0.19900000000E+03 0.  0.
<mgrwt>
<rscale>  0 0.42935342E+03</rscale>
<asrwt>0</asrwt>
<pdfrwt beam="1">  1        2 0.11440413E-01 0.42935342E+03</pdfrwt>
<pdfrwt beam="2">  1       -2 0.82211406E-01 0.42935342E+03</pdfrwt>
<totfact> 0.73195072E+02</totfact>
</mgrwt>
</event>
<event>
 4    1  0.5069019E-005  0.8507165E+03  0.7818608E-02  0.9489376E-01
          2   -1    0    0  501    0  0.00000000000E+00  0.00000000000E+00  0.15639005519E+04  0.15639005519E+04  0.25500000000E-02 0. -1.
         -2   -1    0    0    0  501 -0.00000000000E+00 -0.00000000000E+00 -0.11569127806E+03  0.11569127809E+03  0.25500000000E-02 0.  1.
    5000001    1    1    2    0    0  0.35433375621E+03  0.10426801604E+03  0.58583944133E+03  0.72057829622E+03  0.19900000000E+03 0.  0.
   -5000001    1    1    2    0    0 -0.35433375621E+03 -0.10426801604E+03  0.86236983251E+03  0.95901353379E+03  0.19900000000E+03 0.  0.
<mgrwt>
<rscale>  0 0.85071653E+03</rscale>
<asrwt>0</asrwt>
<pdfrwt beam="1">  1        2 0.22341437E+00 0.85071653E+03</pdfrwt>
<pdfrwt beam="2">  1       -2 0.16527325E-01 0.85071653E+03</pdfrwt>
<totfact> 0.40383342E+02</totfact>
</mgrwt>
</event>
<event>
 4    1  0.5069019E-005  0.4067982E+03  0.7818608E-02  0.1041451E+00
          2   -1    0    0  501    0  0.00000000000E+00  0.00000000000E+00  0.11087980915E+04  0.11087980915E+04  0.25500000000E-02 0.  1.
         -2   -1    0    0    0  501 -0.00000000000E+00 -0.00000000000E+00 -0.37311741103E+02  0.37311741191E+02  0.25500000000E-02 0. -1.
    5000001    1    1    2    0    0 -0.28709215519E+02 -0.29615187437E+02  0.51235559914E+03  0.55119011089E+03  0.19900000000E+03 0.  0.
   -5000001    1    1    2    0    0  0.28709215519E+02  0.29615187437E+02  0.55913075131E+03  0.59491972184E+03  0.19900000000E+03 0.  0.
<mgrwt>
<rscale>  0 0.40679817E+03</rscale>
<asrwt>0</asrwt>
<pdfrwt beam="1">  1        2 0.15839973E+00 0.40679817E+03</pdfrwt>
<pdfrwt beam="2">  1       -2 0.53302485E-02 0.40679817E+03</pdfrwt>
<totfact> 0.44959069E+03</totfact>
</mgrwt>
</event>
<event>
 4    1  0.5069019E-005  0.6339858E+03  0.7818608E-02  0.9837301E-01
         -2   -1    0    0    0  501 -0.00000000000E+00  0.00000000000E+00  0.55441160098E+03  0.55441160099E+03  0.25500000000E-02 0. -1.
          2   -1    0    0  501    0  0.00000000000E+00 -0.00000000000E+00 -0.18124532015E+03  0.18124532017E+03  0.25500000000E-02 0.  1.
    5000001    1    1    2    0    0  0.22311528954E+03 -0.99804515800E+02  0.22579833422E+03  0.38772059725E+03  0.19900000000E+03 0.  0.
   -5000001    1    1    2    0    0 -0.22311528954E+03  0.99804515800E+02  0.14736794662E+03  0.34793632390E+03  0.19900000000E+03 0.  0.
<mgrwt>
<rscale>  0 0.63398583E+03</rscale>
<asrwt>0</asrwt>
<pdfrwt beam="1">  1        2 0.25892188E-01 0.63398583E+03</pdfrwt>
<pdfrwt beam="2">  1       -2 0.79201660E-01 0.63398583E+03</pdfrwt>
<totfact> 0.30061964E+02</totfact>
</mgrwt>
</event>
<event>
 4    1  0.5069019E-005  0.1240394E+04  0.7818608E-02  0.9078216E-01
          2   -1    0    0  501    0  0.00000000000E+00  0.00000000000E+00  0.14383085717E+04  0.14383085717E+04  0.25500000000E-02 0.  1.
         -2   -1    0    0    0  501 -0.00000000000E+00 -0.00000000000E+00 -0.26742825617E+03  0.26742825619E+03  0.25500000000E-02 0. -1.
    5000001    1    1    2    0    0  0.17954735261E+03  0.45484222625E+03  0.10329997506E+04  0.11600897324E+04  0.19900000000E+03 0.  0.
   -5000001    1    1    2    0    0 -0.17954735261E+03 -0.45484222625E+03  0.13788056497E+03  0.54564709548E+03  0.19900000000E+03 0.  0.
<mgrwt>
<rscale>  0 0.12403941E+04</rscale>
<asrwt>0</asrwt>
<pdfrwt beam="1">  1        2 0.20547265E+00 0.12403941E+04</pdfrwt>
<pdfrwt beam="2">  1       -2 0.38204037E-01 0.12403941E+04</pdfrwt>
<totfact> 0.10037654E+02</totfact>
</mgrwt>
</event>
<event>
 4    1  0.5069019E-005  0.7830745E+03  0.7818608E-02  0.9584844E-01
          2   -1    0    0  501    0  0.00000000000E+00  0.00000000000E+00  0.10726351889E+04  0.10726351889E+04  0.25500000000E-02 0.  1.
         -2   -1    0    0    0  501 -0.00000000000E+00 -0.00000000000E+00 -0.14292037604E+03  0.14292037607E+03  0.25500000000E-02 0. -1.
    5000001    1    1    2    0    0  0.22228627680E+03  0.24702700569E+03  0.55358102762E+03  0.67563783533E+03  0.19900000000E+03 0.  0.
   -5000001    1    1    2    0    0 -0.22228627680E+03 -0.24702700569E+03  0.37613378528E+03  0.53991772968E+03  0.19900000000E+03 0.  0.
<mgrwt>
<rscale>  0 0.78307452E+03</rscale>
<asrwt>0</asrwt>
<pdfrwt beam="1">  1        2 0.15323359E+00 0.78307452E+03</pdfrwt>
<pdfrwt beam="2">  1       -2 0.20417198E-01 0.78307452E+03</pdfrwt>
<totfact> 0.52368833E+02</totfact>
</mgrwt>
</event>
<event>
 4    1  0.5069019E-005  0.4570147E+03  0.7818608E-02  0.1025651E+00
         -2   -1    0    0    0  501 -0.00000000000E+00  0.00000000000E+00  0.19835241789E+02  0.19835241953E+02  0.25500000000E-02 0. -1.
          2   -1    0    0  501    0  0.00000000000E+00 -0.00000000000E+00 -0.26324667431E+04  0.26324667431E+04  0.25500000000E-02 0.  1.
    5000001    1    1    2    0    0  0.10974621619E+03  0.22175436473E+02 -0.12548528636E+04  0.12754578359E+04  0.19900000000E+03 0.  0.
   -5000001    1    1    2    0    0 -0.10974621619E+03 -0.22175436473E+02 -0.13577786377E+04  0.13768441492E+04  0.19900000000E+03 0.  0.
<mgrwt>
<rscale>  0 0.45701472E+03</rscale>
<asrwt>0</asrwt>
<pdfrwt beam="1">  1        2 0.37606645E+00 0.45701472E+03</pdfrwt>
<pdfrwt beam="2">  1       -2 0.28336077E-02 0.45701472E+03</pdfrwt>
<totfact> 0.19535743E+03</totfact>
</mgrwt>
</event>
<event>
 4    1  0.5069019E-005  0.1420597E+04  0.7818608E-02  0.8939043E-01
          2   -1    0    0  501    0  0.00000000000E+00  0.00000000000E+00  0.36990829884E+04  0.36990829884E+04  0.25500000000E-02 0.  1.
         -2   -1    0    0    0  501 -0.00000000000E+00 -0.00000000000E+00 -0.13639166467E+03  0.13639166470E+03  0.25500000000E-02 0. -1.
    5000001    1    1    2    0    0 -0.56742278925E+03  0.11435425367E+03  0.27543510503E+04  0.28215414626E+04  0.19900000000E+03 0.  0.
   -5000001    1    1    2    0    0  0.56742278925E+03 -0.11435425367E+03  0.80834027348E+03  0.10139331905E+04  0.19900000000E+03 0.  0.
<mgrwt>
<rscale>  0 0.14205972E+04</rscale>
<asrwt>0</asrwt>
<pdfrwt beam="1">  1        2 0.52844046E+00 0.14205972E+04</pdfrwt>
<pdfrwt beam="2">  1       -2 0.19484522E-01 0.14205972E+04</pdfrwt>
<totfact> 0.19953455E+01</totfact>
</mgrwt>
</event>
<event>
 4    1  0.5069019E-005  0.5628853E+03  0.7818608E-02  0.9985547E-01
          2   -1    0    0  501    0  0.00000000000E+00  0.00000000000E+00  0.28892967550E+04  0.28892967550E+04  0.25500000000E-02 0.  1.
         -2   -1    0    0    0  501 -0.00000000000E+00 -0.00000000000E+00 -0.27414964857E+02  0.27414964975E+02  0.25500000000E-02 0. -1.
    5000001    1    1    2    0    0  0.17449805935E+03  0.22585451882E+02  0.19128486490E+04  0.19312044504E+04  0.19900000000E+03 0.  0.
   -5000001    1    1    2    0    0 -0.17449805935E+03 -0.22585451882E+02  0.94903314113E+03  0.98550726954E+03  0.19900000000E+03 0.  0.
<mgrwt>
<rscale>  0 0.56288531E+03</rscale>
<asrwt>0</asrwt>
<pdfrwt beam="1">  1        2 0.41275630E+00 0.56288531E+03</pdfrwt>
<pdfrwt beam="2">  1       -2 0.39164272E-02 0.56288531E+03</pdfrwt>
<totfact> 0.86872983E+02</totfact>
</mgrwt>
</event>
<event>
 4    1  0.5069019E-005  0.6204075E+03  0.7818608E-02  0.9863949E-01
          2   -1    0    0  501    0  0.00000000000E+00  0.00000000000E+00  0.48149245902E+03  0.48149245902E+03  0.25500000000E-02 0.  1.
         -2   -1    0    0    0  501 -0.00000000000E+00 -0.00000000000E+00 -0.19985018022E+03  0.19985018024E+03  0.25500000000E-02 0. -1.
    5000001    1    1    2    0    0  0.13861608834E+03 -0.18687829346E+03  0.86048369274E+02  0.31803024757E+03  0.19900000000E+03 0.  0.
   -5000001    1    1    2    0    0 -0.13861608834E+03  0.18687829346E+03  0.19559390952E+03  0.36331239169E+03  0.19900000000E+03 0.  0.
<mgrwt>
<rscale>  0 0.62040746E+03</rscale>
<asrwt>0</asrwt>
<pdfrwt beam="1">  1        2 0.68784637E-01 0.62040746E+03</pdfrwt>
<pdfrwt beam="2">  1       -2 0.28550026E-01 0.62040746E+03</pdfrwt>
<totfact> 0.79088670E+02</totfact>
</mgrwt>
</event>
<event>
 4    1  0.5069019E-005  0.6937527E+03  0.7818608E-02  0.9727976E-01
          2   -1    0    0  501    0  0.00000000000E+00  0.00000000000E+00  0.14382966322E+04  0.14382966322E+04  0.25500000000E-02 0.  1.
         -2   -1    0    0    0  501 -0.00000000000E+00 -0.00000000000E+00 -0.83656724744E+02  0.83656724783E+02  0.25500000000E-02 0. -1.
    5000001    1    1    2    0    0 -0.14991417547E+03 -0.12701823177E+03  0.11275261318E+04  0.11616901778E+04  0.19900000000E+03 0.  0.
   -5000001    1    1    2    0    0  0.14991417547E+03  0.12701823177E+03  0.22711377563E+03  0.36026317921E+03  0.19900000000E+03 0.  0.
<mgrwt>
<rscale>  0 0.69375265E+03</rscale>
<asrwt>0</asrwt>
<pdfrwt beam="1">  1        2 0.20547095E+00 0.69375265E+03</pdfrwt>
<pdfrwt beam="2">  1       -2 0.11950961E-01 0.69375265E+03</pdfrwt>
<totfact> 0.81697675E+02</totfact>
</mgrwt>
</event>
<event>
 4    1  0.5069019E-005  0.5898051E+03  0.7818608E-02  0.9926786E-01
         -2   -1    0    0    0  501 -0.00000000000E+00  0.00000000000E+00  0.14109358913E+03  0.14109358915E+03  0.25500000000E-02 0. -1.
          2   -1    0    0  501    0  0.00000000000E+00 -0.00000000000E+00 -0.61638175646E+03  0.61638175647E+03  0.25500000000E-02 0.  1.
    5000001    1    1    2    0    0  0.65802077059E+02  0.20743442390E+03 -0.24117544541E+03  0.38095347358E+03  0.19900000000E+03 0.  0.
   -5000001    1    1    2    0    0 -0.65802077059E+02 -0.20743442390E+03 -0.23411272192E+03  0.37652187204E+03  0.19900000000E+03 0.  0.
<mgrwt>
<rscale>  0 0.58980510E+03</rscale>
<asrwt>0</asrwt>
<pdfrwt beam="1">  1        2 0.88054535E-01 0.58980510E+03</pdfrwt>
<pdfrwt beam="2">  1       -2 0.20156227E-01 0.58980510E+03</pdfrwt>
<totfact> 0.11076505E+03</totfact>
</mgrwt>
</event>
<event>
 4    1  0.5069019E-005  0.6492449E+03  0.7818608E-02  0.9808197E-01
          2   -1    0    0  501    0  0.00000000000E+00  0.00000000000E+00  0.87402499484E+03  0.87402499484E+03  0.25500000000E-02 0.  1.
         -2   -1    0    0    0  501 -0.00000000000E+00 -0.00000000000E+00 -0.12056831515E+03  0.12056831518E+03  0.25500000000E-02 0. -1.
    5000001    1    1    2    0    0  0.21455792103E+03 -0.13837180822E+03  0.33930228287E+03  0.46894445081E+03  0.19900000000E+03 0.  0.
   -5000001    1    1    2    0    0 -0.21455792103E+03  0.13837180822E+03  0.41415439681E+03  0.52564885921E+03  0.19900000000E+03 0.  0.
<mgrwt>
<rscale>  0 0.64924486E+03</rscale>
<asrwt>0</asrwt>
<pdfrwt beam="1">  1        2 0.12486071E+00 0.64924486E+03</pdfrwt>
<pdfrwt beam="2">  1       -2 0.17224045E-01 0.64924486E+03</pdfrwt>
<totfact> 0.93925809E+02</totfact>
</mgrwt>
</event>
<event>
 4    1  0.5069019E-005  0.4822275E+03  0.7818608E-02  0.1018525E+00
          2   -1    0    0  501    0  0.00000000000E+00  0.00000000000E+00  0.79230689044E+03  0.79230689044E+03  0.25500000000E-02 0.  1.
         -2   -1    0    0    0  501 -0.00000000000E+00 -0.00000000000E+00 -0.73375420169E+02  0.73375420213E+02  0.25500000000E-02 0. -1.
    5000001    1    1    2    0    0 -0.50358916089E+02  0.11135771783E+03  0.25178089524E+03  0.34341109615E+03  0.19900000000E+03 0.  0.
   -5000001    1    1    2    0    0  0.50358916089E+02 -0.11135771783E+03  0.46715057504E+03  0.52227121451E+03  0.19900000000E+03 0.  0.
<mgrwt>
<rscale>  0 0.48222754E+03</rscale>
<asrwt>0</asrwt>
<pdfrwt beam="1">  1        2 0.11318670E+00 0.48222754E+03</pdfrwt>
<pdfrwt beam="2">  1       -2 0.10482203E-01 0.48222754E+03</pdfrwt>
<totfact> 0.24398210E+03</totfact>
</mgrwt>
</event>
<event>
 4    1  0.5069019E-005  0.5442327E+03  0.7818608E-02  0.1002838E+00
         -2   -1    0    0    0  501 -0.00000000000E+00  0.00000000000E+00  0.74374654192E+02  0.74374654236E+02  0.25500000000E-02 0. -1.
          2   -1    0    0  501    0  0.00000000000E+00 -0.00000000000E+00 -0.99559858630E+03  0.99559858630E+03  0.25500000000E-02 0.  1.
    5000001    1    1    2    0    0 -0.17529824292E+03 -0.42753036104E+02 -0.54606053717E+03  0.60855600097E+03  0.19900000000E+03 0.  0.
   -5000001    1    1    2    0    0  0.17529824292E+03  0.42753036104E+02 -0.37516339493E+03  0.46141723956E+03  0.19900000000E+03 0.  0.
<mgrwt>
<rscale>  0 0.54423267E+03</rscale>
<asrwt>0</asrwt>
<pdfrwt beam="1">  1        2 0.14222836E+00 0.54423267E+03</pdfrwt>
<pdfrwt beam="2">  1       -2 0.10624951E-01 0.54423267E+03</pdfrwt>
<totfact> 0.17634581E+03</totfact>
</mgrwt>
</event>
<event>
 4    1  0.5069019E-005  0.6786463E+03  0.7818608E-02  0.9754463E-01
          2   -1    0    0  501    0  0.00000000000E+00  0.00000000000E+00  0.12597984869E+04  0.12597984869E+04  0.25500000000E-02 0.  1.
         -2   -1    0    0    0  501 -0.00000000000E+00 -0.00000000000E+00 -0.91395737522E+02  0.91395737558E+02  0.25500000000E-02 0. -1.
    5000001    1    1    2    0    0 -0.10670045556E+02 -0.23714865604E+03  0.85998285577E+03  0.91407048259E+03  0.19900000000E+03 0.  0.
   -5000001    1    1    2    0    0  0.10670045556E+02  0.23714865604E+03  0.30841989362E+03  0.43712374188E+03  0.19900000000E+03 0.  0.
<mgrwt>
<rscale>  0 0.67864633E+03</rscale>
<asrwt>0</asrwt>
<pdfrwt beam="1">  1        2 0.17997120E+00 0.67864633E+03</pdfrwt>
<pdfrwt beam="2">  1       -2 0.13056535E-01 0.67864633E+03</pdfrwt>
<totfact> 0.88151131E+02</totfact>
</mgrwt>
</event>
<event>
 4    1  0.5069019E-005  0.9720352E+03  0.7818608E-02  0.9339759E-01
          2   -1    0    0  501    0  0.00000000000E+00  0.00000000000E+00  0.60895218827E+03  0.60895218828E+03  0.25500000000E-02 0.  1.
         -2   -1    0    0    0  501 -0.00000000000E+00 -0.00000000000E+00 -0.38790089100E+03  0.38790089101E+03  0.25500000000E-02 0. -1.
    5000001    1    1    2    0    0  0.31164346403E+03 -0.28437171499E+03  0.25047665968E+03  0.52946055377E+03  0.19900000000E+03 0.  0.
   -5000001    1    1    2    0    0 -0.31164346403E+03  0.28437171499E+03 -0.29425362411E+02  0.46739252552E+03  0.19900000000E+03 0.  0.
<mgrwt>
<rscale>  0 0.97203518E+03</rscale>
<asrwt>0</asrwt>
<pdfrwt beam="1">  1        2 0.86993169E-01 0.97203518E+03</pdfrwt>
<pdfrwt beam="2">  1       -2 0.55414414E-01 0.97203518E+03</pdfrwt>
<totfact> 0.16317714E+02</totfact>
</mgrwt>
</event>
<event>
 4    1  0.5069019E-005  0.5965624E+03  0.7818608E-02  0.9912564E-01
         -2   -1    0    0    0  501 -0.00000000000E+00  0.00000000000E+00  0.62131635662E+03  0.62131635662E+03  0.25500000000E-02 0. -1.
          2   -1    0    0  501    0  0.00000000000E+00 -0.00000000000E+00 -0.14319868219E+03  0.14319868222E+03  0.25500000000E-02 0.  1.
    5000001    1    1    2    0    0  0.15439160041E+03 -0.15916033259E+03  0.25726860818E+03  0.39364567126E+03  0.19900000000E+03 0.  0.
   -5000001    1    1    2    0    0 -0.15439160041E+03  0.15916033259E+03  0.22084906624E+03  0.37086936758E+03  0.19900000000E+03 0.  0.
<mgrwt>
<rscale>  0 0.59656243E+03</rscale>
<asrwt>0</asrwt>
<pdfrwt beam="1">  1        2 0.20456955E-01 0.59656243E+03</pdfrwt>
<pdfrwt beam="2">  1       -2 0.88759479E-01 0.59656243E+03</pdfrwt>
<totfact> 0.30520477E+02</totfact>
</mgrwt>
</event>
<event>
 4    1  0.5069019E-005  0.1299619E+04  0.7818608E-02  0.9029867E-01
         -2   -1    0    0    0  501 -0.00000000000E+00  0.00000000000E+00  0.32451412635E+03  0.32451412636E+03  0.25500000000E-02 0.  1.
          2   -1    0    0  501    0  0.00000000000E+00 -0.00000000000E+00 -0.13011831201E+04  0.13011831201E+04  0.25500000000E-02 0. -1.
    5000001    1    1    2    0    0  0.30750946771E+03 -0.52460600466E+03 -0.63028730975E+03  0.89812951499E+03  0.19900000000E+03 0.  0.
   -5000001    1    1    2    0    0 -0.30750946771E+03  0.52460600466E+03 -0.34638168397E+03  0.72756773145E+03  0.19900000000E+03 0.  0.
<mgrwt>
<rscale>  0 0.12996189E+04</rscale>
<asrwt>0</asrwt>
<pdfrwt beam="1">  1        2 0.18588330E+00 0.12996189E+04</pdfrwt>
<pdfrwt beam="2">  1       -2 0.46359162E-01 0.12996189E+04</pdfrwt>
<totfact> 0.81069181E+01</totfact>
</mgrwt>
</event>
<event>
 4    1  0.5069019E-005  0.5314385E+03  0.7818608E-02  0.1005884E+00
          2   -1    0    0  501    0  0.00000000000E+00  0.00000000000E+00  0.48262761376E+03  0.48262761376E+03  0.25500000000E-02 0.  1.
         -2   -1    0    0    0  501 -0.00000000000E+00 -0.00000000000E+00 -0.14629647730E+03  0.14629647732E+03  0.25500000000E-02 0. -1.
    5000001    1    1    2    0    0  0.12250257342E+03 -0.12469369607E+03  0.14305211024E+03  0.30103206570E+03  0.19900000000E+03 0.  0.
   -5000001    1    1    2    0    0 -0.12250257342E+03  0.12469369607E+03  0.19327902622E+03  0.32789202538E+03  0.19900000000E+03 0.  0.
<mgrwt>
<rscale>  0 0.53143850E+03</rscale>
<asrwt>0</asrwt>
<pdfrwt beam="1">  1        2 0.68946803E-01 0.53143850E+03</pdfrwt>
<pdfrwt beam="2">  1       -2 0.20899496E-01 0.53143850E+03</pdfrwt>
<totfact> 0.13791063E+03</totfact>
</mgrwt>
</event>
<event>
 4    1  0.5069019E-005  0.9329915E+03  0.7818608E-02  0.9385255E-01
          2   -1    0    0  501    0  0.00000000000E+00  0.00000000000E+00  0.14581160463E+04  0.14581160463E+04  0.25500000000E-02 0.  1.
         -2   -1    0    0    0  501 -0.00000000000E+00 -0.00000000000E+00 -0.14924619809E+03  0.14924619811E+03  0.25500000000E-02 0. -1.
    5000001    1    1    2    0    0  0.27152118332E+03  0.20242892005E+03  0.10879388254E+04  0.11566819392E+04  0.19900000000E+03 0.  0.
   -5000001    1    1    2    0    0 -0.27152118332E+03 -0.20242892005E+03  0.22093102280E+03  0.45068030520E+03  0.19900000000E+03 0.  0.
<mgrwt>
<rscale>  0 0.93299148E+03</rscale>
<asrwt>0</asrwt>
<pdfrwt beam="1">  1        2 0.20830229E+00 0.93299148E+03</pdfrwt>
<pdfrwt beam="2">  1       -2 0.21320886E-01 0.93299148E+03</pdfrwt>
<totfact> 0.29349754E+02</totfact>
</mgrwt>
</event>
<event>
 4    1  0.5069019E-005  0.7801592E+03  0.7818608E-02  0.9589188E-01
         -2   -1    0    0    0  501 -0.00000000000E+00  0.00000000000E+00  0.81419346392E+02  0.81419346432E+02  0.25500000000E-02 0. -1.
          2   -1    0    0  501    0  0.00000000000E+00 -0.00000000000E+00 -0.18688689148E+04  0.18688689148E+04  0.25500000000E-02 0.  1.
    5000001    1    1    2    0    0  0.14063278784E+03 -0.28823009370E+03 -0.64742940867E+03  0.74941310847E+03  0.19900000000E+03 0.  0.
   -5000001    1    1    2    0    0 -0.14063278784E+03  0.28823009370E+03 -0.11400201598E+04  0.12008751528E+04  0.19900000000E+03 0.  0.
<mgrwt>
<rscale>  0 0.78015918E+03</rscale>
<asrwt>0</asrwt>
<pdfrwt beam="1">  1        2 0.26698125E+00 0.78015918E+03</pdfrwt>
<pdfrwt beam="2">  1       -2 0.11631336E-01 0.78015918E+03</pdfrwt>
<totfact> 0.50996858E+02</totfact>
</mgrwt>
</event>
<event>
 4    1  0.5069019E-005  0.5326347E+03  0.7818608E-02  0.1005595E+00
          2   -1    0    0  501    0  0.00000000000E+00  0.00000000000E+00  0.40786610330E+03  0.40786610331E+03  0.25500000000E-02 0.  1.
         -2   -1    0    0    0  501 -0.00000000000E+00 -0.00000000000E+00 -0.17389269246E+03  0.17389269247E+03  0.25500000000E-02 0. -1.
    5000001    1    1    2    0    0 -0.14763719383E+03 -0.54808042954E+02  0.20520247830E+03  0.32635826889E+03  0.19900000000E+03 0.  0.
   -5000001    1    1    2    0    0  0.14763719383E+03  0.54808042954E+02  0.28770932547E+02  0.25540052689E+03  0.19900000000E+03 0.  0.
<mgrwt>
<rscale>  0 0.53263471E+03</rscale>
<asrwt>0</asrwt>
<pdfrwt beam="1">  1        2 0.58266586E-01 0.53263471E+03</pdfrwt>
<pdfrwt beam="2">  1       -2 0.24841813E-01 0.53263471E+03</pdfrwt>
<totfact> 0.12262626E+03</totfact>
</mgrwt>
</event>
<event>
 4    1  0.5069019E-005  0.5169216E+03  0.7818608E-02  0.1009454E+00
         -2   -1    0    0    0  501 -0.00000000000E+00  0.00000000000E+00  0.16938518647E+02  0.16938518839E+02  0.25500000000E-02 0. -1.
          2   -1    0    0  501    0  0.00000000000E+00 -0.00000000000E+00 -0.39437921109E+04  0.39437921109E+04  0.25500000000E-02 0.  1.
    5000001    1    1    2    0    0 -0.10855375438E+02  0.12783810152E+03 -0.27575070572E+04  0.27676536254E+04  0.19900000000E+03 0.  0.
   -5000001    1    1    2    0    0  0.10855375438E+02 -0.12783810152E+03 -0.11693465350E+04  0.11930770044E+04  0.19900000000E+03 0.  0.
<mgrwt>
<rscale>  0 0.51692164E+03</rscale>
<asrwt>0</asrwt>
<pdfrwt beam="1">  1        2 0.56339829E+00 0.51692164E+03</pdfrwt>
<pdfrwt beam="2">  1       -2 0.24197909E-02 0.51692164E+03</pdfrwt>
<totfact> 0.43692676E+02</totfact>
</mgrwt>
</event>
<event>
 4    1  0.5069019E-005  0.6102215E+03  0.7818608E-02  0.9884424E-01
         -2   -1    0    0    0  501 -0.00000000000E+00  0.00000000000E+00  0.30319992508E+02  0.30319992616E+02  0.25500000000E-02 0. -1.
          2   -1    0    0  501    0  0.00000000000E+00 -0.00000000000E+00 -0.30703358728E+04  0.30703358728E+04  0.25500000000E-02 0.  1.
    5000001    1    1    2    0    0  0.21432322962E+02  0.22272621338E+03 -0.12226276124E+04  0.12587635160E+04  0.19900000000E+03 0.  0.
   -5000001    1    1    2    0    0 -0.21432322962E+02 -0.22272621338E+03 -0.18173882678E+04  0.18418923494E+04  0.19900000000E+03 0.  0.
<mgrwt>
<rscale>  0 0.61022147E+03</rscale>
<asrwt>0</asrwt>
<pdfrwt beam="1">  1        2 0.43861921E+00 0.61022147E+03</pdfrwt>
<pdfrwt beam="2">  1       -2 0.43314295E-02 0.61022147E+03</pdfrwt>
<totfact> 0.59094263E+02</totfact>
</mgrwt>
</event>
<event>
 4    1  0.5069019E-005  0.9498711E+03  0.7818608E-02  0.9365301E-01
         -2   -1    0    0    0  501 -0.00000000000E+00  0.00000000000E+00  0.88452991755E+02  0.88452991792E+02  0.25500000000E-02 0. -1.
          2   -1    0    0  501    0  0.00000000000E+00 -0.00000000000E+00 -0.25500977456E+04  0.25500977456E+04  0.25500000000E-02 0.  1.
    5000001    1    1    2    0    0 -0.31562026014E+03 -0.29092948127E+03 -0.13455781900E+04  0.14263371891E+04  0.19900000000E+03 0.  0.
   -5000001    1    1    2    0    0  0.31562026014E+03  0.29092948127E+03 -0.11160665639E+04  0.12122135483E+04  0.19900000000E+03 0.  0.
<mgrwt>
<rscale>  0 0.94987110E+03</rscale>
<asrwt>0</asrwt>
<pdfrwt beam="1">  1        2 0.36429963E+00 0.94987110E+03</pdfrwt>
<pdfrwt beam="2">  1       -2 0.12636143E-01 0.94987110E+03</pdfrwt>
<totfact> 0.19682001E+02</totfact>
</mgrwt>
</event>
<event>
 4    1  0.5069019E-005  0.2004769E+04  0.7818608E-02  0.8604394E-01
         -2   -1    0    0    0  501 -0.00000000000E+00  0.00000000000E+00  0.46981051989E+03  0.46981051990E+03  0.25500000000E-02 0. -1.
          2   -1    0    0  501    0  0.00000000000E+00 -0.00000000000E+00 -0.21386812000E+04  0.21386812000E+04  0.25500000000E-02 0.  1.
    5000001    1    1    2    0    0  0.72028299208E+03 -0.41587992769E+03 -0.15147854312E+04  0.17395228097E+04  0.19900000000E+03 0.  0.
   -5000001    1    1    2    0    0 -0.72028299208E+03  0.41587992769E+03 -0.15408524890E+03  0.86896891018E+03  0.19900000000E+03 0.  0.
<mgrwt>
<rscale>  0 0.20047692E+04</rscale>
<asrwt>0</asrwt>
<pdfrwt beam="1">  1        2 0.30552588E+00 0.20047692E+04</pdfrwt>
<pdfrwt beam="2">  1       -2 0.67115790E-01 0.20047692E+04</pdfrwt>
<totfact> 0.12919777E+01</totfact>
</mgrwt>
</event>
<event>
 4    1  0.5069019E-005  0.6394382E+03  0.7818608E-02  0.9826802E-01
         -2   -1    0    0    0  501 -0.00000000000E+00  0.00000000000E+00  0.51883264632E+03  0.51883264633E+03  0.25500000000E-02 0. -1.
          2   -1    0    0  501    0  0.00000000000E+00 -0.00000000000E+00 -0.19701980018E+03  0.19701980019E+03  0.25500000000E-02 0.  1.
    5000001    1    1    2    0    0  0.16871506691E+03  0.16682979243E+03  0.71891211146E+02  0.31790926329E+03  0.19900000000E+03 0.  0.
   -5000001    1    1    2    0    0 -0.16871506691E+03 -0.16682979243E+03  0.24992163500E+03  0.39794318323E+03  0.19900000000E+03 0.  0.
<mgrwt>
<rscale>  0 0.63943820E+03</rscale>
<asrwt>0</asrwt>
<pdfrwt beam="1">  1        2 0.28145686E-01 0.63943820E+03</pdfrwt>
<pdfrwt beam="2">  1       -2 0.74118948E-01 0.63943820E+03</pdfrwt>
<totfact> 0.31673644E+02</totfact>
</mgrwt>
</event>
<event>
 4    1  0.5069019E-005  0.5350128E+03  0.7818608E-02  0.1005024E+00
         -2   -1    0    0    0  501 -0.00000000000E+00  0.00000000000E+00  0.19295477656E+02  0.19295477825E+02  0.25500000000E-02 0. -1.
          2   -1    0    0  501    0  0.00000000000E+00 -0.00000000000E+00 -0.37086236031E+04  0.37086236031E+04  0.25500000000E-02 0.  1.
    5000001    1    1    2    0    0 -0.83694685197E+02 -0.15742050196E+03 -0.19362196585E+04  0.19545673641E+04  0.19900000000E+03 0.  0.
   -5000001    1    1    2    0    0  0.83694685197E+02  0.15742050196E+03 -0.17531084670E+04  0.17733517169E+04  0.19900000000E+03 0.  0.
<mgrwt>
<rscale>  0 0.53501276E+03</rscale>
<asrwt>0</asrwt>
<pdfrwt beam="1">  1        2 0.52980292E+00 0.53501276E+03</pdfrwt>
<pdfrwt beam="2">  1       -2 0.27564992E-02 0.53501276E+03</pdfrwt>
<totfact> 0.50536746E+02</totfact>
</mgrwt>
</event>
<event>
 4    1  0.5069019E-005  0.5278949E+03  0.7818608E-02  0.1006744E+00
         -2   -1    0    0    0  501 -0.00000000000E+00  0.00000000000E+00  0.17879498752E+03  0.17879498754E+03  0.25500000000E-02 0. -1.
          2   -1    0    0  501    0  0.00000000000E+00 -0.00000000000E+00 -0.38965435645E+03  0.38965435646E+03  0.25500000000E-02 0.  1.
    5000001    1    1    2    0    0 -0.16685250099E+03 -0.47111294959E+02 -0.10238118998E+03  0.28309387005E+03  0.19900000000E+03 0.  0.
   -5000001    1    1    2    0    0  0.16685250099E+03  0.47111294959E+02 -0.10847817895E+03  0.28535547394E+03  0.19900000000E+03 0.  0.
<mgrwt>
<rscale>  0 0.52789486E+03</rscale>
<asrwt>0</asrwt>
<pdfrwt beam="1">  1        2 0.55664908E-01 0.52789486E+03</pdfrwt>
<pdfrwt beam="2">  1       -2 0.25542141E-01 0.52789486E+03</pdfrwt>
<totfact> 0.12271818E+03</totfact>
</mgrwt>
</event>
<event>
 4    1  0.5069019E-005  0.9185362E+03  0.7818608E-02  0.9402702E-01
         -2   -1    0    0    0  501 -0.00000000000E+00  0.00000000000E+00  0.68230285924E+03  0.68230285925E+03  0.25500000000E-02 0. -1.
          2   -1    0    0  501    0  0.00000000000E+00 -0.00000000000E+00 -0.30914014639E+03  0.30914014640E+03  0.25500000000E-02 0.  1.
    5000001    1    1    2    0    0 -0.39880283031E+03 -0.86488018747E+02  0.11178206206E+03  0.46756828833E+03  0.19900000000E+03 0.  0.
   -5000001    1    1    2    0    0  0.39880283031E+03  0.86488018747E+02  0.26138065079E+03  0.52387471733E+03  0.19900000000E+03 0.  0.
<mgrwt>
<rscale>  0 0.91853624E+03</rscale>
<asrwt>0</asrwt>
<pdfrwt beam="1">  1        2 0.44162879E-01 0.91853624E+03</pdfrwt>
<pdfrwt beam="2">  1       -2 0.97471836E-01 0.91853624E+03</pdfrwt>
<totfact> 0.10149313E+02</totfact>
</mgrwt>
</event>
<event>
 4    1  0.5069019E-005  0.5224471E+03  0.7818608E-02  0.1008080E+00
          2   -1    0    0  501    0  0.00000000000E+00  0.00000000000E+00  0.42817659122E+04  0.42817659122E+04  0.25500000000E-02 0.  1.
         -2   -1    0    0    0  501 -0.00000000000E+00 -0.00000000000E+00 -0.15936824860E+02  0.15936825064E+02  0.25500000000E-02 0. -1.
    5000001    1    1    2    0    0  0.10653798395E+03 -0.12987374526E+03  0.23013432531E+04  0.23160309368E+04  0.19900000000E+03 0.  0.
   -5000001    1    1    2    0    0 -0.10653798395E+03  0.12987374526E+03  0.19644858342E+04  0.19816718004E+04  0.19900000000E+03 0.  0.
<mgrwt>
<rscale>  0 0.52244714E+03</rscale>
<asrwt>0</asrwt>
<pdfrwt beam="1">  1        2 0.61168023E+00 0.52244714E+03</pdfrwt>
<pdfrwt beam="2">  1       -2 0.22766916E-02 0.52244714E+03</pdfrwt>
<totfact> 0.28062401E+02</totfact>
</mgrwt>
</event>
<event>
 4    1  0.5069019E-005  0.4713649E+03  0.7818608E-02  0.1021536E+00
          2   -1    0    0  501    0  0.00000000000E+00  0.00000000000E+00  0.39327607241E+02  0.39327607324E+02  0.25500000000E-02 0.  1.
         -2   -1    0    0    0  501 -0.00000000000E+00 -0.00000000000E+00 -0.14123977434E+04  0.14123977434E+04  0.25500000000E-02 0. -1.
    5000001    1    1    2    0    0 -0.29765610174E+02  0.94765218748E+02 -0.44641104749E+03  0.49874869579E+03  0.19900000000E+03 0.  0.
   -5000001    1    1    2    0    0  0.29765610174E+02 -0.94765218748E+02 -0.92665908863E+03  0.95297665489E+03  0.19900000000E+03 0.  0.
<mgrwt>
<rscale>  0 0.47136493E+03</rscale>
<asrwt>0</asrwt>
<pdfrwt beam="1">  1        2 0.56182305E-02 0.47136493E+03</pdfrwt>
<pdfrwt beam="2">  1       -2 0.20177107E+00 0.47136493E+03</pdfrwt>
<totfact> 0.18839590E+02</totfact>
</mgrwt>
</event>
<event>
 4    1  0.5069019E-005  0.8769180E+03  0.7818608E-02  0.9454904E-01
         -2   -1    0    0    0  501 -0.00000000000E+00  0.00000000000E+00  0.16341224052E+03  0.16341224054E+03  0.25500000000E-02 0. -1.
          2   -1    0    0  501    0  0.00000000000E+00 -0.00000000000E+00 -0.11764497077E+04  0.11764497077E+04  0.25500000000E-02 0.  1.
    5000001    1    1    2    0    0 -0.35464641747E+03 -0.15550217647E+03 -0.58576875072E+03  0.72985001036E+03  0.19900000000E+03 0.  0.
   -5000001    1    1    2    0    0  0.35464641747E+03  0.15550217647E+03 -0.42726871650E+03  0.61001193792E+03  0.19900000000E+03 0.  0.
<mgrwt>
<rscale>  0 0.87691797E+03</rscale>
<asrwt>0</asrwt>
<pdfrwt beam="1">  1        2 0.16806424E+00 0.87691797E+03</pdfrwt>
<pdfrwt beam="2">  1       -2 0.23344606E-01 0.87691797E+03</pdfrwt>
<totfact> 0.35784728E+02</totfact>
</mgrwt>
</event>
<event>
 4    1  0.5069019E-005  0.6603260E+03  0.7818608E-02  0.9787594E-01
          2   -1    0    0  501    0  0.00000000000E+00  0.00000000000E+00  0.16556430120E+03  0.16556430122E+03  0.25500000000E-02 0.  1.
         -2   -1    0    0    0  501 -0.00000000000E+00 -0.00000000000E+00 -0.65840036840E+03  0.65840036840E+03  0.25500000000E-02 0. -1.
    5000001    1    1    2    0    0 -0.15306268252E+03  0.16735664262E+03 -0.41369119302E+03  0.51203303975E+03  0.19900000000E+03 0.  0.
   -5000001    1    1    2    0    0  0.15306268252E+03 -0.16735664262E+03 -0.79144874174E+02  0.31193162987E+03  0.19900000000E+03 0.  0.
<mgrwt>
<rscale>  0 0.66032597E+03</rscale>
<asrwt>0</asrwt>
<pdfrwt beam="1">  1        2 0.23652043E-01 0.66032597E+03</pdfrwt>
<pdfrwt beam="2">  1       -2 0.94057194E-01 0.66032597E+03</pdfrwt>
<totfact> 0.22524224E+02</totfact>
</mgrwt>
</event>
<event>
 4    1  0.5069019E-005  0.5514986E+03  0.7818608E-02  0.1001148E+00
         -2   -1    0    0    0  501 -0.00000000000E+00  0.00000000000E+00  0.99369727490E+02  0.99369727523E+02  0.25500000000E-02 0. -1.
          2   -1    0    0  501    0  0.00000000000E+00 -0.00000000000E+00 -0.76519956322E+03  0.76519956322E+03  0.25500000000E-02 0.  1.
    5000001    1    1    2    0    0  0.14714502053E+03  0.82682525436E+02 -0.19314904702E+03  0.32464690272E+03  0.19900000000E+03 0.  0.
   -5000001    1    1    2    0    0 -0.14714502053E+03 -0.82682525436E+02 -0.47268078871E+03  0.53992238803E+03  0.19900000000E+03 0.  0.
<mgrwt>
<rscale>  0 0.55149858E+03</rscale>
<asrwt>0</asrwt>
<pdfrwt beam="1">  1        2 0.10931422E+00 0.55149858E+03</pdfrwt>
<pdfrwt beam="2">  1       -2 0.14195676E-01 0.55149858E+03</pdfrwt>
<totfact> 0.15484427E+03</totfact>
</mgrwt>
</event>
<event>
 4    1  0.5069019E-005  0.6376311E+03  0.7818608E-02  0.9830269E-01
          2   -1    0    0  501    0  0.00000000000E+00  0.00000000000E+00  0.25858352434E+04  0.25858352434E+04  0.25500000000E-02 0.  1.
         -2   -1    0    0    0  501 -0.00000000000E+00 -0.00000000000E+00 -0.39307745609E+02  0.39307745692E+02  0.25500000000E-02 0. -1.
    5000001    1    1    2    0    0 -0.24836517766E+03 -0.18659372088E+02  0.12855600869E+04  0.13244995926E+04  0.19900000000E+03 0.  0.
   -5000001    1    1    2    0    0  0.24836517766E+03  0.18659372088E+02  0.12609674108E+04  0.13006433965E+04  0.19900000000E+03 0.  0.
<mgrwt>
<rscale>  0 0.63763110E+03</rscale>
<asrwt>0</asrwt>
<pdfrwt beam="1">  1        2 0.36940504E+00 0.63763110E+03</pdfrwt>
<pdfrwt beam="2">  1       -2 0.56153921E-02 0.63763110E+03</pdfrwt>
<totfact> 0.71387979E+02</totfact>
</mgrwt>
</event>
<event>
 4    1  0.5069019E-005  0.6421250E+03  0.7818608E-02  0.9821669E-01
         -2   -1    0    0    0  501 -0.00000000000E+00  0.00000000000E+00  0.27598430928E+03  0.27598430929E+03  0.25500000000E-02 0. -1.
          2   -1    0    0  501    0  0.00000000000E+00 -0.00000000000E+00 -0.37350355128E+03  0.37350355129E+03  0.25500000000E-02 0.  1.
    5000001    1    1    2    0    0 -0.21611173612E+03 -0.26888133803E+02  0.79393079123E+02  0.30550207077E+03  0.19900000000E+03 0.  0.
   -5000001    1    1    2    0    0  0.21611173612E+03  0.26888133803E+02 -0.17691232112E+03  0.34398578981E+03  0.19900000000E+03 0.  0.
<mgrwt>
<rscale>  0 0.64212497E+03</rscale>
<asrwt>0</asrwt>
<pdfrwt beam="1">  1        2 0.53357650E-01 0.64212497E+03</pdfrwt>
<pdfrwt beam="2">  1       -2 0.39426330E-01 0.64212497E+03</pdfrwt>
<totfact> 0.57182473E+02</totfact>
</mgrwt>
</event>
<event>
 4    1  0.5069019E-005  0.6591388E+03  0.7818608E-02  0.9789780E-01
         -2   -1    0    0    0  501 -0.00000000000E+00  0.00000000000E+00  0.46798045640E+03  0.46798045641E+03  0.25500000000E-02 0. -1.
          2   -1    0    0  501    0  0.00000000000E+00 -0.00000000000E+00 -0.23209513527E+03  0.23209513528E+03  0.25500000000E-02 0.  1.
    5000001    1    1    2    0    0  0.22889696378E+03  0.12873259023E+03  0.11050127812E+03  0.34753047677E+03  0.19900000000E+03 0.  0.
   -5000001    1    1    2    0    0 -0.22889696378E+03 -0.12873259023E+03  0.12538404301E+03  0.35254511492E+03  0.19900000000E+03 0.  0.
<mgrwt>
<rscale>  0 0.65913879E+03</rscale>
<asrwt>0</asrwt>
<pdfrwt beam="1">  1        2 0.33156448E-01 0.65913879E+03</pdfrwt>
<pdfrwt beam="2">  1       -2 0.66854351E-01 0.65913879E+03</pdfrwt>
<totfact> 0.32965349E+02</totfact>
</mgrwt>
</event>
<event>
 4    1  0.5069019E-005  0.6385200E+03  0.7818608E-02  0.9828562E-01
          2   -1    0    0  501    0  0.00000000000E+00  0.00000000000E+00  0.10350567195E+04  0.10350567195E+04  0.25500000000E-02 0.  1.
         -2   -1    0    0    0  501 -0.00000000000E+00 -0.00000000000E+00 -0.98474734838E+02  0.98474734871E+02  0.25500000000E-02 0. -1.
    5000001    1    1    2    0    0 -0.55921379838E+02 -0.16842109514E+03  0.15656897363E+03  0.30920496360E+03  0.19900000000E+03 0.  0.
   -5000001    1    1    2    0    0  0.55921379838E+02  0.16842109514E+03  0.78001301104E+03  0.82432649078E+03  0.19900000000E+03 0.  0.
<mgrwt>
<rscale>  0 0.63851996E+03</rscale>
<asrwt>0</asrwt>
<pdfrwt beam="1">  1        2 0.14786524E+00 0.63851996E+03</pdfrwt>
<pdfrwt beam="2">  1       -2 0.14067819E-01 0.63851996E+03</pdfrwt>
<totfact> 0.10488372E+03</totfact>
</mgrwt>
</event>
<event>
 4    1  0.5069019E-005  0.5339597E+03  0.7818608E-02  0.1005276E+00
         -2   -1    0    0    0  501 -0.00000000000E+00  0.00000000000E+00  0.48662008458E+02  0.48662008525E+02  0.25500000000E-02 0. -1.
          2   -1    0    0  501    0  0.00000000000E+00 -0.00000000000E+00 -0.14647615411E+04  0.14647615411E+04  0.25500000000E-02 0.  1.
    5000001    1    1    2    0    0 -0.52225208514E+01  0.10729445190E+03 -0.30583434411E+03  0.38036169651E+03  0.19900000000E+03 0.  0.
   -5000001    1    1    2    0    0  0.52225208514E+01 -0.10729445190E+03 -0.11102651886E+04  0.11330618531E+04  0.19900000000E+03 0.  0.
<mgrwt>
<rscale>  0 0.53395969E+03</rscale>
<asrwt>0</asrwt>
<pdfrwt beam="1">  1        2 0.20925162E+00 0.53395969E+03</pdfrwt>
<pdfrwt beam="2">  1       -2 0.69517164E-02 0.53395969E+03</pdfrwt>
<totfact> 0.19043930E+03</totfact>
</mgrwt>
</event>
<event>
 4    1  0.5069019E-005  0.5633300E+03  0.7818608E-02  0.9984548E-01
         -2   -1    0    0    0  501 -0.00000000000E+00  0.00000000000E+00  0.37913381434E+02  0.37913381519E+02  0.25500000000E-02 0. -1.
          2   -1    0    0  501    0  0.00000000000E+00 -0.00000000000E+00 -0.20925377510E+04  0.20925377510E+04  0.25500000000E-02 0.  1.
    5000001    1    1    2    0    0  0.12064372248E+03  0.12671024568E+03 -0.66607183018E+03  0.71684243533E+03  0.19900000000E+03 0.  0.
   -5000001    1    1    2    0    0 -0.12064372248E+03 -0.12671024568E+03 -0.13885525394E+04  0.14136086972E+04  0.19900000000E+03 0.  0.
<mgrwt>
<rscale>  0 0.56333003E+03</rscale>
<asrwt>0</asrwt>
<pdfrwt beam="1">  1        2 0.29893389E+00 0.56333003E+03</pdfrwt>
<pdfrwt beam="2">  1       -2 0.54161987E-02 0.56333003E+03</pdfrwt>
<totfact> 0.13516508E+03</totfact>
</mgrwt>
</event>
<event>
 4    1  0.5069019E-005  0.6370263E+03  0.7818608E-02  0.9831433E-01
          2   -1    0    0  501    0  0.00000000000E+00  0.00000000000E+00  0.98019208719E+03  0.98019208720E+03  0.25500000000E-02 0.  1.
         -2   -1    0    0    0  501 -0.00000000000E+00 -0.00000000000E+00 -0.10350077013E+03  0.10350077016E+03  0.25500000000E-02 0. -1.
    5000001    1    1    2    0    0 -0.10029461572E+03 -0.22294800303E+03  0.51602087589E+03  0.60468451803E+03  0.19900000000E+03 0.  0.
   -5000001    1    1    2    0    0  0.10029461572E+03  0.22294800303E+03  0.36067044118E+03  0.47900833932E+03  0.19900000000E+03 0.  0.
<mgrwt>
<rscale>  0 0.63702633E+03</rscale>
<asrwt>0</asrwt>
<pdfrwt beam="1">  1        2 0.14002743E+00 0.63702633E+03</pdfrwt>
<pdfrwt beam="2">  1       -2 0.14785825E-01 0.63702633E+03</pdfrwt>
<totfact> 0.10418793E+03</totfact>
</mgrwt>
</event>
<event>
 4    1  0.5069019E-005  0.5346706E+03  0.7818608E-02  0.1005106E+00
          2   -1    0    0  501    0  0.00000000000E+00  0.00000000000E+00  0.23071215083E+04  0.23071215083E+04  0.25500000000E-02 0.  1.
         -2   -1    0    0    0  501 -0.00000000000E+00 -0.00000000000E+00 -0.30977199882E+02  0.30977199986E+02  0.25500000000E-02 0. -1.
    5000001    1    1    2    0    0  0.12782665838E+03  0.10095030604E+03  0.14575249074E+04  0.14800373220E+04  0.19900000000E+03 0.  0.
   -5000001    1    1    2    0    0 -0.12782665838E+03 -0.10095030604E+03  0.81861940105E+03  0.85806138629E+03  0.19900000000E+03 0.  0.
<mgrwt>
<rscale>  0 0.53467061E+03</rscale>
<asrwt>0</asrwt>
<pdfrwt beam="1">  1        2 0.32958877E+00 0.53467061E+03</pdfrwt>
<pdfrwt beam="2">  1       -2 0.44253145E-02 0.53467061E+03</pdfrwt>
<totfact> 0.14437976E+03</totfact>
</mgrwt>
</event>
<event>
 4    1  0.5069019E-005  0.7055140E+03  0.7818608E-02  0.9707849E-01
          2   -1    0    0  501    0  0.00000000000E+00  0.00000000000E+00  0.29951823914E+03  0.29951823915E+03  0.25500000000E-02 0.  1.
         -2   -1    0    0    0  501 -0.00000000000E+00 -0.00000000000E+00 -0.41545887481E+03  0.41545887482E+03  0.25500000000E-02 0. -1.
    5000001    1    1    2    0    0  0.17090447533E+03 -0.12659846606E+03  0.14369887511E+03  0.32478589564E+03  0.19900000000E+03 0.  0.
   -5000001    1    1    2    0    0 -0.17090447533E+03  0.12659846606E+03 -0.25963951079E+03  0.39019121833E+03  0.19900000000E+03 0.  0.
<mgrwt>
<rscale>  0 0.70551403E+03</rscale>
<asrwt>0</asrwt>
<pdfrwt beam="1">  1        2 0.42788320E-01 0.70551403E+03</pdfrwt>
<pdfrwt beam="2">  1       -2 0.59351267E-01 0.70551403E+03</pdfrwt>
<totfact> 0.31940906E+02</totfact>
</mgrwt>
</event>
<event>
 4    1  0.5069019E-005  0.5306502E+03  0.7818608E-02  0.1006075E+00
          2   -1    0    0  501    0  0.00000000000E+00  0.00000000000E+00  0.17447695683E+04  0.17447695683E+04  0.25500000000E-02 0.  1.
         -2   -1    0    0    0  501 -0.00000000000E+00 -0.00000000000E+00 -0.40347687986E+02  0.40347688067E+02  0.25500000000E-02 0. -1.
    5000001    1    1    2    0    0 -0.30654123798E+02 -0.16292461565E+03  0.10458192708E+04  0.10774149864E+04  0.19900000000E+03 0.  0.
   -5000001    1    1    2    0    0  0.30654123798E+02  0.16292461565E+03  0.65860260942E+03  0.70770226990E+03  0.19900000000E+03 0.  0.
<mgrwt>
<rscale>  0 0.53065024E+03</rscale>
<asrwt>0</asrwt>
<pdfrwt beam="1">  1        2 0.24925279E+00 0.53065024E+03</pdfrwt>
<pdfrwt beam="2">  1       -2 0.57639556E-02 0.53065024E+03</pdfrwt>
<totfact> 0.18361469E+03</totfact>
</mgrwt>
</event>
<event>
 4    1  0.5069019E-005  0.4958787E+03  0.7818608E-02  0.1014860E+00
         -2   -1    0    0    0  501 -0.00000000000E+00  0.00000000000E+00  0.68863057854E+02  0.68863057901E+02  0.25500000000E-02 0. -1.
          2   -1    0    0  501    0  0.00000000000E+00 -0.00000000000E+00 -0.89269817351E+03  0.89269817352E+03  0.25500000000E-02 0.  1.
    5000001    1    1    2    0    0  0.14600008297E+03  0.18471575261E+02 -0.44039685302E+03  0.50518077108E+03  0.19900000000E+03 0.  0.
   -5000001    1    1    2    0    0 -0.14600008297E+03 -0.18471575261E+02 -0.38343826264E+03  0.45638046034E+03  0.19900000000E+03 0.  0.
<mgrwt>
<rscale>  0 0.49587872E+03</rscale>
<asrwt>0</asrwt>
<pdfrwt beam="1">  1        2 0.12752830E+00 0.49587872E+03</pdfrwt>
<pdfrwt beam="2">  1       -2 0.98375802E-02 0.49587872E+03</pdfrwt>
<totfact> 0.23171814E+03</totfact>
</mgrwt>
</event>
<event>
 4    1  0.5069019E-005  0.4903514E+03  0.7818608E-02  0.1016328E+00
         -2   -1    0    0    0  501 -0.00000000000E+00  0.00000000000E+00  0.67790345130E+03  0.67790345130E+03  0.25500000000E-02 0. -1.
          2   -1    0    0  501    0  0.00000000000E+00 -0.00000000000E+00 -0.88672103224E+02  0.88672103261E+02  0.25500000000E-02 0.  1.
    5000001    1    1    2    0    0  0.90128113165E+02  0.11115984943E+03  0.30325446639E+03  0.38992801937E+03  0.19900000000E+03 0.  0.
   -5000001    1    1    2    0    0 -0.90128113165E+02 -0.11115984943E+03  0.28597688169E+03  0.37664753519E+03  0.19900000000E+03 0.  0.
<mgrwt>
<rscale>  0 0.49035140E+03</rscale>
<asrwt>0</asrwt>
<pdfrwt beam="1">  1        2 0.12667443E-01 0.49035140E+03</pdfrwt>
<pdfrwt beam="2">  1       -2 0.96843349E-01 0.49035140E+03</pdfrwt>
<totfact> 0.44410575E+02</totfact>
</mgrwt>
</event>
<event>
 4    1  0.5069019E-005  0.6371378E+03  0.7818608E-02  0.9831218E-01
         -2   -1    0    0    0  501 -0.00000000000E+00  0.00000000000E+00  0.18414804104E+03  0.18414804106E+03  0.25500000000E-02 0. -1.
          2   -1    0    0  501    0  0.00000000000E+00 -0.00000000000E+00 -0.55111174967E+03  0.55111174968E+03  0.25500000000E-02 0.  1.
    5000001    1    1    2    0    0  0.15110497393E+03 -0.13126214381E+02 -0.41102897020E+03  0.48119728282E+03  0.19900000000E+03 0.  0.
   -5000001    1    1    2    0    0 -0.15110497393E+03  0.13126214381E+02  0.44065261566E+02  0.25406250791E+03  0.19900000000E+03 0.  0.
<mgrwt>
<rscale>  0 0.63713782E+03</rscale>
<asrwt>0</asrwt>
<pdfrwt beam="1">  1        2 0.78730249E-01 0.63713782E+03</pdfrwt>
<pdfrwt beam="2">  1       -2 0.26306863E-01 0.63713782E+03</pdfrwt>
<totfact> 0.78628403E+02</totfact>
</mgrwt>
</event>
<event>
 4    1  0.5069019E-005  0.4793920E+03  0.7818608E-02  0.1019302E+00
          2   -1    0    0  501    0  0.00000000000E+00  0.00000000000E+00  0.37843619483E+03  0.37843619483E+03  0.25500000000E-02 0.  1.
         -2   -1    0    0    0  501 -0.00000000000E+00 -0.00000000000E+00 -0.15181994580E+03  0.15181994582E+03  0.25500000000E-02 0. -1.
    5000001    1    1    2    0    0  0.78158371161E+02  0.56496336410E+02  0.11015592270E+02  0.22141117922E+03  0.19900000000E+03 0.  0.
   -5000001    1    1    2    0    0 -0.78158371161E+02 -0.56496336410E+02  0.21560065676E+03  0.30884496144E+03  0.19900000000E+03 0.  0.
<mgrwt>
<rscale>  0 0.47939196E+03</rscale>
<asrwt>0</asrwt>
<pdfrwt beam="1">  1        2 0.54062313E-01 0.47939196E+03</pdfrwt>
<pdfrwt beam="2">  1       -2 0.21688564E-01 0.47939196E+03</pdfrwt>
<totfact> 0.16934295E+03</totfact>
</mgrwt>
</event>
<event>
 4    1  0.5069019E-005  0.4923362E+03  0.7818608E-02  0.1015799E+00
          2   -1    0    0  501    0  0.00000000000E+00  0.00000000000E+00  0.11256049767E+04  0.11256049767E+04  0.25500000000E-02 0.  1.
         -2   -1    0    0    0  501 -0.00000000000E+00 -0.00000000000E+00 -0.53836587338E+02  0.53836587398E+02  0.25500000000E-02 0. -1.
    5000001    1    1    2    0    0  0.36462907841E+02 -0.13781157162E+03  0.47359127510E+03  0.53311468632E+03  0.19900000000E+03 0.  0.
   -5000001    1    1    2    0    0 -0.36462907841E+02  0.13781157162E+03  0.59817711429E+03  0.64632687781E+03  0.19900000000E+03 0.  0.
<mgrwt>
<rscale>  0 0.49233619E+03</rscale>
<asrwt>0</asrwt>
<pdfrwt beam="1">  1        2 0.16080071E+00 0.49233619E+03</pdfrwt>
<pdfrwt beam="2">  1       -2 0.76909411E-02 0.49233619E+03</pdfrwt>
<totfact> 0.24829452E+03</totfact>
</mgrwt>
</event>
<event>
 4    1  0.5069019E-005  0.6199834E+03  0.7818608E-02  0.9864793E-01
          2   -1    0    0  501    0  0.00000000000E+00  0.00000000000E+00  0.11902263527E+04  0.11902263527E+04  0.25500000000E-02 0. -1.
         -2   -1    0    0    0  501 -0.00000000000E+00 -0.00000000000E+00 -0.80736612761E+02  0.80736612801E+02  0.25500000000E-02 0.  1.
    5000001    1    1    2    0    0  0.47458128780E+02  0.23240918911E+03  0.58566780945E+03  0.66247572650E+03  0.19900000000E+03 0.  0.
   -5000001    1    1    2    0    0 -0.47458128780E+02 -0.23240918911E+03  0.52382193048E+03  0.60848723900E+03  0.19900000000E+03 0.  0.
<mgrwt>
<rscale>  0 0.61998337E+03</rscale>
<asrwt>0</asrwt>
<pdfrwt beam="1">  1        2 0.17003234E+00 0.61998337E+03</pdfrwt>
<pdfrwt beam="2">  1       -2 0.11533801E-01 0.61998337E+03</pdfrwt>
<totfact> 0.11853355E+03</totfact>
</mgrwt>
</event>
<event>
 4    1  0.5069019E-005  0.5892163E+03  0.7818608E-02  0.9928035E-01
          2   -1    0    0  501    0  0.00000000000E+00  0.00000000000E+00  0.12394193575E+04  0.12394193575E+04  0.25500000000E-02 0.  1.
         -2   -1    0    0    0  501 -0.00000000000E+00 -0.00000000000E+00 -0.70027921915E+02  0.70027921961E+02  0.25500000000E-02 0. -1.
    5000001    1    1    2    0    0  0.68820103994E+02 -0.88802584375E+02  0.99790334908E+03  0.10237354149E+04  0.19900000000E+03 0.  0.
   -5000001    1    1    2    0    0 -0.68820103994E+02  0.88802584375E+02  0.17148808647E+03  0.28571186448E+03  0.19900000000E+03 0.  0.
<mgrwt>
<rscale>  0 0.58921630E+03</rscale>
<asrwt>0</asrwt>
<pdfrwt beam="1">  1        2 0.17705991E+00 0.58921630E+03</pdfrwt>
<pdfrwt beam="2">  1       -2 0.10003989E-01 0.58921630E+03</pdfrwt>
<totfact> 0.14045664E+03</totfact>
</mgrwt>
</event>
<event>
 4    1  0.5069019E-005  0.6115745E+03  0.7818608E-02  0.9881679E-01
         -2   -1    0    0    0  501 -0.00000000000E+00  0.00000000000E+00  0.62003734355E+02  0.62003734407E+02  0.25500000000E-02 0. -1.
          2   -1    0    0  501    0  0.00000000000E+00 -0.00000000000E+00 -0.15080681299E+04  0.15080681299E+04  0.25500000000E-02 0.  1.
    5000001    1    1    2    0    0  0.12976772156E+03 -0.15221999973E+02 -0.23032201698E+03  0.33124100342E+03  0.19900000000E+03 0.  0.
   -5000001    1    1    2    0    0 -0.12976772156E+03  0.15221999973E+02 -0.12157423785E+04  0.12388308609E+04  0.19900000000E+03 0.  0.
<mgrwt>
<rscale>  0 0.61157454E+03</rscale>
<asrwt>0</asrwt>
<pdfrwt beam="1">  1        2 0.21543828E+00 0.61157454E+03</pdfrwt>
<pdfrwt beam="2">  1       -2 0.88576773E-02 0.61157454E+03</pdfrwt>
<totfact> 0.12267355E+03</totfact>
</mgrwt>
</event>
<event>
 4    1  0.5069019E-005  0.9872474E+03  0.7818608E-02  0.9322643E-01
         -2   -1    0    0    0  501 -0.00000000000E+00  0.00000000000E+00  0.34438258545E+03  0.34438258546E+03  0.25500000000E-02 0. -1.
          2   -1    0    0  501    0  0.00000000000E+00 -0.00000000000E+00 -0.70753965290E+03  0.70753965291E+03  0.25500000000E-02 0.  1.
    5000001    1    1    2    0    0 -0.33431774043E+03 -0.26981423259E+03 -0.33035087931E+03  0.57732207228E+03  0.19900000000E+03 0.  0.
   -5000001    1    1    2    0    0  0.33431774043E+03  0.26981423259E+03 -0.32806188141E+02  0.47460016609E+03  0.19900000000E+03 0.  0.
<mgrwt>
<rscale>  0 0.98724735E+03</rscale>
<asrwt>0</asrwt>
<pdfrwt beam="1">  1        2 0.10107709E+00 0.98724735E+03</pdfrwt>
<pdfrwt beam="2">  1       -2 0.49197513E-01 0.98724735E+03</pdfrwt>
<totfact> 0.17348646E+02</totfact>
</mgrwt>
</event>
<event>
 4    1  0.5069019E-005  0.5363294E+03  0.7818608E-02  0.1004709E+00
          2   -1    0    0  501    0  0.00000000000E+00  0.00000000000E+00  0.10507824608E+04  0.10507824608E+04  0.25500000000E-02 0.  1.
         -2   -1    0    0    0  501 -0.00000000000E+00 -0.00000000000E+00 -0.68436905719E+02  0.68436905767E+02  0.25500000000E-02 0. -1.
    5000001    1    1    2    0    0 -0.91408271202E+02 -0.13272307380E+03  0.65733888026E+03  0.70545466890E+03  0.19900000000E+03 0.  0.
   -5000001    1    1    2    0    0  0.91408271202E+02  0.13272307380E+03  0.32500667481E+03  0.41376469766E+03  0.19900000000E+03 0.  0.
<mgrwt>
<rscale>  0 0.53632938E+03</rscale>
<asrwt>0</asrwt>
<pdfrwt beam="1">  1        2 0.15011176E+00 0.53632938E+03</pdfrwt>
<pdfrwt beam="2">  1       -2 0.97767019E-02 0.53632938E+03</pdfrwt>
<totfact> 0.18698735E+03</totfact>
</mgrwt>
</event>
<event>
 4    1  0.5069019E-005  0.6151919E+03  0.7818608E-02  0.9874380E-01
         -2   -1    0    0    0  501 -0.00000000000E+00  0.00000000000E+00  0.99541941263E+02  0.99541941296E+02  0.25500000000E-02 0.  1.
          2   -1    0    0  501    0  0.00000000000E+00 -0.00000000000E+00 -0.95050647810E+03  0.95050647810E+03  0.25500000000E-02 0. -1.
    5000001    1    1    2    0    0 -0.71566243565E+02 -0.21996980911E+03 -0.49171683132E+03  0.57870103365E+03  0.19900000000E+03 0.  0.
   -5000001    1    1    2    0    0  0.71566243565E+02  0.21996980911E+03 -0.35924770551E+03  0.47134738575E+03  0.19900000000E+03 0.  0.
<mgrwt>
<rscale>  0 0.61519187E+03</rscale>
<asrwt>0</asrwt>
<pdfrwt beam="1">  1        2 0.13578663E+00 0.61519187E+03</pdfrwt>
<pdfrwt beam="2">  1       -2 0.14220278E-01 0.61519187E+03</pdfrwt>
<totfact> 0.11612842E+03</totfact>
</mgrwt>
</event>
<event>
 4    1  0.5069019E-005  0.1099262E+04  0.7818608E-02  0.9205911E-01
          2   -1    0    0  501    0  0.00000000000E+00  0.00000000000E+00  0.45731843824E+03  0.45731843824E+03  0.25500000000E-02 0.  1.
         -2   -1    0    0    0  501 -0.00000000000E+00 -0.00000000000E+00 -0.66057741043E+03  0.66057741043E+03  0.25500000000E-02 0. -1.
    5000001    1    1    2    0    0  0.49605850640E+03 -0.12219148319E+03 -0.62395336479E+02  0.55181426074E+03  0.19900000000E+03 0.  0.
   -5000001    1    1    2    0    0 -0.49605850640E+03  0.12219148319E+03 -0.14086363571E+03  0.56608158794E+03  0.19900000000E+03 0.  0.
<mgrwt>
<rscale>  0 0.10992620E+04</rscale>
<asrwt>0</asrwt>
<pdfrwt beam="1">  1        2 0.65331206E-01 0.10992620E+04</pdfrwt>
<pdfrwt beam="2">  1       -2 0.94368201E-01 0.10992620E+04</pdfrwt>
<totfact> 0.69957460E+01</totfact>
</mgrwt>
</event>
<event>
 4    1  0.5069019E-005  0.7219826E+03  0.7818608E-02  0.9680360E-01
          2   -1    0    0  501    0  0.00000000000E+00  0.00000000000E+00  0.25465787393E+04  0.25465787393E+04  0.25500000000E-02 0.  1.
         -2   -1    0    0    0  501 -0.00000000000E+00 -0.00000000000E+00 -0.51172464755E+02  0.51172464818E+02  0.25500000000E-02 0. -1.
    5000001    1    1    2    0    0 -0.12173591889E+03 -0.21263825451E+03  0.61748370843E+03  0.69348524960E+03  0.19900000000E+03 0.  0.
   -5000001    1    1    2    0    0  0.12173591889E+03  0.21263825451E+03  0.18779225662E+04  0.19042659546E+04  0.19900000000E+03 0.  0.
<mgrwt>
<rscale>  0 0.72198258E+03</rscale>
<asrwt>0</asrwt>
<pdfrwt beam="1">  1        2 0.36379702E+00 0.72198258E+03</pdfrwt>
<pdfrwt beam="2">  1       -2 0.73103509E-02 0.72198258E+03</pdfrwt>
<totfact> 0.49031799E+02</totfact>
</mgrwt>
</event>
<event>
 4    1  0.5069019E-005  0.6246844E+03  0.7818608E-02  0.9855477E-01
         -2   -1    0    0    0  501 -0.00000000000E+00  0.00000000000E+00  0.11772841416E+03  0.11772841419E+03  0.25500000000E-02 0. -1.
          2   -1    0    0  501    0  0.00000000000E+00 -0.00000000000E+00 -0.82866705238E+03  0.82866705239E+03  0.25500000000E-02 0.  1.
    5000001    1    1    2    0    0  0.23288008034E+03 -0.24013471675E+02 -0.44045622478E+03  0.53704046829E+03  0.19900000000E+03 0.  0.
   -5000001    1    1    2    0    0 -0.23288008034E+03  0.24013471675E+02 -0.27048241344E+03  0.40935499829E+03  0.19900000000E+03 0.  0.
<mgrwt>
<rscale>  0 0.62468443E+03</rscale>
<asrwt>0</asrwt>
<pdfrwt beam="1">  1        2 0.11838100E+00 0.62468443E+03</pdfrwt>
<pdfrwt beam="2">  1       -2 0.16818345E-01 0.62468443E+03</pdfrwt>
<totfact> 0.10496603E+03</totfact>
</mgrwt>
</event>
<event>
 4    1  0.5069019E-005  0.9077547E+03  0.7818608E-02  0.9415939E-01
         -2   -1    0    0    0  501 -0.00000000000E+00  0.00000000000E+00  0.18201613662E+03  0.18201613664E+03  0.25500000000E-02 0. -1.
          2   -1    0    0  501    0  0.00000000000E+00 -0.00000000000E+00 -0.11317934019E+04  0.11317934019E+04  0.25500000000E-02 0.  1.
    5000001    1    1    2    0    0  0.15876638954E+03  0.33269275813E+03 -0.22207397458E+03  0.47414036735E+03  0.19900000000E+03 0.  0.
   -5000001    1    1    2    0    0 -0.15876638954E+03 -0.33269275813E+03 -0.72770329066E+03  0.83966917116E+03  0.19900000000E+03 0.  0.
<mgrwt>
<rscale>  0 0.90775473E+03</rscale>
<asrwt>0</asrwt>
<pdfrwt beam="1">  1        2 0.16168477E+00 0.90775473E+03</pdfrwt>
<pdfrwt beam="2">  1       -2 0.26002306E-01 0.90775473E+03</pdfrwt>
<totfact> 0.31215677E+02</totfact>
</mgrwt>
</event>
<event>
 4    1  0.5069019E-005  0.1051327E+04  0.7818608E-02  0.9253975E-01
         -2   -1    0    0    0  501 -0.00000000000E+00  0.00000000000E+00  0.23660778923E+03  0.23660778924E+03  0.25500000000E-02 0. -1.
          2   -1    0    0  501    0  0.00000000000E+00 -0.00000000000E+00 -0.11678488912E+04  0.11678488912E+04  0.25500000000E-02 0.  1.
    5000001    1    1    2    0    0  0.33692555098E+03  0.27547872170E+03 -0.17504144566E+03  0.50955653338E+03  0.19900000000E+03 0.  0.
   -5000001    1    1    2    0    0 -0.33692555098E+03 -0.27547872170E+03 -0.75619965632E+03  0.89490014707E+03  0.19900000000E+03 0.  0.
<mgrwt>
<rscale>  0 0.10513271E+04</rscale>
<asrwt>0</asrwt>
<pdfrwt beam="1">  1        2 0.16683555E+00 0.10513271E+04</pdfrwt>
<pdfrwt beam="2">  1       -2 0.33801113E-01 0.10513271E+04</pdfrwt>
<totfact> 0.18141049E+02</totfact>
</mgrwt>
</event>
<event>
 4    1  0.5069019E-005  0.5177992E+03  0.7818608E-02  0.1009235E+00
          2   -1    0    0  501    0  0.00000000000E+00  0.00000000000E+00  0.36307464036E+02  0.36307464125E+02  0.25500000000E-02 0.  1.
         -2   -1    0    0    0  501 -0.00000000000E+00 -0.00000000000E+00 -0.18461492597E+04  0.18461492597E+04  0.25500000000E-02 0. -1.
    5000001    1    1    2    0    0 -0.51997685902E+02 -0.13576871578E+03 -0.11932754045E+04  0.12184597221E+04  0.19900000000E+03 0.  0.
   -5000001    1    1    2    0    0  0.51997685902E+02  0.13576871578E+03 -0.61656639122E+03  0.66399700173E+03  0.19900000000E+03 0.  0.
<mgrwt>
<rscale>  0 0.51779918E+03</rscale>
<asrwt>0</asrwt>
<pdfrwt beam="1">  1        2 0.51867817E-02 0.51779918E+03</pdfrwt>
<pdfrwt beam="2">  1       -2 0.26373555E+00 0.51779918E+03</pdfrwt>
<totfact> 0.87437371E+01</totfact>
</mgrwt>
</event>
<event>
 4    1  0.5069019E-005  0.6019042E+03  0.7818608E-02  0.9901463E-01
          2   -1    0    0  501    0  0.00000000000E+00  0.00000000000E+00  0.10616228902E+04  0.10616228902E+04  0.25500000000E-02 0.  1.
         -2   -1    0    0    0  501 -0.00000000000E+00 -0.00000000000E+00 -0.85314808332E+02  0.85314808370E+02  0.25500000000E-02 0. -1.
    5000001    1    1    2    0    0  0.27209575770E+02  0.28213092993E+02  0.64482847020E+02  0.21282710633E+03  0.19900000000E+03 0.  0.
   -5000001    1    1    2    0    0 -0.27209575770E+02 -0.28213092993E+02  0.91182523481E+03  0.93411059221E+03  0.19900000000E+03 0.  0.
<mgrwt>
<rscale>  0 0.60190416E+03</rscale>
<asrwt>0</asrwt>
<pdfrwt beam="1">  1        2 0.15166042E+00 0.60190416E+03</pdfrwt>
<pdfrwt beam="2">  1       -2 0.12187829E-01 0.60190416E+03</pdfrwt>
<totfact> 0.12846380E+03</totfact>
</mgrwt>
</event>
<event>
 4    1  0.5069019E-005  0.6526794E+03  0.7818608E-02  0.9801764E-01
         -2   -1    0    0    0  501 -0.00000000000E+00  0.00000000000E+00  0.77128905464E+02  0.77128905507E+02  0.25500000000E-02 0. -1.
          2   -1    0    0  501    0  0.00000000000E+00 -0.00000000000E+00 -0.13807743203E+04  0.13807743203E+04  0.25500000000E-02 0.  1.
    5000001    1    1    2    0    0  0.19337018932E+03 -0.11897254488E+03 -0.92857077049E+03  0.97641751948E+03  0.19900000000E+03 0.  0.
   -5000001    1    1    2    0    0 -0.19337018932E+03  0.11897254488E+03 -0.37507464430E+03  0.48148570628E+03  0.19900000000E+03 0.  0.
<mgrwt>
<rscale>  0 0.65267944E+03</rscale>
<asrwt>0</asrwt>
<pdfrwt beam="1">  1        2 0.19725346E+00 0.65267944E+03</pdfrwt>
<pdfrwt beam="2">  1       -2 0.11018416E-01 0.65267944E+03</pdfrwt>
<totfact> 0.10035386E+03</totfact>
</mgrwt>
</event>
<event>
 4    1  0.5069019E-005  0.5264546E+03  0.7818608E-02  0.1007096E+00
         -2   -1    0    0    0  501 -0.00000000000E+00  0.00000000000E+00  0.20056676996E+02  0.20056677158E+02  0.25500000000E-02 0. -1.
          2   -1    0    0  501    0  0.00000000000E+00 -0.00000000000E+00 -0.34546406050E+04  0.34546406050E+04  0.25500000000E-02 0.  1.
    5000001    1    1    2    0    0  0.67622295039E+02  0.11747698822E+03 -0.10152484791E+04  0.10434098389E+04  0.19900000000E+03 0.  0.
   -5000001    1    1    2    0    0 -0.67622295039E+02 -0.11747698822E+03 -0.24193354489E+04  0.24312874433E+04  0.19900000000E+03 0.  0.
<mgrwt>
<rscale>  0 0.52645460E+03</rscale>
<asrwt>0</asrwt>
<pdfrwt beam="1">  1        2 0.49351971E+00 0.52645460E+03</pdfrwt>
<pdfrwt beam="2">  1       -2 0.28652418E-02 0.52645460E+03</pdfrwt>
<totfact> 0.67852585E+02</totfact>
</mgrwt>
</event>
<event>
 4    1  0.5069019E-005  0.7422143E+03  0.7818608E-02  0.9647645E-01
          2   -1    0    0  501    0  0.00000000000E+00  0.00000000000E+00  0.22234420491E+04  0.22234420491E+04  0.25500000000E-02 0.  1.
         -2   -1    0    0    0  501 -0.00000000000E+00 -0.00000000000E+00 -0.61940238880E+02  0.61940238932E+02  0.25500000000E-02 0. -1.
    5000001    1    1    2    0    0  0.89470941131E+02 -0.28335210443E+03  0.13859754001E+04  0.14313707675E+04  0.19900000000E+03 0.  0.
   -5000001    1    1    2    0    0 -0.89470941131E+02  0.28335210443E+03  0.77552641005E+03  0.85401152046E+03  0.19900000000E+03 0.  0.
<mgrwt>
<rscale>  0 0.74221434E+03</rscale>
<asrwt>0</asrwt>
<pdfrwt beam="1">  1        2 0.31763458E+00 0.74221434E+03</pdfrwt>
<pdfrwt beam="2">  1       -2 0.88486054E-02 0.74221434E+03</pdfrwt>
<totfact> 0.52794829E+02</totfact>
</mgrwt>
</event>
<event>
 4    1  0.5069019E-005  0.9052353E+03  0.7818608E-02  0.9419061E-01
         -2   -1    0    0    0  501 -0.00000000000E+00  0.00000000000E+00  0.45873051793E+03  0.45873051793E+03  0.25500000000E-02 0. -1.
          2   -1    0    0  501    0  0.00000000000E+00 -0.00000000000E+00 -0.44658619095E+03  0.44658619095E+03  0.25500000000E-02 0.  1.
    5000001    1    1    2    0    0  0.25360427203E+03  0.30623076388E+03  0.90751543938E+02  0.45379428188E+03  0.19900000000E+03 0.  0.
   -5000001    1    1    2    0    0 -0.25360427203E+03 -0.30623076388E+03 -0.78607216957E+02  0.45152242701E+03  0.19900000000E+03 0.  0.
<mgrwt>
<rscale>  0 0.90523525E+03</rscale>
<asrwt>0</asrwt>
<pdfrwt beam="1">  1        2 0.63798027E-01 0.90523525E+03</pdfrwt>
<pdfrwt beam="2">  1       -2 0.65532932E-01 0.90523525E+03</pdfrwt>
<totfact> 0.16442603E+02</totfact>
</mgrwt>
</event>
<event>
 4    1  0.5069019E-005  0.9862112E+03  0.7818608E-02  0.9323799E-01
          2   -1    0    0  501    0  0.00000000000E+00  0.00000000000E+00  0.10939784109E+04  0.10939784109E+04  0.25500000000E-02 0.  1.
         -2   -1    0    0    0  501 -0.00000000000E+00 -0.00000000000E+00 -0.22226503169E+03  0.22226503170E+03  0.25500000000E-02 0. -1.
    5000001    1    1    2    0    0  0.13153478367E+03  0.31258002495E+03  0.83299978055E+03  0.92113913483E+03  0.19900000000E+03 0.  0.
   -5000001    1    1    2    0    0 -0.13153478367E+03 -0.31258002495E+03  0.38713598667E+02  0.39510430779E+03  0.19900000000E+03 0.  0.
<mgrwt>
<rscale>  0 0.98621123E+03</rscale>
<asrwt>0</asrwt>
<pdfrwt beam="1">  1        2 0.15628263E+00 0.98621123E+03</pdfrwt>
<pdfrwt beam="2">  1       -2 0.31752147E-01 0.98621123E+03</pdfrwt>
<totfact> 0.22624545E+02</totfact>
</mgrwt>
</event>
<event>
 4    1  0.5069019E-005  0.8936263E+03  0.7818608E-02  0.9433584E-01
         -2   -1    0    0    0  501 -0.00000000000E+00  0.00000000000E+00  0.15127461662E+03  0.15127461665E+03  0.25500000000E-02 0. -1.
          2   -1    0    0  501    0  0.00000000000E+00 -0.00000000000E+00 -0.13197322972E+04  0.13197322972E+04  0.25500000000E-02 0.  1.
    5000001    1    1    2    0    0 -0.27749462689E+03 -0.28813820928E+03 -0.57804732726E+03  0.73059332611E+03  0.19900000000E+03 0.  0.
   -5000001    1    1    2    0    0  0.27749462689E+03  0.28813820928E+03 -0.59041035328E+03  0.74041358771E+03  0.19900000000E+03 0.  0.
<mgrwt>
<rscale>  0 0.89362631E+03</rscale>
<asrwt>0</asrwt>
<pdfrwt beam="1">  1        2 0.18853318E+00 0.89362631E+03</pdfrwt>
<pdfrwt beam="2">  1       -2 0.21610660E-01 0.89362631E+03</pdfrwt>
<totfact> 0.34107984E+02</totfact>
</mgrwt>
</event>
<event>
 4    1  0.5069019E-005  0.6464683E+03  0.7818608E-02  0.9813429E-01
          2   -1    0    0  501    0  0.00000000000E+00  0.00000000000E+00  0.21946843737E+04  0.21946843737E+04  0.25500000000E-02 0.  1.
         -2   -1    0    0    0  501 -0.00000000000E+00 -0.00000000000E+00 -0.47606070887E+02  0.47606070955E+02  0.25500000000E-02 0. -1.
    5000001    1    1    2    0    0 -0.91562764755E+01  0.23860593863E+03  0.13810990086E+04  0.14156454722E+04  0.19900000000E+03 0.  0.
   -5000001    1    1    2    0    0  0.91562764755E+01 -0.23860593863E+03  0.76597929415E+03  0.82664497242E+03  0.19900000000E+03 0.  0.
<mgrwt>
<rscale>  0 0.64646825E+03</rscale>
<asrwt>0</asrwt>
<pdfrwt beam="1">  1        2 0.31352635E+00 0.64646825E+03</pdfrwt>
<pdfrwt beam="2">  1       -2 0.68008670E-02 0.64646825E+03</pdfrwt>
<totfact> 0.83627877E+02</totfact>
</mgrwt>
</event>
<event>
 4    1  0.5069019E-005  0.1161710E+04  0.7818608E-02  0.9147048E-01
          2   -1    0    0  501    0  0.00000000000E+00  0.00000000000E+00  0.86451221593E+03  0.86451221593E+03  0.25500000000E-02 0.  1.
         -2   -1    0    0    0  501 -0.00000000000E+00 -0.00000000000E+00 -0.39026913614E+03  0.39026913615E+03  0.25500000000E-02 0. -1.
    5000001    1    1    2    0    0  0.28152814142E+03 -0.21269685943E+03 -0.21251478014E+03  0.45745117794E+03  0.19900000000E+03 0.  0.
   -5000001    1    1    2    0    0 -0.28152814142E+03  0.21269685943E+03  0.68675785993E+03  0.79733017414E+03  0.19900000000E+03 0.  0.
<mgrwt>
<rscale>  0 0.11617098E+04</rscale>
<asrwt>0</asrwt>
<pdfrwt beam="1">  1        2 0.12350174E+00 0.11617098E+04</pdfrwt>
<pdfrwt beam="2">  1       -2 0.55752734E-01 0.11617098E+04</pdfrwt>
<totfact> 0.10265841E+02</totfact>
</mgrwt>
</event>
<event>
 4    1  0.5069019E-005  0.5266371E+03  0.7818608E-02  0.1007051E+00
          2   -1    0    0  501    0  0.00000000000E+00  0.00000000000E+00  0.16440625463E+03  0.16440625465E+03  0.25500000000E-02 0.  1.
         -2   -1    0    0    0  501 -0.00000000000E+00 -0.00000000000E+00 -0.42173985290E+03  0.42173985291E+03  0.25500000000E-02 0. -1.
    5000001    1    1    2    0    0  0.87839017375E+02  0.11137421227E+03 -0.23780737541E+03  0.34098864487E+03  0.19900000000E+03 0.  0.
   -5000001    1    1    2    0    0 -0.87839017375E+02 -0.11137421227E+03 -0.19526222852E+02  0.24515746269E+03  0.19900000000E+03 0.  0.
<mgrwt>
<rscale>  0 0.52663714E+03</rscale>
<asrwt>0</asrwt>
<pdfrwt beam="1">  1        2 0.23486608E-01 0.52663714E+03</pdfrwt>
<pdfrwt beam="2">  1       -2 0.60248550E-01 0.52663714E+03</pdfrwt>
<totfact> 0.60894594E+02</totfact>
</mgrwt>
</event>
<event>
 4    1  0.5069019E-005  0.4685336E+03  0.7818608E-02  0.1022335E+00
          2   -1    0    0  501    0  0.00000000000E+00  0.00000000000E+00  0.21884107332E+04  0.21884107332E+04  0.25500000000E-02 0.  1.
         -2   -1    0    0    0  501 -0.00000000000E+00 -0.00000000000E+00 -0.25077990026E+02  0.25077990156E+02  0.25500000000E-02 0. -1.
    5000001    1    1    2    0    0  0.78362298030E+02  0.43489935621E+02  0.67946533512E+03  0.71365689647E+03  0.19900000000E+03 0.  0.
   -5000001    1    1    2    0    0 -0.78362298030E+02 -0.43489935621E+02  0.14838674080E+04  0.14998318269E+04  0.19900000000E+03 0.  0.
<mgrwt>
<rscale>  0 0.46853364E+03</rscale>
<asrwt>0</asrwt>
<pdfrwt beam="1">  1        2 0.31263021E+00 0.46853364E+03</pdfrwt>
<pdfrwt beam="2">  1       -2 0.35825688E-02 0.46853364E+03</pdfrwt>
<totfact> 0.22957357E+03</totfact>
</mgrwt>
</event>
<event>
 4    1  0.5069019E-005  0.7173714E+03  0.7818608E-02  0.9687977E-01
          2   -1    0    0  501    0  0.00000000000E+00  0.00000000000E+00  0.46486415454E+03  0.46486415455E+03  0.25500000000E-02 0.  1.
         -2   -1    0    0    0  501 -0.00000000000E+00 -0.00000000000E+00 -0.27675921503E+03  0.27675921504E+03  0.25500000000E-02 0. -1.
    5000001    1    1    2    0    0 -0.19815543532E+03 -0.22216185666E+03  0.11556388324E+03  0.37626782777E+03  0.19900000000E+03 0.  0.
   -5000001    1    1    2    0    0  0.19815543532E+03  0.22216185666E+03  0.72541056267E+02  0.36535554183E+03  0.19900000000E+03 0.  0.
<mgrwt>
<rscale>  0 0.71737142E+03</rscale>
<asrwt>0</asrwt>
<pdfrwt beam="1">  1        2 0.66409165E-01 0.71737142E+03</pdfrwt>
<pdfrwt beam="2">  1       -2 0.39537031E-01 0.71737142E+03</pdfrwt>
<totfact> 0.44437084E+02</totfact>
</mgrwt>
</event>
<event>
 4    1  0.5069019E-005  0.5227810E+03  0.7818608E-02  0.1007998E+00
          2   -1    0    0  501    0  0.00000000000E+00  0.00000000000E+00  0.76377117514E+03  0.76377117514E+03  0.25500000000E-02 0.  1.
         -2   -1    0    0    0  501 -0.00000000000E+00 -0.00000000000E+00 -0.89457420191E+02  0.89457420227E+02  0.25500000000E-02 0. -1.
    5000001    1    1    2    0    0 -0.68139775611E+02  0.15253265523E+03  0.38374338785E+03  0.46343200974E+03  0.19900000000E+03 0.  0.
   -5000001    1    1    2    0    0  0.68139775611E+02 -0.15253265523E+03  0.29057036709E+03  0.38979658563E+03  0.19900000000E+03 0.  0.
<mgrwt>
<rscale>  0 0.52278102E+03</rscale>
<asrwt>0</asrwt>
<pdfrwt beam="1">  1        2 0.10911017E+00 0.52278102E+03</pdfrwt>
<pdfrwt beam="2">  1       -2 0.12779632E-01 0.52278102E+03</pdfrwt>
<totfact> 0.18482825E+03</totfact>
</mgrwt>
</event>
<event>
 4    1  0.5069019E-005  0.5224718E+03  0.7818608E-02  0.1008074E+00
         -2   -1    0    0    0  501 -0.00000000000E+00  0.00000000000E+00  0.82662342654E+03  0.82662342654E+03  0.25500000000E-02 0. -1.
          2   -1    0    0  501    0  0.00000000000E+00 -0.00000000000E+00 -0.82557765701E+02  0.82557765740E+02  0.25500000000E-02 0.  1.
    5000001    1    1    2    0    0  0.14343743574E+03  0.84983005240E+02  0.42267022996E+03  0.49603178572E+03  0.19900000000E+03 0.  0.
   -5000001    1    1    2    0    0 -0.14343743574E+03 -0.84983005240E+02  0.32139543088E+03  0.41314940656E+03  0.19900000000E+03 0.  0.
<mgrwt>
<rscale>  0 0.52247175E+03</rscale>
<asrwt>0</asrwt>
<pdfrwt beam="1">  1        2 0.11793966E-01 0.52247175E+03</pdfrwt>
<pdfrwt beam="2">  1       -2 0.11808907E+00 0.52247175E+03</pdfrwt>
<totfact> 0.30198126E+02</totfact>
</mgrwt>
</event>
<event>
 4    1  0.5069019E-005  0.8448770E+03  0.7818608E-02  0.9497239E-01
          2   -1    0    0  501    0  0.00000000000E+00  0.00000000000E+00  0.19989125935E+04  0.19989125935E+04  0.25500000000E-02 0.  1.
         -2   -1    0    0    0  501 -0.00000000000E+00 -0.00000000000E+00 -0.89275688019E+02  0.89275688055E+02  0.25500000000E-02 0. -1.
    5000001    1    1    2    0    0 -0.19055073261E+03  0.16185100293E+03  0.27189048954E+03  0.41956020683E+03  0.19900000000E+03 0.  0.
   -5000001    1    1    2    0    0  0.19055073261E+03 -0.16185100293E+03  0.16377464159E+04  0.16686280747E+04  0.19900000000E+03 0.  0.
<mgrwt>
<rscale>  0 0.84487703E+03</rscale>
<asrwt>0</asrwt>
<pdfrwt beam="1">  1        2 0.28555895E+00 0.84487703E+03</pdfrwt>
<pdfrwt beam="2">  1       -2 0.12753669E-01 0.84487703E+03</pdfrwt>
<totfact> 0.37447830E+02</totfact>
</mgrwt>
</event>
<event>
 4    1  0.5069019E-005  0.8693806E+03  0.7818608E-02  0.9464688E-01
         -2   -1    0    0    0  501 -0.00000000000E+00  0.00000000000E+00  0.11663991017E+03  0.11663991020E+03  0.25500000000E-02 0.  1.
          2   -1    0    0  501    0  0.00000000000E+00 -0.00000000000E+00 -0.16199914439E+04  0.16199914439E+04  0.25500000000E-02 0. -1.
    5000001    1    1    2    0    0  0.98962216824E+02 -0.37164390009E+03 -0.67582282215E+03  0.80265197674E+03  0.19900000000E+03 0.  0.
   -5000001    1    1    2    0    0 -0.98962216824E+02  0.37164390009E+03 -0.82752871161E+03  0.93397937738E+03  0.19900000000E+03 0.  0.
<mgrwt>
<rscale>  0 0.86938060E+03</rscale>
<asrwt>0</asrwt>
<pdfrwt beam="1">  1        2 0.23142733E+00 0.86938060E+03</pdfrwt>
<pdfrwt beam="2">  1       -2 0.16662845E-01 0.86938060E+03</pdfrwt>
<totfact> 0.37193459E+02</totfact>
</mgrwt>
</event>
<event>
 4    1  0.5069019E-005  0.8060647E+03  0.7818608E-02  0.9551280E-01
          2   -1    0    0  501    0  0.00000000000E+00  0.00000000000E+00  0.12745163772E+04  0.12745163772E+04  0.25500000000E-02 0.  1.
         -2   -1    0    0    0  501 -0.00000000000E+00 -0.00000000000E+00 -0.12744839955E+03  0.12744839957E+03  0.25500000000E-02 0. -1.
    5000001    1    1    2    0    0  0.32707199209E+03 -0.33096556813E+01  0.79248207466E+03  0.88012265082E+03  0.19900000000E+03 0.  0.
   -5000001    1    1    2    0    0 -0.32707199209E+03  0.33096556813E+01  0.35458590303E+03  0.52184212599E+03  0.19900000000E+03 0.  0.
<mgrwt>
<rscale>  0 0.80606469E+03</rscale>
<asrwt>0</asrwt>
<pdfrwt beam="1">  1        2 0.18207377E+00 0.80606469E+03</pdfrwt>
<pdfrwt beam="2">  1       -2 0.18206914E-01 0.80606469E+03</pdfrwt>
<totfact> 0.48966436E+02</totfact>
</mgrwt>
</event>
<event>
 4    1  0.5069019E-005  0.8721447E+03  0.7818608E-02  0.9461088E-01
          2   -1    0    0  501    0  0.00000000000E+00  0.00000000000E+00  0.30000371252E+03  0.30000371253E+03  0.25500000000E-02 0.  1.
         -2   -1    0    0    0  501 -0.00000000000E+00 -0.00000000000E+00 -0.63385580320E+03  0.63385580320E+03  0.25500000000E-02 0. -1.
    5000001    1    1    2    0    0 -0.15904868239E+02  0.36995432078E+03 -0.42796448008E+02  0.42255378387E+03  0.19900000000E+03 0.  0.
   -5000001    1    1    2    0    0  0.15904868239E+02 -0.36995432078E+03 -0.29105564267E+03  0.51130573186E+03  0.19900000000E+03 0.  0.
<mgrwt>
<rscale>  0 0.87214470E+03</rscale>
<asrwt>0</asrwt>
<pdfrwt beam="1">  1        2 0.42857674E-01 0.87214470E+03</pdfrwt>
<pdfrwt beam="2">  1       -2 0.90550828E-01 0.87214470E+03</pdfrwt>
<totfact> 0.12486851E+02</totfact>
</mgrwt>
</event>
<event>
 4    1  0.5069019E-005  0.5520203E+03  0.7818608E-02  0.1001027E+00
          2   -1    0    0  501    0  0.00000000000E+00  0.00000000000E+00  0.12645472887E+04  0.12645472887E+04  0.25500000000E-02 0.  1.
         -2   -1    0    0    0  501 -0.00000000000E+00 -0.00000000000E+00 -0.60244168105E+02  0.60244168159E+02  0.25500000000E-02 0. -1.
    5000001    1    1    2    0    0  0.10726599558E+03 -0.37610456552E+00  0.22212993526E+03  0.31693665519E+03  0.19900000000E+03 0.  0.
   -5000001    1    1    2    0    0 -0.10726599558E+03  0.37610456552E+00  0.98217318533E+03  0.10078548017E+04  0.19900000000E+03 0.  0.
<mgrwt>
<rscale>  0 0.55202029E+03</rscale>
<asrwt>0</asrwt>
<pdfrwt beam="1">  1        2 0.18064962E+00 0.55202029E+03</pdfrwt>
<pdfrwt beam="2">  1       -2 0.86063093E-02 0.55202029E+03</pdfrwt>
<totfact> 0.17349824E+03</totfact>
</mgrwt>
</event>
<event>
 4    1  0.5069019E-005  0.4634377E+03  0.7818608E-02  0.1023789E+00
          2   -1    0    0  501    0  0.00000000000E+00  0.00000000000E+00  0.34128221909E+03  0.34128221910E+03  0.25500000000E-02 0.  1.
         -2   -1    0    0    0  501 -0.00000000000E+00 -0.00000000000E+00 -0.15732911140E+03  0.15732911142E+03  0.25500000000E-02 0. -1.
    5000001    1    1    2    0    0  0.96174723895E+02  0.24694686586E+02  0.16197789426E+03  0.27513132008E+03  0.19900000000E+03 0.  0.
   -5000001    1    1    2    0    0 -0.96174723895E+02 -0.24694686586E+02  0.21975213434E+02  0.22348001044E+03  0.19900000000E+03 0.  0.
<mgrwt>
<rscale>  0 0.46343771E+03</rscale>
<asrwt>0</asrwt>
<pdfrwt beam="1">  1        2 0.48754602E-01 0.46343771E+03</pdfrwt>
<pdfrwt beam="2">  1       -2 0.22475588E-01 0.46343771E+03</pdfrwt>
<totfact> 0.17814456E+03</totfact>
</mgrwt>
</event>
<event>
 4    1  0.5069019E-005  0.4369842E+03  0.7818608E-02  0.1031676E+00
          2   -1    0    0  501    0  0.00000000000E+00  0.00000000000E+00  0.13168191736E+04  0.13168191736E+04  0.25500000000E-02 0.  1.
         -2   -1    0    0    0  501 -0.00000000000E+00 -0.00000000000E+00 -0.36253111031E+02  0.36253111121E+02  0.25500000000E-02 0. -1.
    5000001    1    1    2    0    0 -0.59692480102E+02  0.86346684085E+01  0.43257007870E+03  0.47995377139E+03  0.19900000000E+03 0.  0.
   -5000001    1    1    2    0    0  0.59692480102E+02 -0.86346684085E+01  0.84799598390E+03  0.87311851337E+03  0.19900000000E+03 0.  0.
<mgrwt>
<rscale>  0 0.43698417E+03</rscale>
<asrwt>0</asrwt>
<pdfrwt beam="1">  1        2 0.18811699E+00 0.43698417E+03</pdfrwt>
<pdfrwt beam="2">  1       -2 0.51790168E-02 0.43698417E+03</pdfrwt>
<totfact> 0.36107080E+03</totfact>
</mgrwt>
</event>
<event>
 4    1  0.5069019E-005  0.7065808E+03  0.7818608E-02  0.9706044E-01
         -2   -1    0    0    0  501 -0.00000000000E+00  0.00000000000E+00  0.13084863499E+03  0.13084863502E+03  0.25500000000E-02 0. -1.
          2   -1    0    0  501    0  0.00000000000E+00 -0.00000000000E+00 -0.95388164418E+03  0.95388164418E+03  0.25500000000E-02 0.  1.
    5000001    1    1    2    0    0  0.27939250344E+03 -0.12239198716E+02 -0.28304512316E+03  0.44488820023E+03  0.19900000000E+03 0.  0.
   -5000001    1    1    2    0    0 -0.27939250344E+03  0.12239198716E+02 -0.53998788602E+03  0.63984207897E+03  0.19900000000E+03 0.  0.
<mgrwt>
<rscale>  0 0.70658081E+03</rscale>
<asrwt>0</asrwt>
<pdfrwt beam="1">  1        2 0.13626880E+00 0.70658081E+03</pdfrwt>
<pdfrwt beam="2">  1       -2 0.18692663E-01 0.70658081E+03</pdfrwt>
<totfact> 0.72371799E+02</totfact>
</mgrwt>
</event>
<event>
 4    1  0.5069019E-005  0.5236089E+03  0.7818608E-02  0.1007794E+00
         -2   -1    0    0    0  501 -0.00000000000E+00  0.00000000000E+00  0.30704392040E+03  0.30704392041E+03  0.25500000000E-02 0. -1.
          2   -1    0    0  501    0  0.00000000000E+00 -0.00000000000E+00 -0.22323048344E+03  0.22323048345E+03  0.25500000000E-02 0.  1.
    5000001    1    1    2    0    0 -0.75178351782E+02 -0.54813815428E+02  0.18614245114E+03  0.28793462983E+03  0.19900000000E+03 0.  0.
   -5000001    1    1    2    0    0  0.75178351782E+02  0.54813815428E+02 -0.10232901418E+03  0.24233977404E+03  0.19900000000E+03 0.  0.
<mgrwt>
<rscale>  0 0.52360887E+03</rscale>
<asrwt>0</asrwt>
<pdfrwt beam="1">  1        2 0.31890069E-01 0.52360887E+03</pdfrwt>
<pdfrwt beam="2">  1       -2 0.43863417E-01 0.52360887E+03</pdfrwt>
<totfact> 0.82185317E+02</totfact>
</mgrwt>
</event>
<event>
 4    1  0.5069019E-005  0.4923042E+03  0.7818608E-02  0.1015807E+00
          2   -1    0    0  501    0  0.00000000000E+00  0.00000000000E+00  0.11925748069E+04  0.11925748069E+04  0.25500000000E-02 0.  1.
         -2   -1    0    0    0  501 -0.00000000000E+00 -0.00000000000E+00 -0.50806753336E+02  0.50806753400E+02  0.25500000000E-02 0. -1.
    5000001    1    1    2    0    0 -0.39693566814E+02 -0.13696957884E+03  0.50631414260E+03  0.56239777362E+03  0.19900000000E+03 0.  0.
   -5000001    1    1    2    0    0  0.39693566814E+02  0.13696957884E+03  0.63545391100E+03  0.68098378672E+03  0.19900000000E+03 0.  0.
<mgrwt>
<rscale>  0 0.49230419E+03</rscale>
<asrwt>0</asrwt>
<pdfrwt beam="1">  1        2 0.17036779E+00 0.49230419E+03</pdfrwt>
<pdfrwt beam="2">  1       -2 0.72581093E-02 0.49230419E+03</pdfrwt>
<totfact> 0.24940472E+03</totfact>
</mgrwt>
</event>
<event>
 4    1  0.5069019E-005  0.5398823E+03  0.7818608E-02  0.1003863E+00
          2   -1    0    0  501    0  0.00000000000E+00  0.00000000000E+00  0.75528547283E+03  0.75528547284E+03  0.25500000000E-02 0.  1.
         -2   -1    0    0    0  501 -0.00000000000E+00 -0.00000000000E+00 -0.96477708493E+02  0.96477708527E+02  0.25500000000E-02 0. -1.
    5000001    1    1    2    0    0  0.57088068100E+02  0.11226435631E+03  0.53754376679E+03  0.58687020237E+03  0.19900000000E+03 0.  0.
   -5000001    1    1    2    0    0 -0.57088068100E+02 -0.11226435631E+03  0.12126399755E+03  0.26489297899E+03  0.19900000000E+03 0.  0.
<mgrwt>
<rscale>  0 0.53988225E+03</rscale>
<asrwt>0</asrwt>
<pdfrwt beam="1">  1        2 0.10789793E+00 0.53988225E+03</pdfrwt>
<pdfrwt beam="2">  1       -2 0.13782529E-01 0.53988225E+03</pdfrwt>
<totfact> 0.16535034E+03</totfact>
</mgrwt>
</event>
<event>
 4    1  0.5069019E-005  0.4688422E+03  0.7818608E-02  0.1022248E+00
         -2   -1    0    0    0  501 -0.00000000000E+00  0.00000000000E+00  0.43789683909E+02  0.43789683983E+02  0.25500000000E-02 0. -1.
          2   -1    0    0  501    0  0.00000000000E+00 -0.00000000000E+00 -0.12549358755E+04  0.12549358755E+04  0.25500000000E-02 0.  1.
    5000001    1    1    2    0    0 -0.96078746738E+02 -0.20386155631E+02 -0.81481010551E+03  0.84448992235E+03  0.19900000000E+03 0.  0.
   -5000001    1    1    2    0    0  0.96078746738E+02  0.20386155631E+02 -0.39633608613E+03  0.45423563718E+03  0.19900000000E+03 0.  0.
<mgrwt>
<rscale>  0 0.46884217E+03</rscale>
<asrwt>0</asrwt>
<pdfrwt beam="1">  1        2 0.17927653E+00 0.46884217E+03</pdfrwt>
<pdfrwt beam="2">  1       -2 0.62556699E-02 0.46884217E+03</pdfrwt>
<totfact> 0.29093986E+03</totfact>
</mgrwt>
</event>
<event>
 4    1  0.5069019E-005  0.1042600E+04  0.7818608E-02  0.9263018E-01
         -2   -1    0    0    0  501 -0.00000000000E+00  0.00000000000E+00  0.62045720144E+03  0.62045720144E+03  0.25500000000E-02 0. -1.
          2   -1    0    0  501    0  0.00000000000E+00 -0.00000000000E+00 -0.43798905890E+03  0.43798905890E+03  0.25500000000E-02 0.  1.
    5000001    1    1    2    0    0 -0.23297918834E+03 -0.41034137523E+03 -0.76794678827E+01  0.51217118296E+03  0.19900000000E+03 0.  0.
   -5000001    1    1    2    0    0  0.23297918834E+03  0.41034137523E+03  0.19014761042E+03  0.54627507739E+03  0.19900000000E+03 0.  0.
<mgrwt>
<rscale>  0 0.10425996E+04</rscale>
<asrwt>0</asrwt>
<pdfrwt beam="1">  1        2 0.62569865E-01 0.10425996E+04</pdfrwt>
<pdfrwt beam="2">  1       -2 0.88636743E-01 0.10425996E+04</pdfrwt>
<totfact> 0.85223808E+01</totfact>
</mgrwt>
</event>
<event>
 4    1  0.5069019E-005  0.4752078E+03  0.7818608E-02  0.1020461E+00
         -2   -1    0    0    0  501 -0.00000000000E+00  0.00000000000E+00  0.31217517264E+02  0.31217517368E+02  0.25500000000E-02 0. -1.
          2   -1    0    0  501    0  0.00000000000E+00 -0.00000000000E+00 -0.18084596480E+04  0.18084596480E+04  0.25500000000E-02 0.  1.
    5000001    1    1    2    0    0  0.70068353880E+02 -0.86372654857E+02 -0.62936430712E+03  0.66938049031E+03  0.19900000000E+03 0.  0.
   -5000001    1    1    2    0    0 -0.70068353880E+02  0.86372654857E+02 -0.11478778236E+04  0.11702966751E+04  0.19900000000E+03 0.  0.
<mgrwt>
<rscale>  0 0.47520783E+03</rscale>
<asrwt>0</asrwt>
<pdfrwt beam="1">  1        2 0.25835131E+00 0.47520783E+03</pdfrwt>
<pdfrwt beam="2">  1       -2 0.44596465E-02 0.47520783E+03</pdfrwt>
<totfact> 0.25407115E+03</totfact>
</mgrwt>
</event>
<event>
 4    1  0.5069019E-005  0.5820102E+03  0.7818608E-02  0.9943448E-01
          2   -1    0    0  501    0  0.00000000000E+00  0.00000000000E+00  0.73796461048E+03  0.73796461048E+03  0.25500000000E-02 0.  1.
         -2   -1    0    0    0  501 -0.00000000000E+00 -0.00000000000E+00 -0.11475343000E+03  0.11475343003E+03  0.25500000000E-02 0. -1.
    5000001    1    1    2    0    0  0.13677897209E+02  0.19177349051E+03  0.17959124097E+03  0.32987599241E+03  0.19900000000E+03 0.  0.
   -5000001    1    1    2    0    0 -0.13677897209E+02 -0.19177349051E+03  0.44361993951E+03  0.52284204810E+03  0.19900000000E+03 0.  0.
<mgrwt>
<rscale>  0 0.58201021E+03</rscale>
<asrwt>0</asrwt>
<pdfrwt beam="1">  1        2 0.10542352E+00 0.58201021E+03</pdfrwt>
<pdfrwt beam="2">  1       -2 0.16393347E-01 0.58201021E+03</pdfrwt>
<totfact> 0.12709221E+03</totfact>
</mgrwt>
</event>
<event>
 4    1  0.5069019E-005  0.5776209E+03  0.7818608E-02  0.9952955E-01
         -2   -1    0    0    0  501 -0.00000000000E+00  0.00000000000E+00  0.43490526095E+02  0.43490526170E+02  0.25500000000E-02 0. -1.
          2   -1    0    0  501    0  0.00000000000E+00 -0.00000000000E+00 -0.19179225902E+04  0.19179225902E+04  0.25500000000E-02 0.  1.
    5000001    1    1    2    0    0 -0.41271412392E+02 -0.20420125196E+03 -0.10058877917E+04  0.10463329920E+04  0.19900000000E+03 0.  0.
   -5000001    1    1    2    0    0  0.41271412392E+02  0.20420125196E+03 -0.86854427241E+03  0.91508012432E+03  0.19900000000E+03 0.  0.
<mgrwt>
<rscale>  0 0.57762085E+03</rscale>
<asrwt>0</asrwt>
<pdfrwt beam="1">  1        2 0.27398889E+00 0.57762085E+03</pdfrwt>
<pdfrwt beam="2">  1       -2 0.62129335E-02 0.57762085E+03</pdfrwt>
<totfact> 0.13336249E+03</totfact>
</mgrwt>
</event>
<event>
 4    1  0.5069019E-005  0.6574145E+03  0.7818608E-02  0.9792965E-01
         -2   -1    0    0    0  501 -0.00000000000E+00  0.00000000000E+00  0.11357806819E+03  0.11357806822E+03  0.25500000000E-02 0. -1.
          2   -1    0    0  501    0  0.00000000000E+00 -0.00000000000E+00 -0.95131433069E+03  0.95131433070E+03  0.25500000000E-02 0.  1.
    5000001    1    1    2    0    0  0.16360820001E+03  0.20170710138E+03 -0.46993858674E+03  0.57262262719E+03  0.19900000000E+03 0.  0.
   -5000001    1    1    2    0    0 -0.16360820001E+03 -0.20170710138E+03 -0.36779767576E+03  0.49226977173E+03  0.19900000000E+03 0.  0.
<mgrwt>
<rscale>  0 0.65741446E+03</rscale>
<asrwt>0</asrwt>
<pdfrwt beam="1">  1        2 0.13590204E+00 0.65741446E+03</pdfrwt>
<pdfrwt beam="2">  1       -2 0.16225439E-01 0.65741446E+03</pdfrwt>
<totfact> 0.92745382E+02</totfact>
</mgrwt>
</event>
<event>
 4    1  0.5069019E-005  0.7856658E+03  0.7818608E-02  0.9581000E-01
          2   -1    0    0  501    0  0.00000000000E+00  0.00000000000E+00  0.88458054919E+03  0.88458054919E+03  0.25500000000E-02 0.  1.
         -2   -1    0    0    0  501 -0.00000000000E+00 -0.00000000000E+00 -0.17445293210E+03  0.17445293212E+03  0.25500000000E-02 0. -1.
    5000001    1    1    2    0    0 -0.13386353985E+03  0.29982276169E+03  0.46706112679E+03  0.60461577211E+03  0.19900000000E+03 0.  0.
   -5000001    1    1    2    0    0  0.13386353985E+03 -0.29982276169E+03  0.24306649030E+03  0.45441770920E+03  0.19900000000E+03 0.  0.
<mgrwt>
<rscale>  0 0.78566576E+03</rscale>
<asrwt>0</asrwt>
<pdfrwt beam="1">  1        2 0.12636865E+00 0.78566576E+03</pdfrwt>
<pdfrwt beam="2">  1       -2 0.24921847E-01 0.78566576E+03</pdfrwt>
<totfact> 0.48110606E+02</totfact>
</mgrwt>
</event>
<event>
 4    1  0.5069019E-005  0.4896784E+03  0.7818608E-02  0.1016509E+00
         -2   -1    0    0    0  501 -0.00000000000E+00  0.00000000000E+00  0.22925895024E+02  0.22925895165E+02  0.25500000000E-02 0. -1.
          2   -1    0    0  501    0  0.00000000000E+00 -0.00000000000E+00 -0.26147829167E+04  0.26147829167E+04  0.25500000000E-02 0.  1.
    5000001    1    1    2    0    0  0.46157314981E+02 -0.80067056575E+02 -0.71069306192E+03  0.74379221529E+03  0.19900000000E+03 0.  0.
   -5000001    1    1    2    0    0 -0.46157314981E+02  0.80067056575E+02 -0.18811639597E+04  0.18939165965E+04  0.19900000000E+03 0.  0.
<mgrwt>
<rscale>  0 0.48967842E+03</rscale>
<asrwt>0</asrwt>
<pdfrwt beam="1">  1        2 0.37354023E+00 0.48967842E+03</pdfrwt>
<pdfrwt beam="2">  1       -2 0.32751295E-02 0.48967842E+03</pdfrwt>
<totfact> 0.15989166E+03</totfact>
</mgrwt>
</event>
<event>
 4    1  0.5069019E-005  0.5672275E+03  0.7818608E-02  0.9975833E-01
          2   -1    0    0  501    0  0.00000000000E+00  0.00000000000E+00  0.10041367860E+04  0.10041367860E+04  0.25500000000E-02 0.  1.
         -2   -1    0    0    0  501 -0.00000000000E+00 -0.00000000000E+00 -0.80105371926E+02  0.80105371967E+02  0.25500000000E-02 0. -1.
    5000001    1    1    2    0    0  0.93609070358E+02  0.17885755566E+03  0.47943716531E+03  0.55696829241E+03  0.19900000000E+03 0.  0.
   -5000001    1    1    2    0    0 -0.93609070358E+02 -0.17885755566E+03  0.44459424878E+03  0.52727386557E+03  0.19900000000E+03 0.  0.
<mgrwt>
<rscale>  0 0.56722747E+03</rscale>
<asrwt>0</asrwt>
<pdfrwt beam="1">  1        2 0.14344810E+00 0.56722747E+03</pdfrwt>
<pdfrwt beam="2">  1       -2 0.11443626E-01 0.56722747E+03</pdfrwt>
<totfact> 0.15433215E+03</totfact>
</mgrwt>
</event>
<event>
 4    1  0.5069019E-005  0.7251777E+03  0.7818608E-02  0.9675118E-01
         -2   -1    0    0    0  501 -0.00000000000E+00  0.00000000000E+00  0.10340128177E+03  0.10340128181E+03  0.25500000000E-02 0. -1.
          2   -1    0    0  501    0  0.00000000000E+00 -0.00000000000E+00 -0.12714607202E+04  0.12714607202E+04  0.25500000000E-02 0.  1.
    5000001    1    1    2    0    0 -0.81711772755E+02 -0.29079715774E+03 -0.53644809474E+03  0.64700645987E+03  0.19900000000E+03 0.  0.
   -5000001    1    1    2    0    0  0.81711772755E+02  0.29079715774E+03 -0.63161134367E+03  0.72785554213E+03  0.19900000000E+03 0.  0.
<mgrwt>
<rscale>  0 0.72517768E+03</rscale>
<asrwt>0</asrwt>
<pdfrwt beam="1">  1        2 0.18163724E+00 0.72517768E+03</pdfrwt>
<pdfrwt beam="2">  1       -2 0.14771612E-01 0.72517768E+03</pdfrwt>
<totfact> 0.70502743E+02</totfact>
</mgrwt>
</event>
<event>
 4    1  0.5069019E-005  0.5848882E+03  0.7818608E-02  0.9937264E-01
          2   -1    0    0  501    0  0.00000000000E+00  0.00000000000E+00  0.16986847416E+03  0.16986847417E+03  0.25500000000E-02 0.  1.
         -2   -1    0    0    0  501 -0.00000000000E+00 -0.00000000000E+00 -0.50346930866E+03  0.50346930867E+03  0.25500000000E-02 0. -1.
    5000001    1    1    2    0    0 -0.17524928695E+03 -0.97212118836E+02 -0.25417264249E+03  0.37995689336E+03  0.19900000000E+03 0.  0.
   -5000001    1    1    2    0    0  0.17524928695E+03  0.97212118836E+02 -0.79428192022E+02  0.29338088948E+03  0.19900000000E+03 0.  0.
<mgrwt>
<rscale>  0 0.58488824E+03</rscale>
<asrwt>0</asrwt>
<pdfrwt beam="1">  1        2 0.24266925E-01 0.58488824E+03</pdfrwt>
<pdfrwt beam="2">  1       -2 0.71924186E-01 0.58488824E+03</pdfrwt>
<totfact> 0.40106005E+02</totfact>
</mgrwt>
</event>
<event>
 4    1  0.5069019E-005  0.6883893E+03  0.7818608E-02  0.9737297E-01
          2   -1    0    0  501    0  0.00000000000E+00  0.00000000000E+00  0.79605154279E+03  0.79605154279E+03  0.25500000000E-02 0.  1.
         -2   -1    0    0    0  501 -0.00000000000E+00 -0.00000000000E+00 -0.14882196220E+03  0.14882196222E+03  0.25500000000E-02 0. -1.
    5000001    1    1    2    0    0  0.64805946420E+02 -0.27325560685E+03  0.32460004738E+03  0.47311164446E+03  0.19900000000E+03 0.  0.
   -5000001    1    1    2    0    0 -0.64805946420E+02  0.27325560685E+03  0.32262953321E+03  0.47176186055E+03  0.19900000000E+03 0.  0.
<mgrwt>
<rscale>  0 0.68838929E+03</rscale>
<asrwt>0</asrwt>
<pdfrwt beam="1">  1        2 0.11372165E+00 0.68838929E+03</pdfrwt>
<pdfrwt beam="2">  1       -2 0.21260280E-01 0.68838929E+03</pdfrwt>
<totfact> 0.73539660E+02</totfact>
</mgrwt>
</event>
<event>
 4    1  0.5069019E-005  0.8400637E+03  0.7818608E-02  0.9503771E-01
         -2   -1    0    0    0  501 -0.00000000000E+00  0.00000000000E+00  0.66036465853E+02  0.66036465902E+02  0.25500000000E-02 0. -1.
          2   -1    0    0  501    0  0.00000000000E+00 -0.00000000000E+00 -0.26716566413E+04  0.26716566413E+04  0.25500000000E-02 0.  1.
    5000001    1    1    2    0    0 -0.11424918749E+03 -0.29118704860E+03 -0.19462531155E+04  0.19812483347E+04  0.19900000000E+03 0.  0.
   -5000001    1    1    2    0    0  0.11424918749E+03  0.29118704860E+03 -0.65936705988E+03  0.75644477245E+03  0.19900000000E+03 0.  0.
<mgrwt>
<rscale>  0 0.84006372E+03</rscale>
<asrwt>0</asrwt>
<pdfrwt beam="1">  1        2 0.38166517E+00 0.84006372E+03</pdfrwt>
<pdfrwt beam="2">  1       -2 0.94337825E-02 0.84006372E+03</pdfrwt>
<totfact> 0.27732432E+02</totfact>
</mgrwt>
</event>
<event>
 4    1  0.5069019E-005  0.4604371E+03  0.7818608E-02  0.1024655E+00
         -2   -1    0    0    0  501 -0.00000000000E+00  0.00000000000E+00  0.10957723948E+03  0.10957723951E+03  0.25500000000E-02 0. -1.
          2   -1    0    0  501    0  0.00000000000E+00 -0.00000000000E+00 -0.48368247759E+03  0.48368247759E+03  0.25500000000E-02 0.  1.
    5000001    1    1    2    0    0 -0.76676148356E+02  0.82054925490E+02 -0.15089848872E+03  0.27383132841E+03  0.19900000000E+03 0.  0.
   -5000001    1    1    2    0    0  0.76676148356E+02 -0.82054925490E+02 -0.22320674939E+03  0.31942838869E+03  0.19900000000E+03 0.  0.
<mgrwt>
<rscale>  0 0.46043714E+03</rscale>
<asrwt>0</asrwt>
<pdfrwt beam="1">  1        2 0.69097496E-01 0.46043714E+03</pdfrwt>
<pdfrwt beam="2">  1       -2 0.15653892E-01 0.46043714E+03</pdfrwt>
<totfact> 0.22554866E+03</totfact>
</mgrwt>
</event>
<event>
 4    1  0.5069019E-005  0.6449456E+03  0.7818608E-02  0.9816310E-01
          2   -1    0    0  501    0  0.00000000000E+00  0.00000000000E+00  0.21396299276E+04  0.21396299276E+04  0.25500000000E-02 0.  1.
         -2   -1    0    0    0  501 -0.00000000000E+00 -0.00000000000E+00 -0.48601255345E+02  0.48601255412E+02  0.25500000000E-02 0. -1.
    5000001    1    1    2    0    0 -0.20870202033E+02  0.19984416079E+03  0.51973147814E+03  0.59168831601E+03  0.19900000000E+03 0.  0.
   -5000001    1    1    2    0    0  0.20870202033E+02 -0.19984416079E+03  0.15712971941E+04  0.15965428670E+04  0.19900000000E+03 0.  0.
<mgrwt>
<rscale>  0 0.64494558E+03</rscale>
<asrwt>0</asrwt>
<pdfrwt beam="1">  1        2 0.30566146E+00 0.64494558E+03</pdfrwt>
<pdfrwt beam="2">  1       -2 0.69430354E-02 0.64494558E+03</pdfrwt>
<totfact> 0.86290299E+02</totfact>
</mgrwt>
</event>
<event>
 4    1  0.5069019E-005  0.1310564E+04  0.7818608E-02  0.9021229E-01
         -2   -1    0    0    0  501 -0.00000000000E+00  0.00000000000E+00  0.11785241139E+04  0.11785241139E+04  0.25500000000E-02 0. -1.
          2   -1    0    0  501    0  0.00000000000E+00 -0.00000000000E+00 -0.36434949334E+03  0.36434949335E+03  0.25500000000E-02 0.  1.
    5000001    1    1    2    0    0 -0.35557382099E+03 -0.50124623819E+03  0.27751857249E+03  0.70306336240E+03  0.19900000000E+03 0.  0.
   -5000001    1    1    2    0    0  0.35557382099E+03  0.50124623819E+03  0.53665604810E+03  0.83981024489E+03  0.19900000000E+03 0.  0.
<mgrwt>
<rscale>  0 0.13105643E+04</rscale>
<asrwt>0</asrwt>
<pdfrwt beam="1">  1        2 0.52049928E-01 0.13105643E+04</pdfrwt>
<pdfrwt beam="2">  1       -2 0.16836059E+00 0.13105643E+04</pdfrwt>
<totfact> 0.20597938E+01</totfact>
</mgrwt>
</event>
<event>
 4    1  0.5069019E-005  0.5162448E+03  0.7818608E-02  0.1009624E+00
          2   -1    0    0  501    0  0.00000000000E+00  0.00000000000E+00  0.16224163801E+03  0.16224163803E+03  0.25500000000E-02 0.  1.
         -2   -1    0    0    0  501 -0.00000000000E+00 -0.00000000000E+00 -0.41066624625E+03  0.41066624626E+03  0.25500000000E-02 0. -1.
    5000001    1    1    2    0    0 -0.12972103432E+03 -0.93900776333E+02 -0.16545691014E+03  0.30433844919E+03  0.19900000000E+03 0.  0.
   -5000001    1    1    2    0    0  0.12972103432E+03  0.93900776333E+02 -0.82967698093E+02  0.26856943510E+03  0.19900000000E+03 0.  0.
<mgrwt>
<rscale>  0 0.51624477E+03</rscale>
<asrwt>0</asrwt>
<pdfrwt beam="1">  1        2 0.23177377E-01 0.51624477E+03</pdfrwt>
<pdfrwt beam="2">  1       -2 0.58666606E-01 0.51624477E+03</pdfrwt>
<totfact> 0.65373892E+02</totfact>
</mgrwt>
</event>
<event>
 4    1  0.5069019E-005  0.1266463E+04  0.7818608E-02  0.9056592E-01
          2   -1    0    0  501    0  0.00000000000E+00  0.00000000000E+00  0.51066531692E+03  0.51066531692E+03  0.25500000000E-02 0.  1.
         -2   -1    0    0    0  501 -0.00000000000E+00 -0.00000000000E+00 -0.78521454626E+03  0.78521454626E+03  0.25500000000E-02 0. -1.
    5000001    1    1    2    0    0 -0.19217826306E+03 -0.53407747363E+03  0.65338995947E+02  0.60501356764E+03  0.19900000000E+03 0.  0.
   -5000001    1    1    2    0    0  0.19217826306E+03  0.53407747363E+03 -0.33988822528E+03  0.69086629555E+03  0.19900000000E+03 0.  0.
<mgrwt>
<rscale>  0 0.12664625E+04</rscale>
<asrwt>0</asrwt>
<pdfrwt beam="1">  1        2 0.72952188E-01 0.12664625E+04</pdfrwt>
<pdfrwt beam="2">  1       -2 0.11217351E+00 0.12664625E+04</pdfrwt>
<totfact> 0.40383459E+01</totfact>
</mgrwt>
</event>
<event>
 4    1  0.5069019E-005  0.6150320E+03  0.7818608E-02  0.9874701E-01
         -2   -1    0    0    0  501 -0.00000000000E+00  0.00000000000E+00  0.92605050251E+02  0.92605050286E+02  0.25500000000E-02 0. -1.
          2   -1    0    0  501    0  0.00000000000E+00 -0.00000000000E+00 -0.10211763210E+04  0.10211763210E+04  0.25500000000E-02 0.  1.
    5000001    1    1    2    0    0 -0.20500952085E+01  0.14859797549E+03 -0.79265679499E+03  0.83065718311E+03  0.19900000000E+03 0.  0.
   -5000001    1    1    2    0    0  0.20500952085E+01 -0.14859797549E+03 -0.13591447575E+03  0.28312418817E+03  0.19900000000E+03 0.  0.
<mgrwt>
<rscale>  0 0.61503198E+03</rscale>
<asrwt>0</asrwt>
<pdfrwt beam="1">  1        2 0.14588233E+00 0.61503198E+03</pdfrwt>
<pdfrwt beam="2">  1       -2 0.13229293E-01 0.61503198E+03</pdfrwt>
<totfact> 0.11853782E+03</totfact>
</mgrwt>
</event>
<event>
 4    1  0.5069019E-005  0.5674063E+03  0.7818608E-02  0.9975435E-01
          2   -1    0    0  501    0  0.00000000000E+00  0.00000000000E+00  0.76962513854E+03  0.76962513855E+03  0.25500000000E-02 0.  1.
         -2   -1    0    0    0  501 -0.00000000000E+00 -0.00000000000E+00 -0.10458009976E+03  0.10458009979E+03  0.25500000000E-02 0. -1.
    5000001    1    1    2    0    0 -0.16741106502E+03 -0.93579635787E+02  0.23383490407E+03  0.36202676045E+03  0.19900000000E+03 0.  0.
   -5000001    1    1    2    0    0  0.16741106502E+03  0.93579635787E+02  0.43121013472E+03  0.51217847788E+03  0.19900000000E+03 0.  0.
<mgrwt>
<rscale>  0 0.56740629E+03</rscale>
<asrwt>0</asrwt>
<pdfrwt beam="1">  1        2 0.10994645E+00 0.56740629E+03</pdfrwt>
<pdfrwt beam="2">  1       -2 0.14940015E-01 0.56740629E+03</pdfrwt>
<totfact> 0.14109082E+03</totfact>
</mgrwt>
</event>
<event>
 4    1  0.5069019E-005  0.4842045E+03  0.7818608E-02  0.1017986E+00
         -2   -1    0    0    0  501 -0.00000000000E+00  0.00000000000E+00  0.11841774515E+04  0.11841774515E+04  0.25500000000E-02 0. -1.
          2   -1    0    0  501    0  0.00000000000E+00 -0.00000000000E+00 -0.49497219664E+02  0.49497219730E+02  0.25500000000E-02 0.  1.
    5000001    1    1    2    0    0 -0.99463461946E+02  0.92926987739E+02  0.62339754710E+03  0.66839651932E+03  0.19900000000E+03 0.  0.
   -5000001    1    1    2    0    0  0.99463461946E+02 -0.92926987739E+02  0.51128268471E+03  0.56527815188E+03  0.19900000000E+03 0.  0.
<mgrwt>
<rscale>  0 0.48420447E+03</rscale>
<asrwt>0</asrwt>
<pdfrwt beam="1">  1        2 0.70710314E-02 0.48420447E+03</pdfrwt>
<pdfrwt beam="2">  1       -2 0.16916821E+00 0.48420447E+03</pdfrwt>
<totfact> 0.22964008E+02</totfact>
</mgrwt>
</event>
<event>
 4    1  0.5069019E-005  0.4564955E+03  0.7818608E-02  0.1025803E+00
          2   -1    0    0  501    0  0.00000000000E+00  0.00000000000E+00  0.15613996882E+04  0.15613996882E+04  0.25500000000E-02 0.  1.
         -2   -1    0    0    0  501 -0.00000000000E+00 -0.00000000000E+00 -0.33365591986E+02  0.33365592084E+02  0.25500000000E-02 0. -1.
    5000001    1    1    2    0    0  0.78071569204E+02 -0.52256424567E+02  0.55237570141E+03  0.59459719082E+03  0.19900000000E+03 0.  0.
   -5000001    1    1    2    0    0 -0.78071569204E+02  0.52256424567E+02  0.97565839478E+03  0.10001680894E+04  0.19900000000E+03 0.  0.
<mgrwt>
<rscale>  0 0.45649545E+03</rscale>
<asrwt>0</asrwt>
<pdfrwt beam="1">  1        2 0.22305714E+00 0.45649545E+03</pdfrwt>
<pdfrwt beam="2">  1       -2 0.47665122E-02 0.45649545E+03</pdfrwt>
<totfact> 0.30582842E+03</totfact>
</mgrwt>
</event>
<event>
 4    1  0.5069019E-005  0.5701053E+03  0.7818608E-02  0.9969446E-01
         -2   -1    0    0    0  501 -0.00000000000E+00  0.00000000000E+00  0.11930751659E+03  0.11930751662E+03  0.25500000000E-02 0. -1.
          2   -1    0    0  501    0  0.00000000000E+00 -0.00000000000E+00 -0.68105536014E+03  0.68105536014E+03  0.25500000000E-02 0.  1.
    5000001    1    1    2    0    0 -0.18904193062E+03 -0.34695565282E+02 -0.37725649439E+03  0.46782913156E+03  0.19900000000E+03 0.  0.
   -5000001    1    1    2    0    0  0.18904193062E+03  0.34695565282E+02 -0.18449134916E+03  0.33253374520E+03  0.19900000000E+03 0.  0.
<mgrwt>
<rscale>  0 0.57010534E+03</rscale>
<asrwt>0</asrwt>
<pdfrwt beam="1">  1        2 0.97293621E-01 0.57010534E+03</pdfrwt>
<pdfrwt beam="2">  1       -2 0.17043931E-01 0.57010534E+03</pdfrwt>
<totfact> 0.13126888E+03</totfact>
</mgrwt>
</event>
<event>
 4    1  0.5069019E-005  0.5571071E+03  0.7818608E-02  0.9998622E-01
         -2   -1    0    0    0  501 -0.00000000000E+00  0.00000000000E+00  0.18602938926E+03  0.18602938927E+03  0.25500000000E-02 0. -1.
          2   -1    0    0  501    0  0.00000000000E+00 -0.00000000000E+00 -0.41709575201E+03  0.41709575201E+03  0.25500000000E-02 0.  1.
    5000001    1    1    2    0    0 -0.73010832055E+02 -0.17372764640E+03 -0.16943752875E+03  0.32221414132E+03  0.19900000000E+03 0.  0.
   -5000001    1    1    2    0    0  0.73010832055E+02  0.17372764640E+03 -0.61628834001E+02  0.28091099996E+03  0.19900000000E+03 0.  0.
<mgrwt>
<rscale>  0 0.55710706E+03</rscale>
<asrwt>0</asrwt>
<pdfrwt beam="1">  1        2 0.59585107E-01 0.55710706E+03</pdfrwt>
<pdfrwt beam="2">  1       -2 0.26575627E-01 0.55710706E+03</pdfrwt>
<totfact> 0.10593710E+03</totfact>
</mgrwt>
</event>
<event>
 4    1  0.5069019E-005  0.8982508E+03  0.7818608E-02  0.9427771E-01
          2   -1    0    0  501    0  0.00000000000E+00  0.00000000000E+00  0.12279279093E+04  0.12279279093E+04  0.25500000000E-02 0. -1.
         -2   -1    0    0    0  501 -0.00000000000E+00 -0.00000000000E+00 -0.16427153775E+03  0.16427153777E+03  0.25500000000E-02 0.  1.
    5000001    1    1    2    0    0 -0.33928873915E+03  0.18478098036E+03  0.70753351877E+03  0.83034061649E+03  0.19900000000E+03 0.  0.
   -5000001    1    1    2    0    0  0.33928873915E+03 -0.18478098036E+03  0.35612285277E+03  0.56185883057E+03  0.19900000000E+03 0.  0.
<mgrwt>
<rscale>  0 0.89825076E+03</rscale>
<asrwt>0</asrwt>
<pdfrwt beam="1">  1        2 0.17541828E+00 0.89825076E+03</pdfrwt>
<pdfrwt beam="2">  1       -2 0.23467361E-01 0.89825076E+03</pdfrwt>
<totfact> 0.33110503E+02</totfact>
</mgrwt>
</event>
<event>
 4    1  0.5069019E-005  0.5142739E+03  0.7818608E-02  0.1010119E+00
          2   -1    0    0  501    0  0.00000000000E+00  0.00000000000E+00  0.29020605214E+04  0.29020605214E+04  0.25500000000E-02 0.  1.
         -2   -1    0    0    0  501 -0.00000000000E+00 -0.00000000000E+00 -0.22783612874E+02  0.22783613016E+02  0.25500000000E-02 0. -1.
    5000001    1    1    2    0    0  0.13205697639E+03 -0.80989384223E+02  0.17251455738E+04  0.17434811659E+04  0.19900000000E+03 0.  0.
   -5000001    1    1    2    0    0 -0.13205697639E+03  0.80989384223E+02  0.11541313348E+04  0.11813629685E+04  0.19900000000E+03 0.  0.
<mgrwt>
<rscale>  0 0.51427395E+03</rscale>
<asrwt>0</asrwt>
<pdfrwt beam="1">  1        2 0.41458026E+00 0.51427395E+03</pdfrwt>
<pdfrwt beam="2">  1       -2 0.32548004E-02 0.51427395E+03</pdfrwt>
<totfact> 0.11390433E+03</totfact>
</mgrwt>
</event>
<event>
 4    1  0.5069019E-005  0.4033436E+03  0.7818608E-02  0.1042628E+00
          2   -1    0    0  501    0  0.00000000000E+00  0.00000000000E+00  0.39279553925E+04  0.39279553925E+04  0.25500000000E-02 0.  1.
         -2   -1    0    0    0  501 -0.00000000000E+00 -0.00000000000E+00 -0.10354374874E+02  0.10354375188E+02  0.25500000000E-02 0. -1.
    5000001    1    1    2    0    0  0.30538952286E+02 -0.83193075320E+01  0.20397221805E+04  0.20496510464E+04  0.19900000000E+03 0.  0.
   -5000001    1    1    2    0    0 -0.30538952286E+02  0.83193075320E+01  0.18778788371E+04  0.18886587212E+04  0.19900000000E+03 0.  0.
<mgrwt>
<rscale>  0 0.40334364E+03</rscale>
<asrwt>0</asrwt>
<pdfrwt beam="1">  1        2 0.56113602E+00 0.40334364E+03</pdfrwt>
<pdfrwt beam="2">  1       -2 0.14791977E-02 0.40334364E+03</pdfrwt>
<totfact> 0.94808156E+02</totfact>
</mgrwt>
</event>
<event>
 4    1  0.5069019E-005  0.8031455E+03  0.7818608E-02  0.9555475E-01
         -2   -1    0    0    0  501 -0.00000000000E+00  0.00000000000E+00  0.34262416148E+03  0.34262416149E+03  0.25500000000E-02 0. -1.
          2   -1    0    0  501    0  0.00000000000E+00 -0.00000000000E+00 -0.47066350327E+03  0.47066350328E+03  0.25500000000E-02 0.  1.
    5000001    1    1    2    0    0 -0.18912056751E+03 -0.78261012959E+02  0.22197974019E+03  0.36161772670E+03  0.19900000000E+03 0.  0.
   -5000001    1    1    2    0    0  0.18912056751E+03  0.78261012959E+02 -0.35001908198E+03  0.45166993807E+03  0.19900000000E+03 0.  0.
<mgrwt>
<rscale>  0 0.80314554E+03</rscale>
<asrwt>0</asrwt>
<pdfrwt beam="1">  1        2 0.67237643E-01 0.80314554E+03</pdfrwt>
<pdfrwt beam="2">  1       -2 0.48946309E-01 0.80314554E+03</pdfrwt>
<totfact> 0.28610583E+02</totfact>
</mgrwt>
</event>
<event>
 4    1  0.5069019E-005  0.5911465E+03  0.7818608E-02  0.9923946E-01
          2   -1    0    0  501    0  0.00000000000E+00  0.00000000000E+00  0.28762212011E+04  0.28762212011E+04  0.25500000000E-02 0. -1.
         -2   -1    0    0    0  501 -0.00000000000E+00 -0.00000000000E+00 -0.30374420627E+02  0.30374420734E+02  0.25500000000E-02 0.  1.
    5000001    1    1    2    0    0  0.16893043530E+03 -0.27072012797E+02  0.20915495714E+04  0.21079494765E+04  0.19900000000E+03 0.  0.
   -5000001    1    1    2    0    0 -0.16893043530E+03  0.27072012797E+02  0.75429720913E+03  0.79864614539E+03  0.19900000000E+03 0.  0.
<mgrwt>
<rscale>  0 0.59114652E+03</rscale>
<asrwt>0</asrwt>
<pdfrwt beam="1">  1        2 0.41088871E+00 0.59114652E+03</pdfrwt>
<pdfrwt beam="2">  1       -2 0.43392033E-02 0.59114652E+03</pdfrwt>
<totfact> 0.75221133E+02</totfact>
</mgrwt>
</event>
<event>
 4    1  0.5069019E-005  0.8493325E+03  0.7818608E-02  0.9491233E-01
         -2   -1    0    0    0  501 -0.00000000000E+00  0.00000000000E+00  0.82563273275E+02  0.82563273314E+02  0.25500000000E-02 0. -1.
          2   -1    0    0  501    0  0.00000000000E+00 -0.00000000000E+00 -0.21842815761E+04  0.21842815761E+04  0.25500000000E-02 0.  1.
    5000001    1    1    2    0    0 -0.20634547304E+02 -0.32733575005E+03 -0.15369196382E+04  0.15840762141E+04  0.19900000000E+03 0.  0.
   -5000001    1    1    2    0    0  0.20634547304E+02  0.32733575005E+03 -0.56479866463E+03  0.68276863532E+03  0.19900000000E+03 0.  0.
<mgrwt>
<rscale>  0 0.84933253E+03</rscale>
<asrwt>0</asrwt>
<pdfrwt beam="1">  1        2 0.31204019E+00 0.84933253E+03</pdfrwt>
<pdfrwt beam="2">  1       -2 0.11794755E-01 0.84933253E+03</pdfrwt>
<totfact> 0.34312086E+02</totfact>
</mgrwt>
</event>
<event>
 4    1  0.5069019E-005  0.1290750E+04  0.7818608E-02  0.9036933E-01
          2   -1    0    0  501    0  0.00000000000E+00  0.00000000000E+00  0.20084201769E+04  0.20084201769E+04  0.25500000000E-02 0.  1.
         -2   -1    0    0    0  501 -0.00000000000E+00 -0.00000000000E+00 -0.20738128291E+03  0.20738128293E+03  0.25500000000E-02 0. -1.
    5000001    1    1    2    0    0 -0.43692939902E+03 -0.31262575016E+03  0.39050261977E+03  0.69335088912E+03  0.19900000000E+03 0.  0.
   -5000001    1    1    2    0    0  0.43692939902E+03  0.31262575016E+03  0.14105362742E+04  0.15224505707E+04  0.19900000000E+03 0.  0.
<mgrwt>
<rscale>  0 0.12907498E+04</rscale>
<asrwt>0</asrwt>
<pdfrwt beam="1">  1        2 0.28691717E+00 0.12907498E+04</pdfrwt>
<pdfrwt beam="2">  1       -2 0.29625897E-01 0.12907498E+04</pdfrwt>
<totfact> 0.81837137E+01</totfact>
</mgrwt>
</event>
<event>
 4    1  0.5069019E-005  0.6250082E+03  0.7818608E-02  0.9854839E-01
          2   -1    0    0  501    0  0.00000000000E+00  0.00000000000E+00  0.13767085404E+04  0.13767085404E+04  0.25500000000E-02 0.  1.
         -2   -1    0    0    0  501 -0.00000000000E+00 -0.00000000000E+00 -0.70936438489E+02  0.70936438535E+02  0.25500000000E-02 0. -1.
    5000001    1    1    2    0    0 -0.11772192109E+03 -0.18990492094E+03  0.86180014049E+03  0.91226246873E+03  0.19900000000E+03 0.  0.
   -5000001    1    1    2    0    0  0.11772192109E+03  0.18990492094E+03  0.44397196139E+03  0.53538251018E+03  0.19900000000E+03 0.  0.
<mgrwt>
<rscale>  0 0.62500816E+03</rscale>
<asrwt>0</asrwt>
<pdfrwt beam="1">  1        2 0.19667267E+00 0.62500816E+03</pdfrwt>
<pdfrwt beam="2">  1       -2 0.10133776E-01 0.62500816E+03</pdfrwt>
<totfact> 0.11571882E+03</totfact>
</mgrwt>
</event>
<event>
 4    1  0.5069019E-005  0.6230446E+03  0.7818608E-02  0.9858717E-01
         -2   -1    0    0    0  501 -0.00000000000E+00  0.00000000000E+00  0.30447367829E+02  0.30447367936E+02  0.25500000000E-02 0. -1.
          2   -1    0    0  501    0  0.00000000000E+00 -0.00000000000E+00 -0.31873408934E+04  0.31873408934E+04  0.25500000000E-02 0.  1.
    5000001    1    1    2    0    0 -0.17250824838E+03 -0.13125697110E+03 -0.21065945159E+04  0.21270470005E+04  0.19900000000E+03 0.  0.
   -5000001    1    1    2    0    0  0.17250824838E+03  0.13125697110E+03 -0.10502990097E+04  0.10907412608E+04  0.19900000000E+03 0.  0.
<mgrwt>
<rscale>  0 0.62304459E+03</rscale>
<asrwt>0</asrwt>
<pdfrwt beam="1">  1        2 0.45533420E+00 0.62304459E+03</pdfrwt>
<pdfrwt beam="2">  1       -2 0.43496260E-02 0.62304459E+03</pdfrwt>
<totfact> 0.50488332E+02</totfact>
</mgrwt>
</event>
<event>
 4    1  0.5069019E-005  0.6573466E+03  0.7818608E-02  0.9793091E-01
          2   -1    0    0  501    0  0.00000000000E+00  0.00000000000E+00  0.48657658854E+03  0.48657658854E+03  0.25500000000E-02 0.  1.
         -2   -1    0    0    0  501 -0.00000000000E+00 -0.00000000000E+00 -0.22201261642E+03  0.22201261643E+03  0.25500000000E-02 0. -1.
    5000001    1    1    2    0    0 -0.20253265688E+03  0.15685464895E+03  0.18934518837E+03  0.37560013094E+03  0.19900000000E+03 0.  0.
   -5000001    1    1    2    0    0  0.20253265688E+03 -0.15685464895E+03  0.75218783753E+02  0.33298907404E+03  0.19900000000E+03 0.  0.
<mgrwt>
<rscale>  0 0.65734661E+03</rscale>
<asrwt>0</asrwt>
<pdfrwt beam="1">  1        2 0.69510942E-01 0.65734661E+03</pdfrwt>
<pdfrwt beam="2">  1       -2 0.31716088E-01 0.65734661E+03</pdfrwt>
<totfact> 0.64287897E+02</totfact>
</mgrwt>
</event>
<event>
 4    1  0.5069019E-005  0.4226026E+03  0.7818608E-02  0.1036223E+00
         -2   -1    0    0    0  501 -0.00000000000E+00  0.00000000000E+00  0.27990017404E+02  0.27990017520E+02  0.25500000000E-02 0. -1.
          2   -1    0    0  501    0  0.00000000000E+00 -0.00000000000E+00 -0.15951489032E+04  0.15951489032E+04  0.25500000000E-02 0.  1.
    5000001    1    1    2    0    0  0.64073540266E+02  0.94666555942E+01 -0.89570295407E+03  0.91982597162E+03  0.19900000000E+03 0.  0.
   -5000001    1    1    2    0    0 -0.64073540266E+02 -0.94666555942E+01 -0.67145593174E+03  0.70331294912E+03  0.19900000000E+03 0.  0.
<mgrwt>
<rscale>  0 0.42260263E+03</rscale>
<asrwt>0</asrwt>
<pdfrwt beam="1">  1        2 0.22787836E+00 0.42260263E+03</pdfrwt>
<pdfrwt beam="2">  1       -2 0.39985749E-02 0.42260263E+03</pdfrwt>
<totfact> 0.38473515E+03</totfact>
</mgrwt>
</event>
<event>
 4    1  0.5069019E-005  0.9203624E+03  0.7818608E-02  0.9400479E-01
         -2   -1    0    0    0  501 -0.00000000000E+00  0.00000000000E+00  0.22930552337E+03  0.22930552338E+03  0.25500000000E-02 0. -1.
          2   -1    0    0  501    0  0.00000000000E+00 -0.00000000000E+00 -0.92351349989E+03  0.92351349990E+03  0.25500000000E-02 0.  1.
    5000001    1    1    2    0    0 -0.62733927324E+02 -0.30840280058E+03 -0.84048035709E+01  0.37245063266E+03  0.19900000000E+03 0.  0.
   -5000001    1    1    2    0    0  0.62733927324E+02  0.30840280058E+03 -0.68580317296E+03  0.78036839062E+03  0.19900000000E+03 0.  0.
<mgrwt>
<rscale>  0 0.92036242E+03</rscale>
<asrwt>0</asrwt>
<pdfrwt beam="1">  1        2 0.13193050E+00 0.92036242E+03</pdfrwt>
<pdfrwt beam="2">  1       -2 0.32757932E-01 0.92036242E+03</pdfrwt>
<totfact> 0.27260873E+02</totfact>
</mgrwt>
</event>
<event>
 4    1  0.5069019E-005  0.4534648E+03  0.7818608E-02  0.1026694E+00
         -2   -1    0    0    0  501 -0.00000000000E+00  0.00000000000E+00  0.58300618145E+02  0.58300618201E+02  0.25500000000E-02 0. -1.
          2   -1    0    0  501    0  0.00000000000E+00 -0.00000000000E+00 -0.88176727573E+03  0.88176727573E+03  0.25500000000E-02 0.  1.
    5000001    1    1    2    0    0 -0.14420047560E+02 -0.80660254795E+02 -0.55967272863E+03  0.59962369670E+03  0.19900000000E+03 0.  0.
   -5000001    1    1    2    0    0  0.14420047560E+02  0.80660254795E+02 -0.26379392895E+03  0.34044419723E+03  0.19900000000E+03 0.  0.
<mgrwt>
<rscale>  0 0.45346478E+03</rscale>
<asrwt>0</asrwt>
<pdfrwt beam="1">  1        2 0.12596675E+00 0.45346478E+03</pdfrwt>
<pdfrwt beam="2">  1       -2 0.83286602E-02 0.45346478E+03</pdfrwt>
<totfact> 0.30726725E+03</totfact>
</mgrwt>
</event>
<event>
 4    1  0.5069019E-005  0.6921416E+03  0.7818608E-02  0.9730766E-01
          2   -1    0    0  501    0  0.00000000000E+00  0.00000000000E+00  0.19059342990E+03  0.19059342992E+03  0.25500000000E-02 0.  1.
         -2   -1    0    0    0  501 -0.00000000000E+00 -0.00000000000E+00 -0.62837939206E+03  0.62837939206E+03  0.25500000000E-02 0. -1.
    5000001    1    1    2    0    0  0.62730748805E+02  0.12937506347E+03 -0.50749538379E+03  0.56376024910E+03  0.19900000000E+03 0.  0.
   -5000001    1    1    2    0    0 -0.62730748805E+02 -0.12937506347E+03  0.69709421637E+02  0.25521257289E+03  0.19900000000E+03 0.  0.
<mgrwt>
<rscale>  0 0.69214156E+03</rscale>
<asrwt>0</asrwt>
<pdfrwt beam="1">  1        2 0.27227633E-01 0.69214156E+03</pdfrwt>
<pdfrwt beam="2">  1       -2 0.89768484E-01 0.69214156E+03</pdfrwt>
<totfact> 0.21334956E+02</totfact>
</mgrwt>
</event>
<event>
 4    1  0.5069019E-005  0.8198972E+03  0.7818608E-02  0.9531655E-01
         -2   -1    0    0    0  501 -0.00000000000E+00  0.00000000000E+00  0.22068565446E+03  0.22068565447E+03  0.25500000000E-02 0. -1.
          2   -1    0    0  501    0  0.00000000000E+00 -0.00000000000E+00 -0.76152590810E+03  0.76152590810E+03  0.25500000000E-02 0.  1.
    5000001    1    1    2    0    0  0.88760133808E+02  0.33111156032E+03 -0.39574177275E+03  0.56011229002E+03  0.19900000000E+03 0.  0.
   -5000001    1    1    2    0    0 -0.88760133808E+02 -0.33111156032E+03 -0.14509848090E+03  0.42209927255E+03  0.19900000000E+03 0.  0.
<mgrwt>
<rscale>  0 0.81989717E+03</rscale>
<asrwt>0</asrwt>
<pdfrwt beam="1">  1        2 0.10878941E+00 0.81989717E+03</pdfrwt>
<pdfrwt beam="2">  1       -2 0.31526523E-01 0.81989717E+03</pdfrwt>
<totfact> 0.37922485E+02</totfact>
</mgrwt>
</event>
<event>
 4    1  0.5069019E-005  0.5419014E+03  0.7818608E-02  0.1003386E+00
          2   -1    0    0  501    0  0.00000000000E+00  0.00000000000E+00  0.54123339174E+03  0.54123339175E+03  0.25500000000E-02 0.  1.
         -2   -1    0    0    0  501 -0.00000000000E+00 -0.00000000000E+00 -0.13564254073E+03  0.13564254076E+03  0.25500000000E-02 0. -1.
    5000001    1    1    2    0    0  0.18312214876E+03  0.16225030353E+02  0.20783826205E+03  0.34145968451E+03  0.19900000000E+03 0.  0.
   -5000001    1    1    2    0    0 -0.18312214876E+03 -0.16225030353E+02  0.19775258896E+03  0.33541624799E+03  0.19900000000E+03 0.  0.
<mgrwt>
<rscale>  0 0.54190137E+03</rscale>
<asrwt>0</asrwt>
<pdfrwt beam="1">  1        2 0.77319057E-01 0.54190137E+03</pdfrwt>
<pdfrwt beam="2">  1       -2 0.19377506E-01 0.54190137E+03</pdfrwt>
<totfact> 0.13805689E+03</totfact>
</mgrwt>
</event>
<event>
 4    1  0.5069019E-005  0.6158079E+03  0.7818608E-02  0.9873142E-01
          2   -1    0    0  501    0  0.00000000000E+00  0.00000000000E+00  0.14289110697E+03  0.14289110699E+03  0.25500000000E-02 0.  1.
         -2   -1    0    0    0  501 -0.00000000000E+00 -0.00000000000E+00 -0.66347608910E+03  0.66347608910E+03  0.25500000000E-02 0. -1.
    5000001    1    1    2    0    0  0.10042128883E+03 -0.21233485422E+03 -0.25273535753E+03  0.39830476587E+03  0.19900000000E+03 0.  0.
   -5000001    1    1    2    0    0 -0.10042128883E+03  0.21233485422E+03 -0.26784962460E+03  0.40806243023E+03  0.19900000000E+03 0.  0.
<mgrwt>
<rscale>  0 0.61580787E+03</rscale>
<asrwt>0</asrwt>
<pdfrwt beam="1">  1        2 0.20413016E-01 0.61580787E+03</pdfrwt>
<pdfrwt beam="2">  1       -2 0.94782297E-01 0.61580787E+03</pdfrwt>
<totfact> 0.26282930E+02</totfact>
</mgrwt>
</event>
<event>
 4    1  0.5069019E-005  0.6376958E+03  0.7818608E-02  0.9830145E-01
          2   -1    0    0  501    0  0.00000000000E+00  0.00000000000E+00  0.52003675496E+03  0.52003675496E+03  0.25500000000E-02 0.  1.
         -2   -1    0    0    0  501 -0.00000000000E+00 -0.00000000000E+00 -0.19549384780E+03  0.19549384782E+03  0.25500000000E-02 0. -1.
    5000001    1    1    2    0    0  0.18671094489E+03 -0.80839829400E+02  0.32357824318E+03  0.43092915244E+03  0.19900000000E+03 0.  0.
   -5000001    1    1    2    0    0 -0.18671094489E+03  0.80839829400E+02  0.96466397110E+00  0.28460145034E+03  0.19900000000E+03 0.  0.
<mgrwt>
<rscale>  0 0.63769581E+03</rscale>
<asrwt>0</asrwt>
<pdfrwt beam="1">  1        2 0.74290964E-01 0.63769581E+03</pdfrwt>
<pdfrwt beam="2">  1       -2 0.27927693E-01 0.63769581E+03</pdfrwt>
<totfact> 0.75402523E+02</totfact>
</mgrwt>
</event>
<event>
 4    1  0.5069019E-005  0.4623455E+03  0.7818608E-02  0.1024103E+00
         -2   -1    0    0    0  501 -0.00000000000E+00  0.00000000000E+00  0.28484535245E+02  0.28484535359E+02  0.25500000000E-02 0. -1.
          2   -1    0    0  501    0  0.00000000000E+00 -0.00000000000E+00 -0.18761351510E+04  0.18761351510E+04  0.25500000000E-02 0.  1.
    5000001    1    1    2    0    0  0.11800704825E+02 -0.10174292678E+03 -0.68543065806E+03  0.72104581462E+03  0.19900000000E+03 0.  0.
   -5000001    1    1    2    0    0 -0.11800704825E+02  0.10174292678E+03 -0.11622199577E+04  0.11835738718E+04  0.19900000000E+03 0.  0.
<mgrwt>
<rscale>  0 0.46234549E+03</rscale>
<asrwt>0</asrwt>
<pdfrwt beam="1">  1        2 0.26801923E+00 0.46234549E+03</pdfrwt>
<pdfrwt beam="2">  1       -2 0.40692205E-02 0.46234549E+03</pdfrwt>
<totfact> 0.27054331E+03</totfact>
</mgrwt>
</event>
<event>
 4    1  0.5069019E-005  0.5250546E+03  0.7818608E-02  0.1007439E+00
         -2   -1    0    0    0  501 -0.00000000000E+00  0.00000000000E+00  0.84769574063E+02  0.84769574102E+02  0.25500000000E-02 0. -1.
          2   -1    0    0  501    0  0.00000000000E+00 -0.00000000000E+00 -0.81303454594E+03  0.81303454595E+03  0.25500000000E-02 0.  1.
    5000001    1    1    2    0    0 -0.87478505760E+02 -0.14101216908E+03 -0.43632842075E+03  0.50746468996E+03  0.19900000000E+03 0.  0.
   -5000001    1    1    2    0    0  0.87478505760E+02  0.14101216908E+03 -0.29193655113E+03  0.39033943009E+03  0.19900000000E+03 0.  0.
<mgrwt>
<rscale>  0 0.52505463E+03</rscale>
<asrwt>0</asrwt>
<pdfrwt beam="1">  1        2 0.11614779E+00 0.52505463E+03</pdfrwt>
<pdfrwt beam="2">  1       -2 0.12109940E-01 0.52505463E+03</pdfrwt>
<totfact> 0.18660687E+03</totfact>
</mgrwt>
</event>
<event>
 4    1  0.5069019E-005  0.7664001E+03  0.7818608E-02  0.9609967E-01
         -2   -1    0    0    0  501 -0.00000000000E+00  0.00000000000E+00  0.19419038455E+03  0.19419038457E+03  0.25500000000E-02 0. -1.
          2   -1    0    0  501    0  0.00000000000E+00 -0.00000000000E+00 -0.75617695490E+03  0.75617695490E+03  0.25500000000E-02 0.  1.
    5000001    1    1    2    0    0  0.88895999137E+02 -0.31199747220E+03 -0.22558729765E+03  0.44242010599E+03  0.19900000000E+03 0.  0.
   -5000001    1    1    2    0    0 -0.88895999137E+02  0.31199747220E+03 -0.33639927269E+03  0.50794723347E+03  0.19900000000E+03 0.  0.
<mgrwt>
<rscale>  0 0.76640014E+03</rscale>
<asrwt>0</asrwt>
<pdfrwt beam="1">  1        2 0.10802528E+00 0.76640014E+03</pdfrwt>
<pdfrwt beam="2">  1       -2 0.27741484E-01 0.76640014E+03</pdfrwt>
<totfact> 0.48580612E+02</totfact>
</mgrwt>
</event>
<event>
 4    1  0.5069019E-005  0.8229212E+03  0.7818608E-02  0.9527420E-01
         -2   -1    0    0    0  501 -0.00000000000E+00  0.00000000000E+00  0.12992166060E+03  0.12992166062E+03  0.25500000000E-02 0. -1.
          2   -1    0    0  501    0  0.00000000000E+00 -0.00000000000E+00 -0.13030917541E+04  0.13030917541E+04  0.25500000000E-02 0.  1.
    5000001    1    1    2    0    0 -0.22085310411E+03  0.25130087787E+03 -0.81872145909E+03  0.90655063422E+03  0.19900000000E+03 0.  0.
   -5000001    1    1    2    0    0  0.22085310411E+03 -0.25130087787E+03 -0.35444863437E+03  0.52646278048E+03  0.19900000000E+03 0.  0.
<mgrwt>
<rscale>  0 0.82292125E+03</rscale>
<asrwt>0</asrwt>
<pdfrwt beam="1">  1        2 0.18615596E+00 0.82292125E+03</pdfrwt>
<pdfrwt beam="2">  1       -2 0.18560238E-01 0.82292125E+03</pdfrwt>
<totfact> 0.45640143E+02</totfact>
</mgrwt>
</event>
<event>
 4    1  0.5069019E-005  0.4166177E+03  0.7818608E-02  0.1038173E+00
          2   -1    0    0  501    0  0.00000000000E+00  0.00000000000E+00  0.20992514937E+04  0.20992514937E+04  0.25500000000E-02 0.  1.
         -2   -1    0    0    0  501 -0.00000000000E+00 -0.00000000000E+00 -0.20670502298E+02  0.20670502455E+02  0.25500000000E-02 0. -1.
    5000001    1    1    2    0    0 -0.53853725730E+02  0.13071056201E+02  0.90270608023E+03  0.92604014144E+03  0.19900000000E+03 0.  0.
   -5000001    1    1    2    0    0  0.53853725730E+02 -0.13071056201E+02  0.11758749112E+04  0.11938818547E+04  0.19900000000E+03 0.  0.
<mgrwt>
<rscale>  0 0.41661773E+03</rscale>
<asrwt>0</asrwt>
<pdfrwt beam="1">  1        2 0.29989286E+00 0.41661773E+03</pdfrwt>
<pdfrwt beam="2">  1       -2 0.29529310E-02 0.41661773E+03</pdfrwt>
<totfact> 0.34129742E+03</totfact>
</mgrwt>
</event>
<event>
 4    1  0.5069019E-005  0.7816680E+03  0.7818608E-02  0.9586938E-01
          2   -1    0    0  501    0  0.00000000000E+00  0.00000000000E+00  0.17933757729E+04  0.17933757729E+04  0.25500000000E-02 0.  1.
         -2   -1    0    0    0  501 -0.00000000000E+00 -0.00000000000E+00 -0.85175239000E+02  0.85175239038E+02  0.25500000000E-02 0. -1.
    5000001    1    1    2    0    0  0.23543310726E+03  0.23002242563E+03  0.68740436326E+03  0.78769589494E+03  0.19900000000E+03 0.  0.
   -5000001    1    1    2    0    0 -0.23543310726E+03 -0.23002242563E+03  0.10207961707E+04  0.10908551170E+04  0.19900000000E+03 0.  0.
<mgrwt>
<rscale>  0 0.78166799E+03</rscale>
<asrwt>0</asrwt>
<pdfrwt beam="1">  1        2 0.25619654E+00 0.78166799E+03</pdfrwt>
<pdfrwt beam="2">  1       -2 0.12167891E-01 0.78166799E+03</pdfrwt>
<totfact> 0.51705325E+02</totfact>
</mgrwt>
</event>
<event>
 4    1  0.5069019E-005  0.8826936E+03  0.7818608E-02  0.9447478E-01
         -2   -1    0    0    0  501 -0.00000000000E+00  0.00000000000E+00  0.60414757252E+02  0.60414757305E+02  0.25500000000E-02 0. -1.
          2   -1    0    0  501    0  0.00000000000E+00 -0.00000000000E+00 -0.32241625040E+04  0.32241625040E+04  0.25500000000E-02 0.  1.
    5000001    1    1    2    0    0 -0.17208796067E+03 -0.34330595620E+03 -0.19086679049E+04  0.19570609130E+04  0.19900000000E+03 0.  0.
   -5000001    1    1    2    0    0  0.17208796067E+03  0.34330595620E+03 -0.12550798419E+04  0.13275163484E+04  0.19900000000E+03 0.  0.
<mgrwt>
<rscale>  0 0.88269359E+03</rscale>
<asrwt>0</asrwt>
<pdfrwt beam="1">  1        2 0.46059453E+00 0.88269359E+03</pdfrwt>
<pdfrwt beam="2">  1       -2 0.86306817E-02 0.88269359E+03</pdfrwt>
<totfact> 0.15915038E+02</totfact>
</mgrwt>
</event>
<event>
 4    1  0.5069019E-005  0.4361127E+03  0.7818608E-02  0.1031946E+00
         -2   -1    0    0    0  501 -0.00000000000E+00  0.00000000000E+00  0.77595977213E+02  0.77595977255E+02  0.25500000000E-02 0. -1.
          2   -1    0    0  501    0  0.00000000000E+00 -0.00000000000E+00 -0.61277095768E+03  0.61277095768E+03  0.25500000000E-02 0.  1.
    5000001    1    1    2    0    0 -0.82323204323E+02  0.33126970535E+02 -0.28111776700E+03  0.35567218765E+03  0.19900000000E+03 0.  0.
   -5000001    1    1    2    0    0  0.82323204323E+02 -0.33126970535E+02 -0.25405721346E+03  0.33469474728E+03  0.19900000000E+03 0.  0.
<mgrwt>
<rscale>  0 0.43611265E+03</rscale>
<asrwt>0</asrwt>
<pdfrwt beam="1">  1        2 0.87538706E-01 0.43611265E+03</pdfrwt>
<pdfrwt beam="2">  1       -2 0.11085140E-01 0.43611265E+03</pdfrwt>
<totfact> 0.30401622E+03</totfact>
</mgrwt>
</event>
<event>
 4    1  0.5069019E-005  0.5003008E+03  0.7818608E-02  0.1013700E+00
          2   -1    0    0  501    0  0.00000000000E+00  0.00000000000E+00  0.17832810338E+04  0.17832810338E+04  0.25500000000E-02 0.  1.
         -2   -1    0    0    0  501 -0.00000000000E+00 -0.00000000000E+00 -0.35089934432E+02  0.35089934524E+02  0.25500000000E-02 0. -1.
    5000001    1    1    2    0    0 -0.32025496295E+02 -0.12264564153E+03  0.11761494014E+04  0.11995815938E+04  0.19900000000E+03 0.  0.
   -5000001    1    1    2    0    0  0.32025496295E+02  0.12264564153E+03  0.57204169798E+03  0.61878937453E+03  0.19900000000E+03 0.  0.
<mgrwt>
<rscale>  0 0.50030077E+03</rscale>
<asrwt>0</asrwt>
<pdfrwt beam="1">  1        2 0.25475453E+00 0.50030077E+03</pdfrwt>
<pdfrwt beam="2">  1       -2 0.50128459E-02 0.50030077E+03</pdfrwt>
<totfact> 0.21829512E+03</totfact>
</mgrwt>
</event>
<event>
 4    1  0.5069019E-005  0.5512090E+03  0.7818608E-02  0.1001214E+00
          2   -1    0    0  501    0  0.00000000000E+00  0.00000000000E+00  0.55184898124E+03  0.55184898124E+03  0.25500000000E-02 0.  1.
         -2   -1    0    0    0  501 -0.00000000000E+00 -0.00000000000E+00 -0.13764242313E+03  0.13764242315E+03  0.25500000000E-02 0. -1.
    5000001    1    1    2    0    0  0.10442970911E+03  0.99408197329E+02  0.51023440156E+02  0.25098196207E+03  0.19900000000E+03 0.  0.
   -5000001    1    1    2    0    0 -0.10442970911E+03 -0.99408197329E+02  0.36318311795E+03  0.43850944232E+03  0.19900000000E+03 0.  0.
<mgrwt>
<rscale>  0 0.55120897E+03</rscale>
<asrwt>0</asrwt>
<pdfrwt beam="1">  1        2 0.78835567E-01 0.55120897E+03</pdfrwt>
<pdfrwt beam="2">  1       -2 0.19663204E-01 0.55120897E+03</pdfrwt>
<totfact> 0.13161866E+03</totfact>
</mgrwt>
</event>
<event>
 4    1  0.5069019E-005  0.6425426E+03  0.7818608E-02  0.9820874E-01
         -2   -1    0    0    0  501 -0.00000000000E+00  0.00000000000E+00  0.14192690449E+03  0.14192690452E+03  0.25500000000E-02 0. -1.
          2   -1    0    0  501    0  0.00000000000E+00 -0.00000000000E+00 -0.72724224776E+03  0.72724224776E+03  0.25500000000E-02 0.  1.
    5000001    1    1    2    0    0 -0.21170445366E+03 -0.13681009510E+03 -0.28067550152E+03  0.42651555069E+03  0.19900000000E+03 0.  0.
   -5000001    1    1    2    0    0  0.21170445366E+03  0.13681009510E+03 -0.30463984174E+03  0.44265360159E+03  0.19900000000E+03 0.  0.
<mgrwt>
<rscale>  0 0.64254258E+03</rscale>
<asrwt>0</asrwt>
<pdfrwt beam="1">  1        2 0.10389175E+00 0.64254258E+03</pdfrwt>
<pdfrwt beam="2">  1       -2 0.20275272E-01 0.64254258E+03</pdfrwt>
<totfact> 0.89662926E+02</totfact>
</mgrwt>
</event>
<event>
 4    1  0.5069019E-005  0.7256788E+03  0.7818608E-02  0.9674299E-01
          2   -1    0    0  501    0  0.00000000000E+00  0.00000000000E+00  0.20561578288E+04  0.20561578288E+04  0.25500000000E-02 0.  1.
         -2   -1    0    0    0  501 -0.00000000000E+00 -0.00000000000E+00 -0.64028360045E+02  0.64028360096E+02  0.25500000000E-02 0. -1.
    5000001    1    1    2    0    0  0.10541054427E+03  0.27121910569E+03  0.12470593891E+04  0.12959279710E+04  0.19900000000E+03 0.  0.
   -5000001    1    1    2    0    0 -0.10541054427E+03 -0.27121910569E+03  0.74507007966E+03  0.82425821788E+03  0.19900000000E+03 0.  0.
<mgrwt>
<rscale>  0 0.72567875E+03</rscale>
<asrwt>0</asrwt>
<pdfrwt beam="1">  1        2 0.29373684E+00 0.72567875E+03</pdfrwt>
<pdfrwt beam="2">  1       -2 0.91469083E-02 0.72567875E+03</pdfrwt>
<totfact> 0.60887264E+02</totfact>
</mgrwt>
</event>
<event>
 4    1  0.5069019E-005  0.6399509E+03  0.7818608E-02  0.9825820E-01
          2   -1    0    0  501    0  0.00000000000E+00  0.00000000000E+00  0.41030062762E+04  0.41030062762E+04  0.25500000000E-02 0.  1.
         -2   -1    0    0    0  501 -0.00000000000E+00 -0.00000000000E+00 -0.24953481408E+02  0.24953481539E+02  0.25500000000E-02 0. -1.
    5000001    1    1    2    0    0  0.24260483906E+03 -0.42253371243E+02  0.23374825067E+04  0.23588276590E+04  0.19900000000E+03 0.  0.
   -5000001    1    1    2    0    0 -0.24260483906E+03  0.42253371243E+02  0.17405702880E+04  0.17691320988E+04  0.19900000000E+03 0.  0.
<mgrwt>
<rscale>  0 0.63995091E+03</rscale>
<asrwt>0</asrwt>
<pdfrwt beam="1">  1        2 0.58614397E+00 0.63995091E+03</pdfrwt>
<pdfrwt beam="2">  1       -2 0.35647817E-02 0.63995091E+03</pdfrwt>
<totfact> 0.18637130E+02</totfact>
</mgrwt>
</event>
<event>
 4    1  0.5069019E-005  0.5487672E+03  0.7818608E-02  0.1001780E+00
         -2   -1    0    0    0  501 -0.00000000000E+00  0.00000000000E+00  0.74752355575E+02  0.74752355618E+02  0.25500000000E-02 0. -1.
          2   -1    0    0  501    0  0.00000000000E+00 -0.00000000000E+00 -0.10071437887E+04  0.10071437887E+04  0.25500000000E-02 0.  1.
    5000001    1    1    2    0    0  0.12310925071E+03 -0.13968572576E+03 -0.52907958005E+03  0.59514216084E+03  0.19900000000E+03 0.  0.
   -5000001    1    1    2    0    0 -0.12310925071E+03  0.13968572576E+03 -0.40331185304E+03  0.48675398344E+03  0.19900000000E+03 0.  0.
<mgrwt>
<rscale>  0 0.54876724E+03</rscale>
<asrwt>0</asrwt>
<pdfrwt beam="1">  1        2 0.14387768E+00 0.54876724E+03</pdfrwt>
<pdfrwt beam="2">  1       -2 0.10678909E-01 0.54876724E+03</pdfrwt>
<totfact> 0.17209103E+03</totfact>
</mgrwt>
</event>
<event>
 4    1  0.5069019E-005  0.6850711E+03  0.7818608E-02  0.9743109E-01
          2   -1    0    0  501    0  0.00000000000E+00  0.00000000000E+00  0.24445931209E+04  0.24445931209E+04  0.25500000000E-02 0. -1.
         -2   -1    0    0    0  501 -0.00000000000E+00 -0.00000000000E+00 -0.47995959070E+02  0.47995959138E+02  0.25500000000E-02 0.  1.
    5000001    1    1    2    0    0  0.11024268445E+03  0.21799876431E+03  0.70943699386E+03  0.77625946627E+03  0.19900000000E+03 0.  0.
   -5000001    1    1    2    0    0 -0.11024268445E+03 -0.21799876431E+03  0.16871601680E+04  0.17163296138E+04  0.19900000000E+03 0.  0.
<mgrwt>
<rscale>  0 0.68507107E+03</rscale>
<asrwt>0</asrwt>
<pdfrwt beam="1">  1        2 0.34922762E+00 0.68507107E+03</pdfrwt>
<pdfrwt beam="2">  1       -2 0.68565650E-02 0.68507107E+03</pdfrwt>
<totfact> 0.61443538E+02</totfact>
</mgrwt>
</event>
<event>
 4    1  0.5069019E-005  0.1511076E+04  0.7818608E-02  0.8877121E-01
          2   -1    0    0  501    0  0.00000000000E+00  0.00000000000E+00  0.73328915715E+03  0.73328915715E+03  0.25500000000E-02 0.  1.
         -2   -1    0    0    0  501 -0.00000000000E+00 -0.00000000000E+00 -0.77846195195E+03  0.77846195195E+03  0.25500000000E-02 0. -1.
    5000001    1    1    2    0    0  0.35612141218E+03  0.38285234883E+03 -0.53059107450E+03  0.77105529604E+03  0.19900000000E+03 0.  0.
   -5000001    1    1    2    0    0 -0.35612141218E+03 -0.38285234883E+03  0.48541827970E+03  0.74069581306E+03  0.19900000000E+03 0.  0.
<mgrwt>
<rscale>  0 0.15110761E+04</rscale>
<asrwt>0</asrwt>
<pdfrwt beam="1">  1        2 0.10475559E+00 0.15110761E+04</pdfrwt>
<pdfrwt beam="2">  1       -2 0.11120885E+00 0.15110761E+04</pdfrwt>
<totfact> 0.26290848E+01</totfact>
</mgrwt>
</event>
<event>
 4    1  0.5069019E-005  0.4825771E+03  0.7818608E-02  0.1018429E+00
         -2   -1    0    0    0  501 -0.00000000000E+00  0.00000000000E+00  0.18547748151E+03  0.18547748153E+03  0.25500000000E-02 0. -1.
          2   -1    0    0  501    0  0.00000000000E+00 -0.00000000000E+00 -0.31389342699E+03  0.31389342700E+03  0.25500000000E-02 0.  1.
    5000001    1    1    2    0    0  0.12207236361E+03  0.39331314061E+02 -0.15997516381E+02  0.23728787317E+03  0.19900000000E+03 0.  0.
   -5000001    1    1    2    0    0 -0.12207236361E+03 -0.39331314061E+02 -0.11241842909E+03  0.26208303536E+03  0.19900000000E+03 0.  0.
<mgrwt>
<rscale>  0 0.48257709E+03</rscale>
<asrwt>0</asrwt>
<pdfrwt beam="1">  1        2 0.44841918E-01 0.48257709E+03</pdfrwt>
<pdfrwt beam="2">  1       -2 0.26496783E-01 0.48257709E+03</pdfrwt>
<totfact> 0.14569358E+03</totfact>
</mgrwt>
</event>
<event>
 4    1  0.5069019E-005  0.5865312E+03  0.7818608E-02  0.9933750E-01
         -2   -1    0    0    0  501 -0.00000000000E+00  0.00000000000E+00  0.25406520405E+03  0.25406520406E+03  0.25500000000E-02 0. -1.
          2   -1    0    0  501    0  0.00000000000E+00 -0.00000000000E+00 -0.33851431885E+03  0.33851431886E+03  0.25500000000E-02 0.  1.
    5000001    1    1    2    0    0 -0.14423356098E+03 -0.15618005906E+03 -0.71072599572E+01  0.29128515943E+03  0.19900000000E+03 0.  0.
   -5000001    1    1    2    0    0  0.14423356098E+03  0.15618005906E+03 -0.77341854837E+02  0.30129436349E+03  0.19900000000E+03 0.  0.
<mgrwt>
<rscale>  0 0.58653119E+03</rscale>
<asrwt>0</asrwt>
<pdfrwt beam="1">  1        2 0.48359188E-01 0.58653119E+03</pdfrwt>
<pdfrwt beam="2">  1       -2 0.36295029E-01 0.58653119E+03</pdfrwt>
<totfact> 0.74818810E+02</totfact>
</mgrwt>
</event>
<event>
 4    1  0.5069019E-005  0.1226154E+04  0.7818608E-02  0.9090267E-01
          2   -1    0    0  501    0  0.00000000000E+00  0.00000000000E+00  0.93628432780E+03  0.93628432780E+03  0.25500000000E-02 0.  1.
         -2   -1    0    0    0  501 -0.00000000000E+00 -0.00000000000E+00 -0.40144161128E+03  0.40144161129E+03  0.25500000000E-02 0. -1.
    5000001    1    1    2    0    0 -0.20868839169E+02 -0.43821989669E+03 -0.14627993771E+03  0.50345904151E+03  0.19900000000E+03 0.  0.
   -5000001    1    1    2    0    0  0.20868839169E+02  0.43821989669E+03  0.68112265423E+03  0.83426689758E+03  0.19900000000E+03 0.  0.
<mgrwt>
<rscale>  0 0.12261541E+04</rscale>
<asrwt>0</asrwt>
<pdfrwt beam="1">  1        2 0.13375490E+00 0.12261541E+04</pdfrwt>
<pdfrwt beam="2">  1       -2 0.57348802E-01 0.12261541E+04</pdfrwt>
<totfact> 0.86497664E+01</totfact>
</mgrwt>
</event>
<event>
 4    1  0.5069019E-005  0.7140846E+03  0.7818608E-02  0.9693444E-01
         -2   -1    0    0    0  501 -0.00000000000E+00  0.00000000000E+00  0.18726217085E+03  0.18726217087E+03  0.25500000000E-02 0. -1.
          2   -1    0    0  501    0  0.00000000000E+00 -0.00000000000E+00 -0.68075265163E+03  0.68075265164E+03  0.25500000000E-02 0.  1.
    5000001    1    1    2    0    0 -0.15118993190E+03  0.15779831928E+03 -0.32697319992E+01  0.29558483761E+03  0.19900000000E+03 0.  0.
   -5000001    1    1    2    0    0  0.15118993190E+03 -0.15779831928E+03 -0.49022074878E+03  0.57242998490E+03  0.19900000000E+03 0.  0.
<mgrwt>
<rscale>  0 0.71408464E+03</rscale>
<asrwt>0</asrwt>
<pdfrwt beam="1">  1        2 0.97250378E-01 0.71408464E+03</pdfrwt>
<pdfrwt beam="2">  1       -2 0.26751739E-01 0.71408464E+03</pdfrwt>
<totfact> 0.59241699E+02</totfact>
</mgrwt>
</event>
<event>
 4    1  0.5069019E-005  0.4442247E+03  0.7818608E-02  0.1029458E+00
          2   -1    0    0  501    0  0.00000000000E+00  0.00000000000E+00  0.11181777647E+04  0.11181777647E+04  0.25500000000E-02 0.  1.
         -2   -1    0    0    0  501 -0.00000000000E+00 -0.00000000000E+00 -0.44119912039E+02  0.44119912112E+02  0.25500000000E-02 0. -1.
    5000001    1    1    2    0    0 -0.87351837173E+02 -0.28319595411E+02  0.63138722744E+03  0.66834360468E+03  0.19900000000E+03 0.  0.
   -5000001    1    1    2    0    0  0.87351837173E+02  0.28319595411E+02  0.44267062518E+03  0.49395407210E+03  0.19900000000E+03 0.  0.
<mgrwt>
<rscale>  0 0.44422474E+03</rscale>
<asrwt>0</asrwt>
<pdfrwt beam="1">  1        2 0.15973970E+00 0.44422474E+03</pdfrwt>
<pdfrwt beam="2">  1       -2 0.63028438E-02 0.44422474E+03</pdfrwt>
<totfact> 0.34269972E+03</totfact>
</mgrwt>
</event>
<event>
 4    1  0.5069019E-005  0.1028298E+04  0.7818608E-02  0.9278041E-01
         -2   -1    0    0    0  501 -0.00000000000E+00  0.00000000000E+00  0.83767716660E+02  0.83767716699E+02  0.25500000000E-02 0.  1.
          2   -1    0    0  501    0  0.00000000000E+00 -0.00000000000E+00 -0.31557398887E+04  0.31557398887E+04  0.25500000000E-02 0. -1.
    5000001    1    1    2    0    0 -0.44549839594E+03  0.14001048012E+03 -0.12785732173E+04  0.13756533820E+04  0.19900000000E+03 0.  0.
   -5000001    1    1    2    0    0  0.44549839594E+03 -0.14001048012E+03 -0.17933989548E+04  0.18638542235E+04  0.19900000000E+03 0.  0.
<mgrwt>
<rscale>  0 0.10282979E+04</rscale>
<asrwt>0</asrwt>
<pdfrwt beam="1">  1        2 0.45081991E+00 0.10282979E+04</pdfrwt>
<pdfrwt beam="2">  1       -2 0.11966819E-01 0.10282979E+04</pdfrwt>
<totfact> 0.10050401E+02</totfact>
</mgrwt>
</event>
<event>
 4    1  0.5069019E-005  0.6876587E+03  0.7818608E-02  0.9738573E-01
          2   -1    0    0  501    0  0.00000000000E+00  0.00000000000E+00  0.29652167047E+04  0.29652167047E+04  0.25500000000E-02 0. -1.
         -2   -1    0    0    0  501 -0.00000000000E+00 -0.00000000000E+00 -0.39868459737E+02  0.39868459819E+02  0.25500000000E-02 0.  1.
    5000001    1    1    2    0    0  0.26301567395E+03 -0.28499911705E+01  0.18870900017E+04  0.19156970119E+04  0.19900000000E+03 0.  0.
   -5000001    1    1    2    0    0 -0.26301567395E+03  0.28499911705E+01  0.10382582433E+04  0.10893881526E+04  0.19900000000E+03 0.  0.
<mgrwt>
<rscale>  0 0.68765870E+03</rscale>
<asrwt>0</asrwt>
<pdfrwt beam="1">  1        2 0.42360247E+00 0.68765870E+03</pdfrwt>
<pdfrwt beam="2">  1       -2 0.56954931E-02 0.68765870E+03</pdfrwt>
<totfact> 0.43757183E+02</totfact>
</mgrwt>
</event>
<event>
 4    1  0.5069019E-005  0.9301765E+03  0.7818608E-02  0.9388626E-01
         -2   -1    0    0    0  501 -0.00000000000E+00  0.00000000000E+00  0.78211302104E+02  0.78211302145E+02  0.25500000000E-02 0.  1.
          2   -1    0    0  501    0  0.00000000000E+00 -0.00000000000E+00 -0.27656752485E+04  0.27656752485E+04  0.25500000000E-02 0. -1.
    5000001    1    1    2    0    0 -0.33310708920E+03  0.23431030791E+03 -0.16621149725E+04  0.17228142196E+04  0.19900000000E+03 0.  0.
   -5000001    1    1    2    0    0  0.33310708920E+03 -0.23431030791E+03 -0.10253489739E+04  0.11210723311E+04  0.19900000000E+03 0.  0.
<mgrwt>
<rscale>  0 0.93017646E+03</rscale>
<asrwt>0</asrwt>
<pdfrwt beam="1">  1        2 0.39509640E+00 0.93017646E+03</pdfrwt>
<pdfrwt beam="2">  1       -2 0.11173045E-01 0.93017646E+03</pdfrwt>
<totfact> 0.18601412E+02</totfact>
</mgrwt>
</event>
<event>
 4    1  0.5069019E-005  0.4953974E+03  0.7818608E-02  0.1014987E+00
          2   -1    0    0  501    0  0.00000000000E+00  0.00000000000E+00  0.19766285480E+04  0.19766285480E+04  0.25500000000E-02 0.  1.
         -2   -1    0    0    0  501 -0.00000000000E+00 -0.00000000000E+00 -0.31040051852E+02  0.31040051957E+02  0.25500000000E-02 0. -1.
    5000001    1    1    2    0    0  0.14014501552E+03  0.83974136134E+01  0.78963853900E+03  0.82634203826E+03  0.19900000000E+03 0.  0.
   -5000001    1    1    2    0    0 -0.14014501552E+03 -0.83974136134E+01  0.11559499572E+04  0.11813265617E+04  0.19900000000E+03 0.  0.
<mgrwt>
<rscale>  0 0.49539743E+03</rscale>
<asrwt>0</asrwt>
<pdfrwt beam="1">  1        2 0.28237553E+00 0.49539743E+03</pdfrwt>
<pdfrwt beam="2">  1       -2 0.44342927E-02 0.49539743E+03</pdfrwt>
<totfact> 0.21109330E+03</totfact>
</mgrwt>
</event>
<event>
 4    1  0.5069019E-005  0.8063747E+03  0.7818608E-02  0.9550836E-01
         -2   -1    0    0    0  501 -0.00000000000E+00  0.00000000000E+00  0.46395693380E+03  0.46395693380E+03  0.25500000000E-02 0.  1.
          2   -1    0    0  501    0  0.00000000000E+00 -0.00000000000E+00 -0.35037740203E+03  0.35037740204E+03  0.25500000000E-02 0. -1.
    5000001    1    1    2    0    0 -0.18774329031E+03 -0.29591757580E+03  0.68919589622E+02  0.40885897881E+03  0.19900000000E+03 0.  0.
   -5000001    1    1    2    0    0  0.18774329031E+03  0.29591757580E+03  0.44659942147E+02  0.40547535703E+03  0.19900000000E+03 0.  0.
<mgrwt>
<rscale>  0 0.80637467E+03</rscale>
<asrwt>0</asrwt>
<pdfrwt beam="1">  1        2 0.50053914E-01 0.80637467E+03</pdfrwt>
<pdfrwt beam="2">  1       -2 0.66279562E-01 0.80637467E+03</pdfrwt>
<totfact> 0.21144658E+02</totfact>
</mgrwt>
</event>
<event>
 4    1  0.5069019E-005  0.6001183E+03  0.7818608E-02  0.9905161E-01
         -2   -1    0    0    0  501 -0.00000000000E+00  0.00000000000E+00  0.54348358745E+02  0.54348358805E+02  0.25500000000E-02 0. -1.
          2   -1    0    0  501    0  0.00000000000E+00 -0.00000000000E+00 -0.16566367400E+04  0.16566367400E+04  0.25500000000E-02 0.  1.
    5000001    1    1    2    0    0  0.64780799020E+02 -0.62875695263E+02 -0.21487051263E+03  0.30646409606E+03  0.19900000000E+03 0.  0.
   -5000001    1    1    2    0    0 -0.64780799020E+02  0.62875695263E+02 -0.13874178686E+04  0.14045210028E+04  0.19900000000E+03 0.  0.
<mgrwt>
<rscale>  0 0.60011828E+03</rscale>
<asrwt>0</asrwt>
<pdfrwt beam="1">  1        2 0.23666236E+00 0.60011828E+03</pdfrwt>
<pdfrwt beam="2">  1       -2 0.77640523E-02 0.60011828E+03</pdfrwt>
<totfact> 0.12700974E+03</totfact>
</mgrwt>
</event>
<event>
 4    1  0.5069019E-005  0.5308807E+03  0.7818608E-02  0.1006019E+00
          2   -1    0    0  501    0  0.00000000000E+00  0.00000000000E+00  0.10973829611E+04  0.10973829611E+04  0.25500000000E-02 0.  1.
         -2   -1    0    0    0  501 -0.00000000000E+00 -0.00000000000E+00 -0.64206014265E+02  0.64206014315E+02  0.25500000000E-02 0. -1.
    5000001    1    1    2    0    0 -0.35012511756E+02 -0.11851343594E+03  0.24342243795E+03  0.33782657352E+03  0.19900000000E+03 0.  0.
   -5000001    1    1    2    0    0  0.35012511756E+02  0.11851343594E+03  0.78975450888E+03  0.82376240189E+03  0.19900000000E+03 0.  0.
<mgrwt>
<rscale>  0 0.53088073E+03</rscale>
<asrwt>0</asrwt>
<pdfrwt beam="1">  1        2 0.15676897E+00 0.53088073E+03</pdfrwt>
<pdfrwt beam="2">  1       -2 0.91722889E-02 0.53088073E+03</pdfrwt>
<totfact> 0.19460682E+03</totfact>
</mgrwt>
</event>
<event>
 4    1  0.5069019E-005  0.5379755E+03  0.7818608E-02  0.1004316E+00
         -2   -1    0    0    0  501 -0.00000000000E+00  0.00000000000E+00  0.31360113426E+03  0.31360113427E+03  0.25500000000E-02 0. -1.
          2   -1    0    0  501    0  0.00000000000E+00 -0.00000000000E+00 -0.23072111331E+03  0.23072111332E+03  0.25500000000E-02 0.  1.
    5000001    1    1    2    0    0  0.11171510511E+03 -0.46008016461E+02  0.17777536298E+03  0.29291992416E+03  0.19900000000E+03 0.  0.
   -5000001    1    1    2    0    0 -0.11171510511E+03  0.46008016461E+02 -0.94895342028E+02  0.25140232343E+03  0.19900000000E+03 0.  0.
<mgrwt>
<rscale>  0 0.53797547E+03</rscale>
<asrwt>0</asrwt>
<pdfrwt beam="1">  1        2 0.32960159E-01 0.53797547E+03</pdfrwt>
<pdfrwt beam="2">  1       -2 0.44800162E-01 0.53797547E+03</pdfrwt>
<totfact> 0.75975334E+02</totfact>
</mgrwt>
</event>
<event>
 4    1  0.5069019E-005  0.5153163E+03  0.7818608E-02  0.1009857E+00
          2   -1    0    0  501    0  0.00000000000E+00  0.00000000000E+00  0.67430718394E+03  0.67430718395E+03  0.25500000000E-02 0.  1.
         -2   -1    0    0    0  501 -0.00000000000E+00 -0.00000000000E+00 -0.98453221476E+02  0.98453221509E+02  0.25500000000E-02 0. -1.
    5000001    1    1    2    0    0 -0.15880268651E+03  0.17091619684E+02  0.34150011146E+03  0.42630240773E+03  0.19900000000E+03 0.  0.
   -5000001    1    1    2    0    0  0.15880268651E+03 -0.17091619684E+02  0.23435385100E+03  0.34645799772E+03  0.19900000000E+03 0.  0.
<mgrwt>
<rscale>  0 0.51531627E+03</rscale>
<asrwt>0</asrwt>
<pdfrwt beam="1">  1        2 0.96329595E-01 0.51531627E+03</pdfrwt>
<pdfrwt beam="2">  1       -2 0.14064746E-01 0.51531627E+03</pdfrwt>
<totfact> 0.18370534E+03</totfact>
</mgrwt>
</event>
<event>
 4    1  0.5069019E-005  0.5495248E+03  0.7818608E-02  0.1001604E+00
          2   -1    0    0  501    0  0.00000000000E+00  0.00000000000E+00  0.55109047262E+03  0.55109047262E+03  0.25500000000E-02 0.  1.
         -2   -1    0    0    0  501 -0.00000000000E+00 -0.00000000000E+00 -0.13699091773E+03  0.13699091776E+03  0.25500000000E-02 0. -1.
    5000001    1    1    2    0    0  0.49035965927E+01  0.12874490559E+03  0.38097584127E+03  0.44871247765E+03  0.19900000000E+03 0.  0.
   -5000001    1    1    2    0    0 -0.49035965927E+01 -0.12874490559E+03  0.33123713618E+02  0.23936891272E+03  0.19900000000E+03 0.  0.
<mgrwt>
<rscale>  0 0.54952485E+03</rscale>
<asrwt>0</asrwt>
<pdfrwt beam="1">  1        2 0.78727210E-01 0.54952485E+03</pdfrwt>
<pdfrwt beam="2">  1       -2 0.19570131E-01 0.54952485E+03</pdfrwt>
<totfact> 0.13291771E+03</totfact>
</mgrwt>
</event>
<event>
 4    1  0.5069019E-005  0.4922455E+03  0.7818608E-02  0.1015823E+00
          2   -1    0    0  501    0  0.00000000000E+00  0.00000000000E+00  0.53369329219E+03  0.53369329220E+03  0.25500000000E-02 0.  1.
         -2   -1    0    0    0  501 -0.00000000000E+00 -0.00000000000E+00 -0.11350416744E+03  0.11350416747E+03  0.25500000000E-02 0. -1.
    5000001    1    1    2    0    0 -0.13684092712E+03  0.13454116894E+02  0.26989868208E+03  0.36242620102E+03  0.19900000000E+03 0.  0.
   -5000001    1    1    2    0    0  0.13684092712E+03 -0.13454116894E+02  0.15029044266E+03  0.28477125865E+03  0.19900000000E+03 0.  0.
<mgrwt>
<rscale>  0 0.49224552E+03</rscale>
<asrwt>0</asrwt>
<pdfrwt beam="1">  1        2 0.76241897E-01 0.49224552E+03</pdfrwt>
<pdfrwt beam="2">  1       -2 0.16214881E-01 0.49224552E+03</pdfrwt>
<totfact> 0.19023935E+03</totfact>
</mgrwt>
</event>
<event>
 4    1  0.5069019E-005  0.4816318E+03  0.7818608E-02  0.1018688E+00
         -2   -1    0    0    0  501 -0.00000000000E+00  0.00000000000E+00  0.49537828627E+02  0.49537828692E+02  0.25500000000E-02 0. -1.
          2   -1    0    0  501    0  0.00000000000E+00 -0.00000000000E+00 -0.11706670632E+04  0.11706670632E+04  0.25500000000E-02 0.  1.
    5000001    1    1    2    0    0  0.57528813678E+01 -0.10821839699E+03 -0.35401233046E+03  0.42032136183E+03  0.19900000000E+03 0.  0.
   -5000001    1    1    2    0    0 -0.57528813678E+01  0.10821839699E+03 -0.76711690407E+03  0.79988353003E+03  0.19900000000E+03 0.  0.
<mgrwt>
<rscale>  0 0.48163183E+03</rscale>
<asrwt>0</asrwt>
<pdfrwt beam="1">  1        2 0.16723814E+00 0.48163183E+03</pdfrwt>
<pdfrwt beam="2">  1       -2 0.70768334E-02 0.48163183E+03</pdfrwt>
<totfact> 0.26698137E+03</totfact>
</mgrwt>
</event>
<event>
 4    1  0.5069019E-005  0.5851179E+03  0.7818608E-02  0.9936772E-01
          2   -1    0    0  501    0  0.00000000000E+00  0.00000000000E+00  0.36395206459E+03  0.36395206460E+03  0.25500000000E-02 0.  1.
         -2   -1    0    0    0  501 -0.00000000000E+00 -0.00000000000E+00 -0.23517039937E+03  0.23517039938E+03  0.25500000000E-02 0. -1.
    5000001    1    1    2    0    0  0.16906637076E+03 -0.12070264379E+03  0.11893095703E+03  0.31128465828E+03  0.19900000000E+03 0.  0.
   -5000001    1    1    2    0    0 -0.16906637076E+03  0.12070264379E+03  0.98507081974E+01  0.28783780570E+03  0.19900000000E+03 0.  0.
<mgrwt>
<rscale>  0 0.58511794E+03</rscale>
<asrwt>0</asrwt>
<pdfrwt beam="1">  1        2 0.51993152E-01 0.58511794E+03</pdfrwt>
<pdfrwt beam="2">  1       -2 0.33595771E-01 0.58511794E+03</pdfrwt>
<totfact> 0.79948678E+02</totfact>
</mgrwt>
</event>
<event>
 4    1  0.5069019E-005  0.4568562E+03  0.7818608E-02  0.1025697E+00
         -2   -1    0    0    0  501 -0.00000000000E+00  0.00000000000E+00  0.70769333588E+03  0.70769333589E+03  0.25500000000E-02 0. -1.
          2   -1    0    0  501    0  0.00000000000E+00 -0.00000000000E+00 -0.73731643605E+02  0.73731643650E+02  0.25500000000E-02 0.  1.
    5000001    1    1    2    0    0  0.34329437360E+02 -0.81197930349E+02  0.43556723568E+03  0.48692035381E+03  0.19900000000E+03 0.  0.
   -5000001    1    1    2    0    0 -0.34329437360E+02  0.81197930349E+02  0.19839445660E+03  0.29450462572E+03  0.19900000000E+03 0.  0.
<mgrwt>
<rscale>  0 0.45685618E+03</rscale>
<asrwt>0</asrwt>
<pdfrwt beam="1">  1        2 0.10533091E-01 0.45685618E+03</pdfrwt>
<pdfrwt beam="2">  1       -2 0.10109905E+00 0.45685618E+03</pdfrwt>
<totfact> 0.50508337E+02</totfact>
</mgrwt>
</event>
<event>
 4    1  0.5069019E-005  0.4463011E+03  0.7818608E-02  0.1028831E+00
         -2   -1    0    0    0  501 -0.00000000000E+00  0.00000000000E+00  0.12376867572E+03  0.12376867575E+03  0.25500000000E-02 0. -1.
          2   -1    0    0  501    0  0.00000000000E+00 -0.00000000000E+00 -0.40233257063E+03  0.40233257064E+03  0.25500000000E-02 0.  1.
    5000001    1    1    2    0    0 -0.26137767808E+02  0.85623728703E+02 -0.84235949297E+02  0.23390446977E+03  0.19900000000E+03 0.  0.
   -5000001    1    1    2    0    0  0.26137767808E+02 -0.85623728703E+02 -0.19432794561E+03  0.29219677662E+03  0.19900000000E+03 0.  0.
<mgrwt>
<rscale>  0 0.44630111E+03</rscale>
<asrwt>0</asrwt>
<pdfrwt beam="1">  1        2 0.57476081E-01 0.44630111E+03</pdfrwt>
<pdfrwt beam="2">  1       -2 0.17681239E-01 0.44630111E+03</pdfrwt>
<totfact> 0.22512958E+03</totfact>
</mgrwt>
</event>
<event>
 4    1  0.5069019E-005  0.6262144E+03  0.7818608E-02  0.9852464E-01
         -2   -1    0    0    0  501 -0.00000000000E+00  0.00000000000E+00  0.16121293762E+04  0.16121293762E+04  0.25500000000E-02 0. -1.
          2   -1    0    0  501    0  0.00000000000E+00 -0.00000000000E+00 -0.60811561841E+02  0.60811561895E+02  0.25500000000E-02 0.  1.
    5000001    1    1    2    0    0 -0.67250021468E+02 -0.14713743625E+03  0.12555146921E+04  0.12814406473E+04  0.19900000000E+03 0.  0.
   -5000001    1    1    2    0    0  0.67250021468E+02  0.14713743625E+03  0.29580312225E+03  0.39150029076E+03  0.19900000000E+03 0.  0.
<mgrwt>
<rscale>  0 0.62621436E+03</rscale>
<asrwt>0</asrwt>
<pdfrwt beam="1">  1        2 0.86873650E-02 0.62621436E+03</pdfrwt>
<pdfrwt beam="2">  1       -2 0.23030422E+00 0.62621436E+03</pdfrwt>
<totfact> 0.69940930E+01</totfact>
</mgrwt>
</event>
<event>
 4    1  0.5069019E-005  0.4706275E+03  0.7818608E-02  0.1021743E+00
         -2   -1    0    0    0  501 -0.00000000000E+00  0.00000000000E+00  0.24758653986E+02  0.24758654117E+02  0.25500000000E-02 0. -1.
          2   -1    0    0  501    0  0.00000000000E+00 -0.00000000000E+00 -0.22364928780E+04  0.22364928780E+04  0.25500000000E-02 0.  1.
    5000001    1    1    2    0    0  0.30343489623E+01  0.10064784601E+03 -0.74527460270E+03  0.77792957882E+03  0.19900000000E+03 0.  0.
   -5000001    1    1    2    0    0 -0.30343489623E+01 -0.10064784601E+03 -0.14664596213E+04  0.14833219533E+04  0.19900000000E+03 0.  0.
<mgrwt>
<rscale>  0 0.47062747E+03</rscale>
<asrwt>0</asrwt>
<pdfrwt beam="1">  1        2 0.31949885E+00 0.47062747E+03</pdfrwt>
<pdfrwt beam="2">  1       -2 0.35369520E-02 0.47062747E+03</pdfrwt>
<totfact> 0.22146837E+03</totfact>
</mgrwt>
</event>
<event>
 4    1  0.5069019E-005  0.6800438E+03  0.7818608E-02  0.9751982E-01
          2   -1    0    0  501    0  0.00000000000E+00  0.00000000000E+00  0.10155716874E+04  0.10155716874E+04  0.25500000000E-02 0.  1.
         -2   -1    0    0    0  501 -0.00000000000E+00 -0.00000000000E+00 -0.11384219191E+03  0.11384219194E+03  0.25500000000E-02 0. -1.
    5000001    1    1    2    0    0 -0.22732855500E+03  0.11727057234E+03  0.28001053473E+03  0.42829611090E+03  0.19900000000E+03 0.  0.
   -5000001    1    1    2    0    0  0.22732855500E+03 -0.11727057234E+03  0.62171896081E+03  0.70111776848E+03  0.19900000000E+03 0.  0.
<mgrwt>
<rscale>  0 0.68004384E+03</rscale>
<asrwt>0</asrwt>
<pdfrwt beam="1">  1        2 0.14508167E+00 0.68004384E+03</pdfrwt>
<pdfrwt beam="2">  1       -2 0.16263170E-01 0.68004384E+03</pdfrwt>
<totfact> 0.84262213E+02</totfact>
</mgrwt>
</event>
<event>
 4    1  0.5069019E-005  0.5069040E+03  0.7818608E-02  0.1011992E+00
          2   -1    0    0  501    0  0.00000000000E+00  0.00000000000E+00  0.46946472472E+03  0.46946472473E+03  0.25500000000E-02 0.  1.
         -2   -1    0    0    0  501 -0.00000000000E+00 -0.00000000000E+00 -0.13683223376E+03  0.13683223379E+03  0.25500000000E-02 0. -1.
    5000001    1    1    2    0    0 -0.77107500558E+02 -0.52914475868E+02  0.15537278690E+02  0.22042666678E+03  0.19900000000E+03 0.  0.
   -5000001    1    1    2    0    0  0.77107500558E+02  0.52914475868E+02  0.31709521227E+03  0.38587029174E+03  0.19900000000E+03 0.  0.
<mgrwt>
<rscale>  0 0.50690396E+03</rscale>
<asrwt>0</asrwt>
<pdfrwt beam="1">  1        2 0.67066389E-01 0.50690396E+03</pdfrwt>
<pdfrwt beam="2">  1       -2 0.19547462E-01 0.50690396E+03</pdfrwt>
<totfact> 0.15980359E+03</totfact>
</mgrwt>
</event>
<event>
 4    1  0.5069019E-005  0.4342211E+03  0.7818608E-02  0.1032535E+00
          2   -1    0    0  501    0  0.00000000000E+00  0.00000000000E+00  0.11219250214E+04  0.11219250214E+04  0.25500000000E-02 0.  1.
         -2   -1    0    0    0  501 -0.00000000000E+00 -0.00000000000E+00 -0.42014382279E+02  0.42014382357E+02  0.25500000000E-02 0. -1.
    5000001    1    1    2    0    0 -0.67385750566E+02 -0.51532394933E+02  0.49056094129E+03  0.53614127264E+03  0.19900000000E+03 0.  0.
   -5000001    1    1    2    0    0  0.67385750566E+02  0.51532394933E+02  0.58934969784E+03  0.62779813113E+03  0.19900000000E+03 0.  0.
<mgrwt>
<rscale>  0 0.43422108E+03</rscale>
<asrwt>0</asrwt>
<pdfrwt beam="1">  1        2 0.16027498E+00 0.43422108E+03</pdfrwt>
<pdfrwt beam="2">  1       -2 0.60020554E-02 0.43422108E+03</pdfrwt>
<totfact> 0.36794308E+03</totfact>
</mgrwt>
</event>
<event>
 4    1  0.5069019E-005  0.5584961E+03  0.7818608E-02  0.9995463E-01
         -2   -1    0    0    0  501 -0.00000000000E+00  0.00000000000E+00  0.27878143752E+03  0.27878143753E+03  0.25500000000E-02 0. -1.
          2   -1    0    0  501    0  0.00000000000E+00 -0.00000000000E+00 -0.27971548622E+03  0.27971548623E+03  0.25500000000E-02 0.  1.
    5000001    1    1    2    0    0 -0.18598433081E+03  0.61206586680E+02 -0.69530022511E+01  0.27925930924E+03  0.19900000000E+03 0.  0.
   -5000001    1    1    2    0    0  0.18598433081E+03 -0.61206586680E+02  0.60189535548E+01  0.27923761452E+03  0.19900000000E+03 0.  0.
<mgrwt>
<rscale>  0 0.55849614E+03</rscale>
<asrwt>0</asrwt>
<pdfrwt beam="1">  1        2 0.39959355E-01 0.55849614E+03</pdfrwt>
<pdfrwt beam="2">  1       -2 0.39825920E-01 0.55849614E+03</pdfrwt>
<totfact> 0.77268091E+02</totfact>
</mgrwt>
</event>
<event>
 4    1  0.5069019E-005  0.6417443E+03  0.7818608E-02  0.9822395E-01
          2   -1    0    0  501    0  0.00000000000E+00  0.00000000000E+00  0.12307327658E+04  0.12307327658E+04  0.25500000000E-02 0.  1.
         -2   -1    0    0    0  501 -0.00000000000E+00 -0.00000000000E+00 -0.83656617312E+02  0.83656617351E+02  0.25500000000E-02 0. -1.
    5000001    1    1    2    0    0 -0.85261367615E+02  0.15071888793E+03  0.19938027805E+03  0.33066475358E+03  0.19900000000E+03 0.  0.
   -5000001    1    1    2    0    0  0.85261367615E+02 -0.15071888793E+03  0.94769587048E+03  0.98372462961E+03  0.19900000000E+03 0.  0.
<mgrwt>
<rscale>  0 0.64174431E+03</rscale>
<asrwt>0</asrwt>
<pdfrwt beam="1">  1        2 0.17581897E+00 0.64174431E+03</pdfrwt>
<pdfrwt beam="2">  1       -2 0.11950945E-01 0.64174431E+03</pdfrwt>
<totfact> 0.10604986E+03</totfact>
</mgrwt>
</event>
<event>
 4    1  0.5069019E-005  0.1978719E+04  0.7818608E-02  0.8616635E-01
          2   -1    0    0  501    0  0.00000000000E+00  0.00000000000E+00  0.80607690683E+03  0.80607690683E+03  0.25500000000E-02 0.  1.
         -2   -1    0    0    0  501 -0.00000000000E+00 -0.00000000000E+00 -0.12143160869E+04  0.12143160869E+04  0.25500000000E-02 0. -1.
    5000001    1    1    2    0    0  0.42626785951E+03 -0.68886549287E+03 -0.74729263465E+03  0.11199496583E+04  0.19900000000E+03 0.  0.
   -5000001    1    1    2    0    0 -0.42626785951E+03  0.68886549287E+03  0.33905345456E+03  0.90044333545E+03  0.19900000000E+03 0.  0.
<mgrwt>
<rscale>  0 0.19787189E+04</rscale>
<asrwt>0</asrwt>
<pdfrwt beam="1">  1        2 0.11515384E+00 0.19787189E+04</pdfrwt>
<pdfrwt beam="2">  1       -2 0.17347373E+00 0.19787189E+04</pdfrwt>
<totfact> 0.70776495E+00</totfact>
</mgrwt>
</event>
<event>
 4    1  0.5069019E-005  0.1526826E+04  0.7818608E-02  0.8866807E-01
          2   -1    0    0  501    0  0.00000000000E+00  0.00000000000E+00  0.25362027983E+04  0.25362027983E+04  0.25500000000E-02 0.  1.
         -2   -1    0    0    0  501 -0.00000000000E+00 -0.00000000000E+00 -0.22979222941E+03  0.22979222943E+03  0.25500000000E-02 0. -1.
    5000001    1    1    2    0    0 -0.14498319481E+03  0.52774079095E+03  0.20474599038E+04  0.21286670775E+04  0.19900000000E+03 0.  0.
   -5000001    1    1    2    0    0  0.14498319481E+03 -0.52774079095E+03  0.25895066512E+03  0.63732795026E+03  0.19900000000E+03 0.  0.
<mgrwt>
<rscale>  0 0.15268264E+04</rscale>
<asrwt>0</asrwt>
<pdfrwt beam="1">  1        2 0.36231468E+00 0.15268264E+04</pdfrwt>
<pdfrwt beam="2">  1       -2 0.32827462E-01 0.15268264E+04</pdfrwt>
<totfact> 0.35314249E+01</totfact>
</mgrwt>
</event>
<event>
 4    1  0.5069019E-005  0.9099711E+03  0.7818608E-02  0.9413202E-01
          2   -1    0    0  501    0  0.00000000000E+00  0.00000000000E+00  0.22541650064E+04  0.22541650064E+04  0.25500000000E-02 0.  1.
         -2   -1    0    0    0  501 -0.00000000000E+00 -0.00000000000E+00 -0.91835263934E+02  0.91835263970E+02  0.25500000000E-02 0. -1.
    5000001    1    1    2    0    0  0.29390681666E+03  0.13127404238E+03  0.42998684152E+03  0.57280343483E+03  0.19900000000E+03 0.  0.
   -5000001    1    1    2    0    0 -0.29390681666E+03 -0.13127404238E+03  0.17323429009E+04  0.17731968355E+04  0.19900000000E+03 0.  0.
<mgrwt>
<rscale>  0 0.90997107E+03</rscale>
<asrwt>0</asrwt>
<pdfrwt beam="1">  1        2 0.32202354E+00 0.90997107E+03</pdfrwt>
<pdfrwt beam="2">  1       -2 0.13119325E-01 0.90997107E+03</pdfrwt>
<totfact> 0.26364254E+02</totfact>
</mgrwt>
</event>
<event>
 4    1  0.5069019E-005  0.4981265E+03  0.7818608E-02  0.1014269E+00
         -2   -1    0    0    0  501 -0.00000000000E+00  0.00000000000E+00  0.20579699468E+03  0.20579699469E+03  0.25500000000E-02 0. -1.
          2   -1    0    0  501    0  0.00000000000E+00 -0.00000000000E+00 -0.30142565878E+03  0.30142565879E+03  0.25500000000E-02 0.  1.
    5000001    1    1    2    0    0  0.10705143459E+03  0.58962863115E+02  0.40339450849E+02  0.23699135041E+03  0.19900000000E+03 0.  0.
   -5000001    1    1    2    0    0 -0.10705143459E+03 -0.58962863115E+02 -0.13596811496E+03  0.27023130307E+03  0.19900000000E+03 0.  0.
<mgrwt>
<rscale>  0 0.49812647E+03</rscale>
<asrwt>0</asrwt>
<pdfrwt beam="1">  1        2 0.43060808E-01 0.49812647E+03</pdfrwt>
<pdfrwt beam="2">  1       -2 0.29399571E-01 0.49812647E+03</pdfrwt>
<totfact> 0.12609597E+03</totfact>
</mgrwt>
</event>
<event>
 4    1  0.5069019E-005  0.4650113E+03  0.7818608E-02  0.1023338E+00
         -2   -1    0    0    0  501 -0.00000000000E+00  0.00000000000E+00  0.54250037701E+02  0.54250037761E+02  0.25500000000E-02 0. -1.
          2   -1    0    0  501    0  0.00000000000E+00 -0.00000000000E+00 -0.99647615430E+03  0.99647615430E+03  0.25500000000E-02 0.  1.
    5000001    1    1    2    0    0  0.86001118668E+02  0.78789483368E+02 -0.53714104165E+03  0.58457289856E+03  0.19900000000E+03 0.  0.
   -5000001    1    1    2    0    0 -0.86001118668E+02 -0.78789483368E+02 -0.40508507494E+03  0.46615329350E+03  0.19900000000E+03 0.  0.
<mgrwt>
<rscale>  0 0.46501126E+03</rscale>
<asrwt>0</asrwt>
<pdfrwt beam="1">  1        2 0.14235373E+00 0.46501126E+03</pdfrwt>
<pdfrwt beam="2">  1       -2 0.77500060E-02 0.46501126E+03</pdfrwt>
<totfact> 0.29207631E+03</totfact>
</mgrwt>
</event>
<event>
 4    1  0.5069019E-005  0.6955236E+03  0.7818608E-02  0.9724918E-01
          2   -1    0    0  501    0  0.00000000000E+00  0.00000000000E+00  0.53288792410E+03  0.53288792410E+03  0.25500000000E-02 0.  1.
         -2   -1    0    0    0  501 -0.00000000000E+00 -0.00000000000E+00 -0.22694878625E+03  0.22694878627E+03  0.25500000000E-02 0. -1.
    5000001    1    1    2    0    0  0.24734846077E+03  0.88108071003E+02  0.31352038451E+02  0.33095051524E+03  0.19900000000E+03 0.  0.
   -5000001    1    1    2    0    0 -0.24734846077E+03 -0.88108071003E+02  0.27458709939E+03  0.42888619513E+03  0.19900000000E+03 0.  0.
<mgrwt>
<rscale>  0 0.69552359E+03</rscale>
<asrwt>0</asrwt>
<pdfrwt beam="1">  1        2 0.76126846E-01 0.69552359E+03</pdfrwt>
<pdfrwt beam="2">  1       -2 0.32421255E-01 0.69552359E+03</pdfrwt>
<totfact> 0.55546098E+02</totfact>
</mgrwt>
</event>
<event>
 4    1  0.5069019E-005  0.7755637E+03  0.7818608E-02  0.9596077E-01
          2   -1    0    0  501    0  0.00000000000E+00  0.00000000000E+00  0.56401765729E+03  0.56401765730E+03  0.25500000000E-02 0.  1.
         -2   -1    0    0    0  501 -0.00000000000E+00 -0.00000000000E+00 -0.26661358120E+03  0.26661358121E+03  0.25500000000E-02 0. -1.
    5000001    1    1    2    0    0 -0.28436380790E+03 -0.16871702687E+03  0.18942209737E+03  0.42989526791E+03  0.19900000000E+03 0.  0.
   -5000001    1    1    2    0    0  0.28436380790E+03  0.16871702687E+03  0.10798197873E+03  0.40073597060E+03  0.19900000000E+03 0.  0.
<mgrwt>
<rscale>  0 0.77556371E+03</rscale>
<asrwt>0</asrwt>
<pdfrwt beam="1">  1        2 0.80573951E-01 0.77556371E+03</pdfrwt>
<pdfrwt beam="2">  1       -2 0.38087655E-01 0.77556371E+03</pdfrwt>
<totfact> 0.38179539E+02</totfact>
</mgrwt>
</event>
<event>
 4    1  0.5069019E-005  0.9240169E+03  0.7818608E-02  0.9396047E-01
         -2   -1    0    0    0  501 -0.00000000000E+00  0.00000000000E+00  0.15882909120E+03  0.15882909122E+03  0.25500000000E-02 0. -1.
          2   -1    0    0  501    0  0.00000000000E+00 -0.00000000000E+00 -0.13439087437E+04  0.13439087437E+04  0.25500000000E-02 0.  1.
    5000001    1    1    2    0    0  0.33898616585E+03  0.21317176954E+03 -0.40360082303E+03  0.60236903001E+03  0.19900000000E+03 0.  0.
   -5000001    1    1    2    0    0 -0.33898616585E+03 -0.21317176954E+03 -0.78147882949E+03  0.90036880494E+03  0.19900000000E+03 0.  0.
<mgrwt>
<rscale>  0 0.92401689E+03</rscale>
<asrwt>0</asrwt>
<pdfrwt beam="1">  1        2 0.19198696E+00 0.92401689E+03</pdfrwt>
<pdfrwt beam="2">  1       -2 0.22689871E-01 0.92401689E+03</pdfrwt>
<totfact> 0.30292342E+02</totfact>
</mgrwt>
</event>
<event>
 4    1  0.5069019E-005  0.8934824E+03  0.7818608E-02  0.9433766E-01
          2   -1    0    0  501    0  0.00000000000E+00  0.00000000000E+00  0.73416978465E+03  0.73416978466E+03  0.25500000000E-02 0.  1.
         -2   -1    0    0    0  501 -0.00000000000E+00 -0.00000000000E+00 -0.27184133239E+03  0.27184133240E+03  0.25500000000E-02 0. -1.
    5000001    1    1    2    0    0  0.26914418964E+03  0.26410241620E+03  0.38133329417E+03  0.57201814858E+03  0.19900000000E+03 0.  0.
   -5000001    1    1    2    0    0 -0.26914418964E+03 -0.26410241620E+03  0.80995158090E+02  0.43399296848E+03  0.19900000000E+03 0.  0.
<mgrwt>
<rscale>  0 0.89348238E+03</rscale>
<asrwt>0</asrwt>
<pdfrwt beam="1">  1        2 0.10488140E+00 0.89348238E+03</pdfrwt>
<pdfrwt beam="2">  1       -2 0.38834476E-01 0.89348238E+03</pdfrwt>
<totfact> 0.26612832E+02</totfact>
</mgrwt>
</event>
<event>
 4    1  0.5069019E-005  0.4820677E+03  0.7818608E-02  0.1018568E+00
         -2   -1    0    0    0  501 -0.00000000000E+00  0.00000000000E+00  0.71151664104E+02  0.71151664150E+02  0.25500000000E-02 0. -1.
          2   -1    0    0  501    0  0.00000000000E+00 -0.00000000000E+00 -0.81652801969E+03  0.81652801970E+03  0.25500000000E-02 0.  1.
    5000001    1    1    2    0    0  0.11784742658E+03 -0.66237854688E+02 -0.40005376924E+03  0.46681847396E+03  0.19900000000E+03 0.  0.
   -5000001    1    1    2    0    0 -0.11784742658E+03  0.66237854688E+02 -0.34532258634E+03  0.42086120988E+03  0.19900000000E+03 0.  0.
<mgrwt>
<rscale>  0 0.48206774E+03</rscale>
<asrwt>0</asrwt>
<pdfrwt beam="1">  1        2 0.11664685E+00 0.48206774E+03</pdfrwt>
<pdfrwt beam="2">  1       -2 0.10164524E-01 0.48206774E+03</pdfrwt>
<totfact> 0.24680954E+03</totfact>
</mgrwt>
</event>
<event>
 4    1  0.5069019E-005  0.5231247E+03  0.7818608E-02  0.1007913E+00
         -2   -1    0    0    0  501 -0.00000000000E+00  0.00000000000E+00  0.72529567989E+03  0.72529567990E+03  0.25500000000E-02 0. -1.
          2   -1    0    0  501    0  0.00000000000E+00 -0.00000000000E+00 -0.94326875884E+02  0.94326875918E+02  0.25500000000E-02 0.  1.
    5000001    1    1    2    0    0  0.13568220063E+03 -0.42053226673E+01  0.47516196726E+03  0.53273561870E+03  0.19900000000E+03 0.  0.
   -5000001    1    1    2    0    0 -0.13568220063E+03  0.42053226673E+01  0.15580683675E+03  0.28688693711E+03  0.19900000000E+03 0.  0.
<mgrwt>
<rscale>  0 0.52312475E+03</rscale>
<asrwt>0</asrwt>
<pdfrwt beam="1">  1        2 0.13475268E-01 0.52312475E+03</pdfrwt>
<pdfrwt beam="2">  1       -2 0.10361367E+00 0.52312475E+03</pdfrwt>
<totfact> 0.35098867E+02</totfact>
</mgrwt>
</event>
<event>
 4    1  0.5069019E-005  0.6935171E+03  0.7818608E-02  0.9728383E-01
          2   -1    0    0  501    0  0.00000000000E+00  0.00000000000E+00  0.64261059834E+03  0.64261059834E+03  0.25500000000E-02 0.  1.
         -2   -1    0    0    0  501 -0.00000000000E+00 -0.00000000000E+00 -0.18711408103E+03  0.18711408105E+03  0.25500000000E-02 0. -1.
    5000001    1    1    2    0    0 -0.26873324992E+03 -0.91018167088E+02  0.24183459204E+03  0.42259535759E+03  0.19900000000E+03 0.  0.
   -5000001    1    1    2    0    0  0.26873324992E+03  0.91018167088E+02  0.21366192527E+03  0.40712932180E+03  0.19900000000E+03 0.  0.
<mgrwt>
<rscale>  0 0.69351710E+03</rscale>
<asrwt>0</asrwt>
<pdfrwt beam="1">  1        2 0.91801514E-01 0.69351710E+03</pdfrwt>
<pdfrwt beam="2">  1       -2 0.26730583E-01 0.69351710E+03</pdfrwt>
<totfact> 0.63651739E+02</totfact>
</mgrwt>
</event>
<event>
 4    1  0.5069019E-005  0.5780297E+03  0.7818608E-02  0.9952066E-01
         -2   -1    0    0    0  501 -0.00000000000E+00  0.00000000000E+00  0.21465803310E+03  0.21465803312E+03  0.25500000000E-02 0. -1.
          2   -1    0    0  501    0  0.00000000000E+00 -0.00000000000E+00 -0.38912862124E+03  0.38912862124E+03  0.25500000000E-02 0.  1.
    5000001    1    1    2    0    0 -0.14527336875E+03  0.14820511451E+03 -0.56612103283E+02  0.29304442986E+03  0.19900000000E+03 0.  0.
   -5000001    1    1    2    0    0  0.14527336875E+03 -0.14820511451E+03 -0.11785848485E+03  0.31074222450E+03  0.19900000000E+03 0.  0.
<mgrwt>
<rscale>  0 0.57802970E+03</rscale>
<asrwt>0</asrwt>
<pdfrwt beam="1">  1        2 0.55589803E-01 0.57802970E+03</pdfrwt>
<pdfrwt beam="2">  1       -2 0.30665433E-01 0.57802970E+03</pdfrwt>
<totfact> 0.88033722E+02</totfact>
</mgrwt>
</event>
<event>
 4    1  0.5069019E-005  0.4553587E+03  0.7818608E-02  0.1026136E+00
          2   -1    0    0  501    0  0.00000000000E+00  0.00000000000E+00  0.76942144237E+03  0.76942144237E+03  0.25500000000E-02 0.  1.
         -2   -1    0    0    0  501 -0.00000000000E+00 -0.00000000000E+00 -0.67372538991E+02  0.67372539039E+02  0.25500000000E-02 0. -1.
    5000001    1    1    2    0    0  0.38424013951E+02 -0.97481709176E+02  0.28585131552E+03  0.36371838427E+03  0.19900000000E+03 0.  0.
   -5000001    1    1    2    0    0 -0.38424013951E+02  0.97481709176E+02  0.41619758786E+03  0.47307559714E+03  0.19900000000E+03 0.  0.
<mgrwt>
<rscale>  0 0.45535865E+03</rscale>
<asrwt>0</asrwt>
<pdfrwt beam="1">  1        2 0.10991734E+00 0.45535865E+03</pdfrwt>
<pdfrwt beam="2">  1       -2 0.96246489E-02 0.45535865E+03</pdfrwt>
<totfact> 0.29036122E+03</totfact>
</mgrwt>
</event>
<event>
 4    1  0.5069019E-005  0.9288774E+03  0.7818608E-02  0.9390186E-01
         -2   -1    0    0    0  501 -0.00000000000E+00  0.00000000000E+00  0.10600491179E+04  0.10600491179E+04  0.25500000000E-02 0. -1.
          2   -1    0    0  501    0  0.00000000000E+00 -0.00000000000E+00 -0.20348427547E+03  0.20348427548E+03  0.25500000000E-02 0.  1.
    5000001    1    1    2    0    0  0.21163187779E+03 -0.29588572694E+03  0.14370771481E+03  0.43884999989E+03  0.19900000000E+03 0.  0.
   -5000001    1    1    2    0    0 -0.21163187779E+03  0.29588572694E+03  0.71285712763E+03  0.82468339351E+03  0.19900000000E+03 0.  0.
<mgrwt>
<rscale>  0 0.92887744E+03</rscale>
<asrwt>0</asrwt>
<pdfrwt beam="1">  1        2 0.29069183E-01 0.92887744E+03</pdfrwt>
<pdfrwt beam="2">  1       -2 0.15143558E+00 0.92887744E+03</pdfrwt>
<totfact> 0.54002661E+01</totfact>
</mgrwt>
</event>
<event>
 4    1  0.5069019E-005  0.1192207E+04  0.7818608E-02  0.9119705E-01
          2   -1    0    0  501    0  0.00000000000E+00  0.00000000000E+00  0.79444596109E+03  0.79444596109E+03  0.25500000000E-02 0.  1.
         -2   -1    0    0    0  501 -0.00000000000E+00 -0.00000000000E+00 -0.44727951771E+03  0.44727951772E+03  0.25500000000E-02 0. -1.
    5000001    1    1    2    0    0  0.50731452624E+03 -0.15928864396E+03  0.36278031801E+03  0.67375920013E+03  0.19900000000E+03 0.  0.
   -5000001    1    1    2    0    0 -0.50731452624E+03  0.15928864396E+03 -0.15613874638E+02  0.56796627867E+03  0.19900000000E+03 0.  0.
<mgrwt>
<rscale>  0 0.11922070E+04</rscale>
<asrwt>0</asrwt>
<pdfrwt beam="1">  1        2 0.11349228E+00 0.11922070E+04</pdfrwt>
<pdfrwt beam="2">  1       -2 0.63897074E-01 0.11922070E+04</pdfrwt>
<totfact> 0.85841991E+01</totfact>
</mgrwt>
</event>
<event>
 4    1  0.5069019E-005  0.7506288E+03  0.7818608E-02  0.9634364E-01
         -2   -1    0    0    0  501 -0.00000000000E+00  0.00000000000E+00  0.21779462150E+03  0.21779462151E+03  0.25500000000E-02 0. -1.
          2   -1    0    0  501    0  0.00000000000E+00 -0.00000000000E+00 -0.64676021757E+03  0.64676021757E+03  0.25500000000E-02 0.  1.
    5000001    1    1    2    0    0 -0.93266216088E+01  0.30340612713E+03 -0.10450414965E+03  0.37770938715E+03  0.19900000000E+03 0.  0.
   -5000001    1    1    2    0    0  0.93266216088E+01 -0.30340612713E+03 -0.32446144642E+03  0.48684545193E+03  0.19900000000E+03 0.  0.
<mgrwt>
<rscale>  0 0.75062879E+03</rscale>
<asrwt>0</asrwt>
<pdfrwt beam="1">  1        2 0.92394316E-01 0.75062879E+03</pdfrwt>
<pdfrwt beam="2">  1       -2 0.31113518E-01 0.75062879E+03</pdfrwt>
<totfact> 0.47675261E+02</totfact>
</mgrwt>
</event>
<event>
 4    1  0.5069019E-005  0.8436436E+03  0.7818608E-02  0.9498908E-01
         -2   -1    0    0    0  501 -0.00000000000E+00  0.00000000000E+00  0.13300553465E+04  0.13300553465E+04  0.25500000000E-02 0. -1.
          2   -1    0    0  501    0  0.00000000000E+00 -0.00000000000E+00 -0.13377911632E+03  0.13377911634E+03  0.25500000000E-02 0.  1.
    5000001    1    1    2    0    0 -0.91256620330E+02 -0.33106818691E+03  0.84595697005E+03  0.93443999824E+03  0.19900000000E+03 0.  0.
   -5000001    1    1    2    0    0  0.91256620330E+02  0.33106818691E+03  0.35031926014E+03  0.52939446461E+03  0.19900000000E+03 0.  0.
<mgrwt>
<rscale>  0 0.84364360E+03</rscale>
<asrwt>0</asrwt>
<pdfrwt beam="1">  1        2 0.19111304E-01 0.84364360E+03</pdfrwt>
<pdfrwt beam="2">  1       -2 0.19000789E+00 0.84364360E+03</pdfrwt>
<totfact> 0.46945171E+01</totfact>
</mgrwt>
</event>
<event>
 4    1  0.5069019E-005  0.6293037E+03  0.7818608E-02  0.9846409E-01
         -2   -1    0    0    0  501 -0.00000000000E+00  0.00000000000E+00  0.60224148457E+03  0.60224148458E+03  0.25500000000E-02 0. -1.
          2   -1    0    0  501    0  0.00000000000E+00 -0.00000000000E+00 -0.16439548046E+03  0.16439548048E+03  0.25500000000E-02 0.  1.
    5000001    1    1    2    0    0  0.25976367285E+02  0.24122976259E+03  0.19066088795E+03  0.36717726538E+03  0.19900000000E+03 0.  0.
   -5000001    1    1    2    0    0 -0.25976367285E+02 -0.24122976259E+03  0.24718511616E+03  0.39945969968E+03  0.19900000000E+03 0.  0.
<mgrwt>
<rscale>  0 0.62930367E+03</rscale>
<asrwt>0</asrwt>
<pdfrwt beam="1">  1        2 0.23485068E-01 0.62930367E+03</pdfrwt>
<pdfrwt beam="2">  1       -2 0.86034498E-01 0.62930367E+03</pdfrwt>
<totfact> 0.27900149E+02</totfact>
</mgrwt>
</event>
<event>
 4    1  0.5069019E-005  0.5199906E+03  0.7818608E-02  0.1008689E+00
          2   -1    0    0  501    0  0.00000000000E+00  0.00000000000E+00  0.34450101936E+03  0.34450101937E+03  0.25500000000E-02 0.  1.
         -2   -1    0    0    0  501 -0.00000000000E+00 -0.00000000000E+00 -0.19621871730E+03  0.19621871732E+03  0.25500000000E-02 0. -1.
    5000001    1    1    2    0    0 -0.14132266497E+03  0.88346232722E+02  0.89543635417E+02  0.27458371240E+03  0.19900000000E+03 0.  0.
   -5000001    1    1    2    0    0  0.14132266497E+03 -0.88346232722E+02  0.58738666644E+02  0.26613602430E+03  0.19900000000E+03 0.  0.
<mgrwt>
<rscale>  0 0.51999057E+03</rscale>
<asrwt>0</asrwt>
<pdfrwt beam="1">  1        2 0.49214431E-01 0.51999057E+03</pdfrwt>
<pdfrwt beam="2">  1       -2 0.28031245E-01 0.51999057E+03</pdfrwt>
<totfact> 0.11880791E+03</totfact>
</mgrwt>
</event>
<event>
 4    1  0.5069019E-005  0.1031084E+04  0.7818608E-02  0.9275094E-01
         -2   -1    0    0    0  501 -0.00000000000E+00  0.00000000000E+00  0.39228998142E+03  0.39228998143E+03  0.25500000000E-02 0. -1.
          2   -1    0    0  501    0  0.00000000000E+00 -0.00000000000E+00 -0.67751870674E+03  0.67751870674E+03  0.25500000000E-02 0.  1.
    5000001    1    1    2    0    0 -0.35830677175E+03 -0.90708885788E+02 -0.45313858035E+03  0.61769524658E+03  0.19900000000E+03 0.  0.
   -5000001    1    1    2    0    0  0.35830677175E+03  0.90708885788E+02  0.16790985504E+03  0.45211344159E+03  0.19900000000E+03 0.  0.
<mgrwt>
<rscale>  0 0.10310845E+04</rscale>
<asrwt>0</asrwt>
<pdfrwt beam="1">  1        2 0.96788387E-01 0.10310845E+04</pdfrwt>
<pdfrwt beam="2">  1       -2 0.56041426E-01 0.10310845E+04</pdfrwt>
<totfact> 0.13967482E+02</totfact>
</mgrwt>
</event>
<event>
 4    1  0.5069019E-005  0.6247888E+03  0.7818608E-02  0.9855271E-01
         -2   -1    0    0    0  501 -0.00000000000E+00  0.00000000000E+00  0.30397474099E+02  0.30397474206E+02  0.25500000000E-02 0. -1.
          2   -1    0    0  501    0  0.00000000000E+00 -0.00000000000E+00 -0.32104723428E+04  0.32104723428E+04  0.25500000000E-02 0.  1.
    5000001    1    1    2    0    0 -0.28263435776E+02 -0.19008082229E+03 -0.23427940146E+04  0.23590706509E+04  0.19900000000E+03 0.  0.
   -5000001    1    1    2    0    0  0.28263435776E+02  0.19008082229E+03 -0.83728085401E+03  0.88179916608E+03  0.19900000000E+03 0.  0.
<mgrwt>
<rscale>  0 0.62478876E+03</rscale>
<asrwt>0</asrwt>
<pdfrwt beam="1">  1        2 0.45863869E+00 0.62478876E+03</pdfrwt>
<pdfrwt beam="2">  1       -2 0.43424984E-02 0.62478876E+03</pdfrwt>
<totfact> 0.49114580E+02</totfact>
</mgrwt>
</event>
<event>
 4    1  0.5069019E-005  0.2539904E+04  0.7818608E-02  0.8388906E-01
         -2   -1    0    0    0  501 -0.00000000000E+00  0.00000000000E+00  0.11917341581E+04  0.11917341581E+04  0.25500000000E-02 0.  1.
          2   -1    0    0  501    0  0.00000000000E+00 -0.00000000000E+00 -0.13533036942E+04  0.13533036942E+04  0.25500000000E-02 0. -1.
    5000001    1    1    2    0    0 -0.25237547745E+03  0.11628018670E+04 -0.47829263313E+03  0.12977543706E+04  0.19900000000E+03 0.  0.
   -5000001    1    1    2    0    0  0.25237547745E+03 -0.11628018670E+04  0.31672309700E+03  0.12472834817E+04  0.19900000000E+03 0.  0.
<mgrwt>
<rscale>  0 0.25399041E+04</rscale>
<asrwt>0</asrwt>
<pdfrwt beam="1">  1        2 0.19332910E+00 0.25399041E+04</pdfrwt>
<pdfrwt beam="2">  1       -2 0.17024774E+00 0.25399041E+04</pdfrwt>
<totfact> 0.33308719E+00</totfact>
</mgrwt>
</event>
