<event>
 4    1  0.9032007E-005  0.5239759E+03  0.7818608E-02  0.1007704E+00
          2   -1    0    0  501    0  0.00000000000E+00  0.00000000000E+00  0.54115537954E+03  0.54115537954E+03  0.25500000000E-02 0. -1.
         -2   -1    0    0    0  501 -0.00000000000E+00 -0.00000000000E+00 -0.12683546949E+03  0.12683546951E+03  0.25500000000E-02 0.  1.
    5000001    1    1    2    0    0  0.38702071574E+02 -0.15574717217E+03 -0.13615286883E+01  0.20466041568E+03  0.12700000000E+03 0.  0.
   -5000001    1    1    2    0    0 -0.38702071574E+02  0.15574717217E+03  0.41568143874E+03  0.46333043338E+03  0.12700000000E+03 0.  0.
<mgrwt>
<rscale>  0 0.52397594E+03</rscale>
<asrwt>0</asrwt>
<pdfrwt beam="1">  1        2 0.77307910E-01 0.52397594E+03</pdfrwt>
<pdfrwt beam="2">  1       -2 0.18119353E-01 0.52397594E+03</pdfrwt>
<totfact> 0.15501035E+03</totfact>
</mgrwt>
</event>
<event>
 4    1  0.9032007E-005  0.3972338E+03  0.7818608E-02  0.1044742E+00
          2   -1    0    0  501    0  0.00000000000E+00  0.00000000000E+00  0.88935152721E+02  0.88935152758E+02  0.25500000000E-02 0.  1.
         -2   -1    0    0    0  501 -0.00000000000E+00 -0.00000000000E+00 -0.44356673274E+03  0.44356673275E+03  0.25500000000E-02 0. -1.
    5000001    1    1    2    0    0 -0.13734766236E+03  0.58295903350E+02 -0.13373568407E+03  0.23722779327E+03  0.12700000000E+03 0.  0.
   -5000001    1    1    2    0    0  0.13734766236E+03 -0.58295903350E+02 -0.22089589595E+03  0.29527409224E+03  0.12700000000E+03 0.  0.
<mgrwt>
<rscale>  0 0.39723381E+03</rscale>
<asrwt>0</asrwt>
<pdfrwt beam="1">  1        2 0.12705022E-01 0.39723381E+03</pdfrwt>
<pdfrwt beam="2">  1       -2 0.63366675E-01 0.39723381E+03</pdfrwt>
<totfact> 0.11323333E+03</totfact>
</mgrwt>
</event>
<event>
 4    1  0.9032007E-005  0.3982305E+03  0.7818608E-02  0.1044394E+00
         -2   -1    0    0    0  501 -0.00000000000E+00  0.00000000000E+00  0.11181964681E+03  0.11181964683E+03  0.25500000000E-02 0. -1.
          2   -1    0    0  501    0  0.00000000000E+00 -0.00000000000E+00 -0.35456090549E+03  0.35456090550E+03  0.25500000000E-02 0.  1.
    5000001    1    1    2    0    0  0.48440247079E+02  0.13584182649E+03 -0.18243162803E+03  0.26497124045E+03  0.12700000000E+03 0.  0.
   -5000001    1    1    2    0    0 -0.48440247079E+02 -0.13584182649E+03 -0.60309630649E+02  0.20140931188E+03  0.12700000000E+03 0.  0.
<mgrwt>
<rscale>  0 0.39823046E+03</rscale>
<asrwt>0</asrwt>
<pdfrwt beam="1">  1        2 0.50651558E-01 0.39823046E+03</pdfrwt>
<pdfrwt beam="2">  1       -2 0.15974235E-01 0.39823046E+03</pdfrwt>
<totfact> 0.30654557E+03</totfact>
</mgrwt>
</event>
<event>
 4    1  0.9032007E-005  0.3042843E+03  0.7818608E-02  0.1083118E+00
          2   -1    0    0  501    0  0.00000000000E+00  0.00000000000E+00  0.73511992884E+03  0.73511992884E+03  0.25500000000E-02 0.  1.
         -2   -1    0    0    0  501 -0.00000000000E+00 -0.00000000000E+00 -0.31487704545E+02  0.31487704648E+02  0.25500000000E-02 0. -1.
    5000001    1    1    2    0    0  0.67531922991E+02  0.83169168625E+01  0.22868810704E+03  0.27029055113E+03  0.12700000000E+03 0.  0.
   -5000001    1    1    2    0    0 -0.67531922991E+02 -0.83169168625E+01  0.47494411725E+03  0.49631708236E+03  0.12700000000E+03 0.  0.
<mgrwt>
<rscale>  0 0.30428434E+03</rscale>
<asrwt>0</asrwt>
<pdfrwt beam="1">  1        2 0.10501713E+00 0.30428434E+03</pdfrwt>
<pdfrwt beam="2">  1       -2 0.44982436E-02 0.30428434E+03</pdfrwt>
<totfact> 0.99555658E+03</totfact>
</mgrwt>
</event>
<event>
 4    1  0.9032007E-005  0.2610504E+03  0.7818608E-02  0.1106514E+00
         -2   -1    0    0    0  501 -0.00000000000E+00  0.00000000000E+00  0.25262401231E+02  0.25262401359E+02  0.25500000000E-02 0. -1.
          2   -1    0    0  501    0  0.00000000000E+00 -0.00000000000E+00 -0.67439487939E+03  0.67439487939E+03  0.25500000000E-02 0.  1.
    5000001    1    1    2    0    0 -0.30023581249E+02 -0.24606767591E+01 -0.32294986305E+03  0.34832898875E+03  0.12700000000E+03 0.  0.
   -5000001    1    1    2    0    0  0.30023581249E+02  0.24606767591E+01 -0.32618261511E+03  0.35132829200E+03  0.12700000000E+03 0.  0.
<mgrwt>
<rscale>  0 0.26105045E+03</rscale>
<asrwt>0</asrwt>
<pdfrwt beam="1">  1        2 0.96342115E-01 0.26105045E+03</pdfrwt>
<pdfrwt beam="2">  1       -2 0.36089149E-02 0.26105045E+03</pdfrwt>
<totfact> 0.15277142E+04</totfact>
</mgrwt>
</event>
<event>
 4    1  0.9032007E-005  0.5477103E+03  0.7818608E-02  0.1002025E+00
         -2   -1    0    0    0  501 -0.00000000000E+00  0.00000000000E+00  0.97771553690E+02  0.97771553723E+02  0.25500000000E-02 0. -1.
          2   -1    0    0  501    0  0.00000000000E+00 -0.00000000000E+00 -0.76705988846E+03  0.76705988846E+03  0.25500000000E-02 0.  1.
    5000001    1    1    2    0    0 -0.14330543831E+03  0.11902472753E+02 -0.64321344061E+03  0.67121579816E+03  0.12700000000E+03 0.  0.
   -5000001    1    1    2    0    0  0.14330543831E+03 -0.11902472753E+02 -0.26074894155E+02  0.19361564403E+03  0.12700000000E+03 0.  0.
<mgrwt>
<rscale>  0 0.54771028E+03</rscale>
<asrwt>0</asrwt>
<pdfrwt beam="1">  1        2 0.10957998E+00 0.54771028E+03</pdfrwt>
<pdfrwt beam="2">  1       -2 0.13967365E-01 0.54771028E+03</pdfrwt>
<totfact> 0.15861242E+03</totfact>
</mgrwt>
</event>
<event>
 4    1  0.9032007E-005  0.3521443E+03  0.7818608E-02  0.1061738E+00
          2   -1    0    0  501    0  0.00000000000E+00  0.00000000000E+00  0.17707691031E+04  0.17707691031E+04  0.25500000000E-02 0. -1.
         -2   -1    0    0    0  501 -0.00000000000E+00 -0.00000000000E+00 -0.17507311513E+02  0.17507311699E+02  0.25500000000E-02 0.  1.
    5000001    1    1    2    0    0  0.11076132557E+03  0.67251764015E+01  0.61973439034E+03  0.64227176009E+03  0.12700000000E+03 0.  0.
   -5000001    1    1    2    0    0 -0.11076132557E+03 -0.67251764015E+01  0.11335274013E+04  0.11460046547E+04  0.12700000000E+03 0.  0.
<mgrwt>
<rscale>  0 0.35214433E+03</rscale>
<asrwt>0</asrwt>
<pdfrwt beam="1">  1        2 0.25296691E+00 0.35214433E+03</pdfrwt>
<pdfrwt beam="2">  1       -2 0.25010455E-02 0.35214433E+03</pdfrwt>
<totfact> 0.63667624E+03</totfact>
</mgrwt>
</event>
<event>
 4    1  0.9032007E-005  0.3025403E+03  0.7818608E-02  0.1083978E+00
          2   -1    0    0  501    0  0.00000000000E+00  0.00000000000E+00  0.33605215597E+03  0.33605215598E+03  0.25500000000E-02 0. -1.
         -2   -1    0    0    0  501 -0.00000000000E+00 -0.00000000000E+00 -0.68092574151E+02  0.68092574199E+02  0.25500000000E-02 0.  1.
    5000001    1    1    2    0    0 -0.77427396958E+02  0.22579863371E+02  0.11290891094E+03  0.18810176554E+03  0.12700000000E+03 0.  0.
   -5000001    1    1    2    0    0  0.77427396958E+02 -0.22579863371E+02  0.15505067088E+03  0.21604296464E+03  0.12700000000E+03 0.  0.
<mgrwt>
<rscale>  0 0.30254029E+03</rscale>
<asrwt>0</asrwt>
<pdfrwt beam="1">  1        2 0.48007451E-01 0.30254029E+03</pdfrwt>
<pdfrwt beam="2">  1       -2 0.97275105E-02 0.30254029E+03</pdfrwt>
<totfact> 0.72465417E+03</totfact>
</mgrwt>
</event>
<event>
 4    1  0.9032007E-005  0.3432291E+03  0.7818608E-02  0.1065429E+00
          2   -1    0    0  501    0  0.00000000000E+00  0.00000000000E+00  0.16655118763E+04  0.16655118763E+04  0.25500000000E-02 0.  1.
         -2   -1    0    0    0  501 -0.00000000000E+00 -0.00000000000E+00 -0.17683181390E+02  0.17683181574E+02  0.25500000000E-02 0. -1.
    5000001    1    1    2    0    0  0.10926596295E+03  0.32931490964E+02  0.90871454860E+03  0.92461595519E+03  0.12700000000E+03 0.  0.
   -5000001    1    1    2    0    0 -0.10926596295E+03 -0.32931490964E+02  0.73911414629E+03  0.75857910267E+03  0.12700000000E+03 0.  0.
<mgrwt>
<rscale>  0 0.34322907E+03</rscale>
<asrwt>0</asrwt>
<pdfrwt beam="1">  1        2 0.23793036E+00 0.34322907E+03</pdfrwt>
<pdfrwt beam="2">  1       -2 0.25261678E-02 0.34322907E+03</pdfrwt>
<totfact> 0.70746012E+03</totfact>
</mgrwt>
</event>
<event>
 4    1  0.9032007E-005  0.5250345E+03  0.7818608E-02  0.1007443E+00
         -2   -1    0    0    0  501 -0.00000000000E+00  0.00000000000E+00  0.52502052514E+02  0.52502052576E+02  0.25500000000E-02 0. -1.
          2   -1    0    0  501    0  0.00000000000E+00 -0.00000000000E+00 -0.13126214175E+04  0.13126214175E+04  0.25500000000E-02 0.  1.
    5000001    1    1    2    0    0 -0.22399751345E+03 -0.37896659225E+02 -0.54092351552E+03  0.60028184418E+03  0.12700000000E+03 0.  0.
   -5000001    1    1    2    0    0  0.22399751345E+03  0.37896659225E+02 -0.71919584946E+03  0.76484162589E+03  0.12700000000E+03 0.  0.
<mgrwt>
<rscale>  0 0.52503455E+03</rscale>
<asrwt>0</asrwt>
<pdfrwt beam="1">  1        2 0.18751732E+00 0.52503455E+03</pdfrwt>
<pdfrwt beam="2">  1       -2 0.75002941E-02 0.52503455E+03</pdfrwt>
<totfact> 0.20343209E+03</totfact>
</mgrwt>
</event>
<event>
 4    1  0.9032007E-005  0.4117262E+03  0.7818608E-02  0.1039793E+00
         -2   -1    0    0    0  501 -0.00000000000E+00  0.00000000000E+00  0.25398936621E+02  0.25398936749E+02  0.25500000000E-02 0. -1.
          2   -1    0    0  501    0  0.00000000000E+00 -0.00000000000E+00 -0.16685584714E+04  0.16685584714E+04  0.25500000000E-02 0.  1.
    5000001    1    1    2    0    0 -0.96445771689E+02 -0.18897446226E+02 -0.13515354950E+04  0.13610422824E+04  0.12700000000E+03 0.  0.
   -5000001    1    1    2    0    0  0.96445771689E+02  0.18897446226E+02 -0.29162403981E+03  0.33291512574E+03  0.12700000000E+03 0.  0.
<mgrwt>
<rscale>  0 0.41172618E+03</rscale>
<asrwt>0</asrwt>
<pdfrwt beam="1">  1        2 0.23836543E+00 0.41172618E+03</pdfrwt>
<pdfrwt beam="2">  1       -2 0.36284206E-02 0.41172618E+03</pdfrwt>
<totfact> 0.40945280E+03</totfact>
</mgrwt>
</event>
<event>
 4    1  0.9032007E-005  0.3980025E+03  0.7818608E-02  0.1044474E+00
         -2   -1    0    0    0  501 -0.00000000000E+00  0.00000000000E+00  0.19469070901E+02  0.19469071068E+02  0.25500000000E-02 0. -1.
          2   -1    0    0  501    0  0.00000000000E+00 -0.00000000000E+00 -0.20340719623E+04  0.20340719623E+04  0.25500000000E-02 0.  1.
    5000001    1    1    2    0    0 -0.15050529878E+03  0.25342193458E+02 -0.93838243812E+03  0.95915831431E+03  0.12700000000E+03 0.  0.
   -5000001    1    1    2    0    0  0.15050529878E+03 -0.25342193458E+02 -0.10762204533E+04  0.10943827191E+04  0.12700000000E+03 0.  0.
<mgrwt>
<rscale>  0 0.39800247E+03</rscale>
<asrwt>0</asrwt>
<pdfrwt beam="1">  1        2 0.29058157E+00 0.39800247E+03</pdfrwt>
<pdfrwt beam="2">  1       -2 0.27812971E-02 0.39800247E+03</pdfrwt>
<totfact> 0.40243726E+03</totfact>
</mgrwt>
</event>
<event>
 4    1  0.9032007E-005  0.6314865E+03  0.7818608E-02  0.9842152E-01
          2   -1    0    0  501    0  0.00000000000E+00  0.00000000000E+00  0.27794515514E+03  0.27794515515E+03  0.25500000000E-02 0.  1.
         -2   -1    0    0    0  501 -0.00000000000E+00 -0.00000000000E+00 -0.35868160797E+03  0.35868160797E+03  0.25500000000E-02 0. -1.
    5000001    1    1    2    0    0  0.85037128311E+02 -0.26224605407E+03 -0.12802718539E+03  0.32943021456E+03  0.12700000000E+03 0.  0.
   -5000001    1    1    2    0    0 -0.85037128311E+02  0.26224605407E+03  0.47290732568E+02  0.30719654857E+03  0.12700000000E+03 0.  0.
<mgrwt>
<rscale>  0 0.63148655E+03</rscale>
<asrwt>0</asrwt>
<pdfrwt beam="1">  1        2 0.39706451E-01 0.63148655E+03</pdfrwt>
<pdfrwt beam="2">  1       -2 0.51240229E-01 0.63148655E+03</pdfrwt>
<totfact> 0.47119163E+02</totfact>
</mgrwt>
</event>
<event>
 4    1  0.9032007E-005  0.3878000E+03  0.7818608E-02  0.1048088E+00
         -2   -1    0    0    0  501 -0.00000000000E+00  0.00000000000E+00  0.50280015932E+02  0.50280015996E+02  0.25500000000E-02 0.  1.
          2   -1    0    0  501    0  0.00000000000E+00 -0.00000000000E+00 -0.74775646118E+03  0.74775646119E+03  0.25500000000E-02 0. -1.
    5000001    1    1    2    0    0 -0.91533347182E+02 -0.74382072270E+02 -0.16984483874E+03  0.24266708794E+03  0.12700000000E+03 0.  0.
   -5000001    1    1    2    0    0  0.91533347182E+02  0.74382072270E+02 -0.52763160651E+03  0.55536938925E+03  0.12700000000E+03 0.  0.
<mgrwt>
<rscale>  0 0.38779998E+03</rscale>
<asrwt>0</asrwt>
<pdfrwt beam="1">  1        2 0.10682235E+00 0.38779998E+03</pdfrwt>
<pdfrwt beam="2">  1       -2 0.71828599E-02 0.38779998E+03</pdfrwt>
<totfact> 0.47731762E+03</totfact>
</mgrwt>
</event>
<event>
 4    1  0.9032007E-005  0.4854267E+03  0.7818608E-02  0.1017654E+00
         -2   -1    0    0    0  501 -0.00000000000E+00  0.00000000000E+00  0.50726971166E+02  0.50726971230E+02  0.25500000000E-02 0. -1.
          2   -1    0    0  501    0  0.00000000000E+00 -0.00000000000E+00 -0.11613106759E+04  0.11613106759E+04  0.25500000000E-02 0.  1.
    5000001    1    1    2    0    0 -0.47319417111E+02 -0.56708922192E+02 -0.72903652210E+02  0.16400905950E+03  0.12700000000E+03 0.  0.
   -5000001    1    1    2    0    0  0.47319417111E+02  0.56708922192E+02 -0.10376800525E+04  0.10480285876E+04  0.12700000000E+03 0.  0.
<mgrwt>
<rscale>  0 0.48542671E+03</rscale>
<asrwt>0</asrwt>
<pdfrwt beam="1">  1        2 0.16590151E+00 0.48542671E+03</pdfrwt>
<pdfrwt beam="2">  1       -2 0.72467109E-02 0.48542671E+03</pdfrwt>
<totfact> 0.26032644E+03</totfact>
</mgrwt>
</event>
<event>
 4    1  0.9032007E-005  0.9222985E+03  0.7818608E-02  0.9398129E-01
          2   -1    0    0  501    0  0.00000000000E+00  0.00000000000E+00  0.15234213520E+04  0.15234213520E+04  0.25500000000E-02 0.  1.
         -2   -1    0    0    0  501 -0.00000000000E+00 -0.00000000000E+00 -0.13959277738E+03  0.13959277740E+03  0.25500000000E-02 0. -1.
    5000001    1    1    2    0    0 -0.57565285436E+02  0.35014168053E+03  0.21275707030E+03  0.43279039904E+03  0.12700000000E+03 0.  0.
   -5000001    1    1    2    0    0  0.57565285436E+02 -0.35014168053E+03  0.11710715043E+04  0.12302237304E+04  0.12700000000E+03 0.  0.
<mgrwt>
<rscale>  0 0.92229847E+03</rscale>
<asrwt>0</asrwt>
<pdfrwt beam="1">  1        2 0.21763165E+00 0.92229847E+03</pdfrwt>
<pdfrwt beam="2">  1       -2 0.19941823E-01 0.92229847E+03</pdfrwt>
<totfact> 0.30509034E+02</totfact>
</mgrwt>
</event>
<event>
 4    1  0.9032007E-005  0.3517267E+03  0.7818608E-02  0.1061909E+00
          2   -1    0    0  501    0  0.00000000000E+00  0.00000000000E+00  0.44186933488E+03  0.44186933489E+03  0.25500000000E-02 0.  1.
         -2   -1    0    0    0  501 -0.00000000000E+00 -0.00000000000E+00 -0.69993350711E+02  0.69993350757E+02  0.25500000000E-02 0. -1.
    5000001    1    1    2    0    0  0.12216962087E+02 -0.67907580059E+02  0.40131606616E+02  0.15000079814E+03  0.12700000000E+03 0.  0.
   -5000001    1    1    2    0    0 -0.12216962087E+02  0.67907580059E+02  0.33174437755E+03  0.36186188751E+03  0.12700000000E+03 0.  0.
<mgrwt>
<rscale>  0 0.35172669E+03</rscale>
<asrwt>0</asrwt>
<pdfrwt beam="1">  1        2 0.63124189E-01 0.35172669E+03</pdfrwt>
<pdfrwt beam="2">  1       -2 0.99990504E-02 0.35172669E+03</pdfrwt>
<totfact> 0.51731499E+03</totfact>
</mgrwt>
</event>
<event>
 4    1  0.9032007E-005  0.3454474E+03  0.7818608E-02  0.1064499E+00
         -2   -1    0    0    0  501 -0.00000000000E+00  0.00000000000E+00  0.28238327200E+03  0.28238327201E+03  0.25500000000E-02 0. -1.
          2   -1    0    0  501    0  0.00000000000E+00 -0.00000000000E+00 -0.10564890868E+03  0.10564890871E+03  0.25500000000E-02 0.  1.
    5000001    1    1    2    0    0 -0.50844676530E+02 -0.10304403369E+03  0.63219120437E+02  0.18256207492E+03  0.12700000000E+03 0.  0.
   -5000001    1    1    2    0    0  0.50844676530E+02  0.10304403369E+03  0.11351524288E+03  0.20547010580E+03  0.12700000000E+03 0.  0.
<mgrwt>
<rscale>  0 0.34544745E+03</rscale>
<asrwt>0</asrwt>
<pdfrwt beam="1">  1        2 0.15092701E-01 0.34544745E+03</pdfrwt>
<pdfrwt beam="2">  1       -2 0.40340468E-01 0.34544745E+03</pdfrwt>
<totfact> 0.22784178E+03</totfact>
</mgrwt>
</event>
<event>
 4    1  0.9032007E-005  0.3728071E+03  0.7818608E-02  0.1053625E+00
          2   -1    0    0  501    0  0.00000000000E+00  0.00000000000E+00  0.35947938419E+04  0.35947938419E+04  0.25500000000E-02 0.  1.
         -2   -1    0    0    0  501 -0.00000000000E+00 -0.00000000000E+00 -0.96657210396E+01  0.96657213759E+01  0.25500000000E-02 0. -1.
    5000001    1    1    2    0    0  0.16140611564E+02 -0.10422428703E+03  0.95558530137E+03  0.96973990819E+03  0.12700000000E+03 0.  0.
   -5000001    1    1    2    0    0 -0.16140611564E+02  0.10422428703E+03  0.26295428195E+04  0.26347196551E+04  0.12700000000E+03 0.  0.
<mgrwt>
<rscale>  0 0.37280706E+03</rscale>
<asrwt>0</asrwt>
<pdfrwt beam="1">  1        2 0.51354305E+00 0.37280706E+03</pdfrwt>
<pdfrwt beam="2">  1       -2 0.13808144E-02 0.37280706E+03</pdfrwt>
<totfact> 0.16973474E+03</totfact>
</mgrwt>
</event>
<event>
 4    1  0.9032007E-005  0.4115447E+03  0.7818608E-02  0.1039854E+00
         -2   -1    0    0    0  501 -0.00000000000E+00  0.00000000000E+00  0.80400669769E+02  0.80400669810E+02  0.25500000000E-02 0. -1.
          2   -1    0    0  501    0  0.00000000000E+00 -0.00000000000E+00 -0.52664054597E+03  0.52664054597E+03  0.25500000000E-02 0.  1.
    5000001    1    1    2    0    0  0.15135940060E+03  0.37899173837E+02 -0.28685830603E+03  0.35037508939E+03  0.12700000000E+03 0.  0.
   -5000001    1    1    2    0    0 -0.15135940060E+03 -0.37899173837E+02 -0.15938157017E+03  0.25666612639E+03  0.12700000000E+03 0.  0.
<mgrwt>
<rscale>  0 0.41154466E+03</rscale>
<asrwt>0</asrwt>
<pdfrwt beam="1">  1        2 0.75234362E-01 0.41154466E+03</pdfrwt>
<pdfrwt beam="2">  1       -2 0.11485810E-01 0.41154466E+03</pdfrwt>
<totfact> 0.34130652E+03</totfact>
</mgrwt>
</event>
<event>
 4    1  0.9032007E-005  0.3023059E+03  0.7818608E-02  0.1084094E+00
         -2   -1    0    0    0  501 -0.00000000000E+00  0.00000000000E+00  0.12739881453E+02  0.12739881708E+02  0.25500000000E-02 0. -1.
          2   -1    0    0  501    0  0.00000000000E+00 -0.00000000000E+00 -0.17933616280E+04  0.17933616280E+04  0.25500000000E-02 0.  1.
    5000001    1    1    2    0    0  0.11004952450E+02 -0.73256568059E+02 -0.10998912596E+04  0.11096744643E+04  0.12700000000E+03 0.  0.
   -5000001    1    1    2    0    0 -0.11004952450E+02  0.73256568059E+02 -0.68073048701E+03  0.69642704549E+03  0.12700000000E+03 0.  0.
<mgrwt>
<rscale>  0 0.30230590E+03</rscale>
<asrwt>0</asrwt>
<pdfrwt beam="1">  1        2 0.25619436E+00 0.30230590E+03</pdfrwt>
<pdfrwt beam="2">  1       -2 0.18199842E-02 0.30230590E+03</pdfrwt>
<totfact> 0.99206682E+03</totfact>
</mgrwt>
</event>
<event>
 4    1  0.9032007E-005  0.3889235E+03  0.7818608E-02  0.1047684E+00
         -2   -1    0    0    0  501 -0.00000000000E+00  0.00000000000E+00  0.42195702359E+02  0.42195702436E+02  0.25500000000E-02 0. -1.
          2   -1    0    0  501    0  0.00000000000E+00 -0.00000000000E+00 -0.89619032586E+03  0.89619032586E+03  0.25500000000E-02 0.  1.
    5000001    1    1    2    0    0 -0.10053023001E+03 -0.10505972356E+03 -0.48319522941E+03  0.52033691238E+03  0.12700000000E+03 0.  0.
   -5000001    1    1    2    0    0  0.10053023001E+03  0.10505972356E+03 -0.37079939409E+03  0.41804911592E+03  0.12700000000E+03 0.  0.
<mgrwt>
<rscale>  0 0.38892354E+03</rscale>
<asrwt>0</asrwt>
<pdfrwt beam="1">  1        2 0.12802718E+00 0.38892354E+03</pdfrwt>
<pdfrwt beam="2">  1       -2 0.60279580E-02 0.38892354E+03</pdfrwt>
<totfact> 0.49850420E+03</totfact>
</mgrwt>
</event>
<event>
 4    1  0.9032007E-005  0.4412620E+03  0.7818608E-02  0.1030360E+00
         -2   -1    0    0    0  501 -0.00000000000E+00  0.00000000000E+00  0.92093543062E+02  0.92093543097E+02  0.25500000000E-02 0. -1.
          2   -1    0    0  501    0  0.00000000000E+00 -0.00000000000E+00 -0.52857164646E+03  0.52857164647E+03  0.25500000000E-02 0.  1.
    5000001    1    1    2    0    0 -0.60954845505E+02 -0.13660588855E+03 -0.36010299382E+03  0.41009733983E+03  0.12700000000E+03 0.  0.
   -5000001    1    1    2    0    0  0.60954845505E+02  0.13660588855E+03 -0.76375109577E+02  0.21056784973E+03  0.12700000000E+03 0.  0.
<mgrwt>
<rscale>  0 0.44126199E+03</rscale>
<asrwt>0</asrwt>
<pdfrwt beam="1">  1        2 0.75510234E-01 0.44126199E+03</pdfrwt>
<pdfrwt beam="2">  1       -2 0.13156221E-01 0.44126199E+03</pdfrwt>
<totfact> 0.27240715E+03</totfact>
</mgrwt>
</event>
<event>
 4    1  0.9032007E-005  0.3463292E+03  0.7818608E-02  0.1064132E+00
          2   -1    0    0  501    0  0.00000000000E+00  0.00000000000E+00  0.37810934172E+03  0.37810934173E+03  0.25500000000E-02 0.  1.
         -2   -1    0    0    0  501 -0.00000000000E+00 -0.00000000000E+00 -0.79305023084E+02  0.79305023125E+02  0.25500000000E-02 0. -1.
    5000001    1    1    2    0    0 -0.28806481004E+02  0.10784194214E+03  0.19877194813E+03  0.26095782263E+03  0.12700000000E+03 0.  0.
   -5000001    1    1    2    0    0  0.28806481004E+02 -0.10784194214E+03  0.10003237051E+03  0.19645654222E+03  0.12700000000E+03 0.  0.
<mgrwt>
<rscale>  0 0.34632915E+03</rscale>
<asrwt>0</asrwt>
<pdfrwt beam="1">  1        2 0.54015621E-01 0.34632915E+03</pdfrwt>
<pdfrwt beam="2">  1       -2 0.11329289E-01 0.34632915E+03</pdfrwt>
<totfact> 0.50161703E+03</totfact>
</mgrwt>
</event>
<event>
 4    1  0.9032007E-005  0.6405301E+03  0.7818608E-02  0.9824713E-01
         -2   -1    0    0    0  501 -0.00000000000E+00  0.00000000000E+00  0.30073631758E+03  0.30073631759E+03  0.25500000000E-02 0. -1.
          2   -1    0    0  501    0  0.00000000000E+00 -0.00000000000E+00 -0.34106188875E+03  0.34106188876E+03  0.25500000000E-02 0.  1.
    5000001    1    1    2    0    0 -0.25710851029E+03 -0.11926159196E+03  0.58175011909E+02  0.31597696972E+03  0.12700000000E+03 0.  0.
   -5000001    1    1    2    0    0  0.25710851029E+03  0.11926159196E+03 -0.98500583080E+02  0.32582123664E+03  0.12700000000E+03 0.  0.
<mgrwt>
<rscale>  0 0.64053008E+03</rscale>
<asrwt>0</asrwt>
<pdfrwt beam="1">  1        2 0.48723127E-01 0.64053008E+03</pdfrwt>
<pdfrwt beam="2">  1       -2 0.42962331E-01 0.64053008E+03</pdfrwt>
<totfact> 0.53472717E+02</totfact>
</mgrwt>
</event>
<event>
 4    1  0.9032007E-005  0.5261914E+03  0.7818608E-02  0.1007160E+00
          2   -1    0    0  501    0  0.00000000000E+00  0.00000000000E+00  0.66024095353E+03  0.66024095353E+03  0.25500000000E-02 0. -1.
         -2   -1    0    0    0  501 -0.00000000000E+00 -0.00000000000E+00 -0.10483952337E+03  0.10483952340E+03  0.25500000000E-02 0.  1.
    5000001    1    1    2    0    0  0.22973559253E+03  0.16409364598E+02  0.28719489727E+03  0.38943243155E+03  0.12700000000E+03 0.  0.
   -5000001    1    1    2    0    0 -0.22973559253E+03 -0.16409364598E+02  0.26820653289E+03  0.37564804539E+03  0.12700000000E+03 0.  0.
<mgrwt>
<rscale>  0 0.52619140E+03</rscale>
<asrwt>0</asrwt>
<pdfrwt beam="1">  1        2 0.94320134E-01 0.52619140E+03</pdfrwt>
<pdfrwt beam="2">  1       -2 0.14977075E-01 0.52619140E+03</pdfrwt>
<totfact> 0.16961909E+03</totfact>
</mgrwt>
</event>
<event>
 4    1  0.9032007E-005  0.3417737E+03  0.7818608E-02  0.1066043E+00
          2   -1    0    0  501    0  0.00000000000E+00  0.00000000000E+00  0.64283239690E+03  0.64283239690E+03  0.25500000000E-02 0.  1.
         -2   -1    0    0    0  501 -0.00000000000E+00 -0.00000000000E+00 -0.45427578240E+02  0.45427578312E+02  0.25500000000E-02 0. -1.
    5000001    1    1    2    0    0 -0.10723624658E+03  0.38628717753E+02  0.28051926936E+03  0.32834714998E+03  0.12700000000E+03 0.  0.
   -5000001    1    1    2    0    0  0.10723624658E+03 -0.38628717753E+02  0.31688554930E+03  0.35991282524E+03  0.12700000000E+03 0.  0.
<mgrwt>
<rscale>  0 0.34177372E+03</rscale>
<asrwt>0</asrwt>
<pdfrwt beam="1">  1        2 0.91833195E-01 0.34177372E+03</pdfrwt>
<pdfrwt beam="2">  1       -2 0.64896543E-02 0.34177372E+03</pdfrwt>
<totfact> 0.66823521E+03</totfact>
</mgrwt>
</event>
<event>
 4    1  0.9032007E-005  0.5698295E+03  0.7818608E-02  0.9970056E-01
         -2   -1    0    0    0  501 -0.00000000000E+00  0.00000000000E+00  0.26744330120E+02  0.26744330242E+02  0.25500000000E-02 0. -1.
          2   -1    0    0  501    0  0.00000000000E+00 -0.00000000000E+00 -0.30352756830E+04  0.30352756830E+04  0.25500000000E-02 0.  1.
    5000001    1    1    2    0    0  0.19271747196E+03  0.15026008341E+03 -0.18965474355E+04  0.19164392220E+04  0.12700000000E+03 0.  0.
   -5000001    1    1    2    0    0 -0.19271747196E+03 -0.15026008341E+03 -0.11119839174E+04  0.11455807912E+04  0.12700000000E+03 0.  0.
<mgrwt>
<rscale>  0 0.56982950E+03</rscale>
<asrwt>0</asrwt>
<pdfrwt beam="1">  1        2 0.43361059E+00 0.56982950E+03</pdfrwt>
<pdfrwt beam="2">  1       -2 0.38206205E-02 0.56982950E+03</pdfrwt>
<totfact> 0.75201419E+02</totfact>
</mgrwt>
</event>
<event>
 4    1  0.9032007E-005  0.5083948E+03  0.7818608E-02  0.1011611E+00
         -2   -1    0    0    0  501 -0.00000000000E+00  0.00000000000E+00  0.11063199899E+04  0.11063199899E+04  0.25500000000E-02 0.  1.
          2   -1    0    0  501    0  0.00000000000E+00 -0.00000000000E+00 -0.58406534385E+02  0.58406534441E+02  0.25500000000E-02 0. -1.
    5000001    1    1    2    0    0 -0.54488743456E+02  0.18425336121E+03  0.77037371132E+03  0.80406652670E+03  0.12700000000E+03 0.  0.
   -5000001    1    1    2    0    0  0.54488743456E+02 -0.18425336121E+03  0.27753974416E+03  0.36065999760E+03  0.12700000000E+03 0.  0.
<mgrwt>
<rscale>  0 0.50839479E+03</rscale>
<asrwt>0</asrwt>
<pdfrwt beam="1">  1        2 0.83437910E-02 0.50839479E+03</pdfrwt>
<pdfrwt beam="2">  1       -2 0.15804571E+00 0.50839479E+03</pdfrwt>
<totfact> 0.22250786E+02</totfact>
</mgrwt>
</event>
<event>
 4    1  0.9032007E-005  0.4320294E+03  0.7818608E-02  0.1033221E+00
         -2   -1    0    0    0  501 -0.00000000000E+00  0.00000000000E+00  0.60460855238E+02  0.60460855292E+02  0.25500000000E-02 0.  1.
          2   -1    0    0  501    0  0.00000000000E+00 -0.00000000000E+00 -0.77177771328E+03  0.77177771328E+03  0.25500000000E-02 0. -1.
    5000001    1    1    2    0    0  0.12708796751E+03 -0.10851827138E+03 -0.45399225774E+03  0.50016550940E+03  0.12700000000E+03 0.  0.
   -5000001    1    1    2    0    0 -0.12708796751E+03  0.10851827138E+03 -0.25732460030E+03  0.33207305917E+03  0.12700000000E+03 0.  0.
<mgrwt>
<rscale>  0 0.43202935E+03</rscale>
<asrwt>0</asrwt>
<pdfrwt beam="1">  1        2 0.11025395E+00 0.43202935E+03</pdfrwt>
<pdfrwt beam="2">  1       -2 0.86372655E-02 0.43202935E+03</pdfrwt>
<totfact> 0.34369694E+03</totfact>
</mgrwt>
</event>
<event>
 4    1  0.9032007E-005  0.4763892E+03  0.7818608E-02  0.1020132E+00
          2   -1    0    0  501    0  0.00000000000E+00  0.00000000000E+00  0.36095762652E+03  0.36095762653E+03  0.25500000000E-02 0.  1.
         -2   -1    0    0    0  501 -0.00000000000E+00 -0.00000000000E+00 -0.15718374132E+03  0.15718374134E+03  0.25500000000E-02 0. -1.
    5000001    1    1    2    0    0  0.72960217451E+02  0.11792320495E+03  0.26091579524E+03  0.32161332031E+03  0.12700000000E+03 0.  0.
   -5000001    1    1    2    0    0 -0.72960217451E+02 -0.11792320495E+03 -0.57141910042E+02  0.19652804756E+03  0.12700000000E+03 0.  0.
<mgrwt>
<rscale>  0 0.47638921E+03</rscale>
<asrwt>0</asrwt>
<pdfrwt beam="1">  1        2 0.51565375E-01 0.47638921E+03</pdfrwt>
<pdfrwt beam="2">  1       -2 0.22454820E-01 0.47638921E+03</pdfrwt>
<totfact> 0.16782666E+03</totfact>
</mgrwt>
</event>
<event>
 4    1  0.9032007E-005  0.3808328E+03  0.7818608E-02  0.1050626E+00
          2   -1    0    0  501    0  0.00000000000E+00  0.00000000000E+00  0.29540434460E+03  0.29540434461E+03  0.25500000000E-02 0.  1.
         -2   -1    0    0    0  501 -0.00000000000E+00 -0.00000000000E+00 -0.12274161473E+03  0.12274161476E+03  0.25500000000E-02 0. -1.
    5000001    1    1    2    0    0 -0.82877008010E+02  0.10697180870E+03  0.39517836607E+02  0.18974252482E+03  0.12700000000E+03 0.  0.
   -5000001    1    1    2    0    0  0.82877008010E+02 -0.10697180870E+03  0.13314489326E+03  0.22840343455E+03  0.12700000000E+03 0.  0.
<mgrwt>
<rscale>  0 0.38083280E+03</rscale>
<asrwt>0</asrwt>
<pdfrwt beam="1">  1        2 0.42200620E-01 0.38083280E+03</pdfrwt>
<pdfrwt beam="2">  1       -2 0.17534516E-01 0.38083280E+03</pdfrwt>
<totfact> 0.31928683E+03</totfact>
</mgrwt>
</event>
<event>
 4    1  0.9032007E-005  0.4747384E+03  0.7818608E-02  0.1020591E+00
          2   -1    0    0  501    0  0.00000000000E+00  0.00000000000E+00  0.59191628769E+02  0.59191628823E+02  0.25500000000E-02 0. -1.
         -2   -1    0    0    0  501 -0.00000000000E+00 -0.00000000000E+00 -0.95189363994E+03  0.95189363994E+03  0.25500000000E-02 0.  1.
    5000001    1    1    2    0    0 -0.87578388101E+02  0.16701440211E+03 -0.30109872537E+03  0.37729726608E+03  0.12700000000E+03 0.  0.
   -5000001    1    1    2    0    0  0.87578388101E+02 -0.16701440211E+03 -0.59160328581E+03  0.63378800269E+03  0.12700000000E+03 0.  0.
<mgrwt>
<rscale>  0 0.47473839E+03</rscale>
<asrwt>0</asrwt>
<pdfrwt beam="1">  1        2 0.84559475E-02 0.47473839E+03</pdfrwt>
<pdfrwt beam="2">  1       -2 0.13598480E+00 0.47473839E+03</pdfrwt>
<totfact> 0.32373359E+02</totfact>
</mgrwt>
</event>
<event>
 4    1  0.9032007E-005  0.3058084E+03  0.7818608E-02  0.1082373E+00
         -2   -1    0    0    0  501 -0.00000000000E+00  0.00000000000E+00  0.85836675300E+02  0.85836675337E+02  0.25500000000E-02 0. -1.
          2   -1    0    0  501    0  0.00000000000E+00 -0.00000000000E+00 -0.27237421664E+03  0.27237421665E+03  0.25500000000E-02 0.  1.
    5000001    1    1    2    0    0  0.53473529887E+02  0.66098622640E+02 -0.98794161889E+02  0.18198278143E+03  0.12700000000E+03 0.  0.
   -5000001    1    1    2    0    0 -0.53473529887E+02 -0.66098622640E+02 -0.87743379448E+02  0.17622811056E+03  0.12700000000E+03 0.  0.
<mgrwt>
<rscale>  0 0.30580842E+03</rscale>
<asrwt>0</asrwt>
<pdfrwt beam="1">  1        2 0.38910602E-01 0.30580842E+03</pdfrwt>
<pdfrwt beam="2">  1       -2 0.12262382E-01 0.30580842E+03</pdfrwt>
<totfact> 0.62713683E+03</totfact>
</mgrwt>
</event>
<event>
 4    1  0.9032007E-005  0.3508870E+03  0.7818608E-02  0.1062252E+00
         -2   -1    0    0    0  501 -0.00000000000E+00  0.00000000000E+00  0.16315713901E+02  0.16315714101E+02  0.25500000000E-02 0. -1.
          2   -1    0    0  501    0  0.00000000000E+00 -0.00000000000E+00 -0.18865502699E+04  0.18865502699E+04  0.25500000000E-02 0.  1.
    5000001    1    1    2    0    0  0.14743588379E+02  0.10455375908E+03 -0.12560642734E+04  0.12668762058E+04  0.12700000000E+03 0.  0.
   -5000001    1    1    2    0    0 -0.14743588379E+02 -0.10455375908E+03 -0.61417028258E+03  0.63598977818E+03  0.12700000000E+03 0.  0.
<mgrwt>
<rscale>  0 0.35088696E+03</rscale>
<asrwt>0</asrwt>
<pdfrwt beam="1">  1        2 0.26950704E+00 0.35088696E+03</pdfrwt>
<pdfrwt beam="2">  1       -2 0.23308175E-02 0.35088696E+03</pdfrwt>
<totfact> 0.61985296E+03</totfact>
</mgrwt>
</event>
<event>
 4    1  0.9032007E-005  0.4490646E+03  0.7818608E-02  0.1028001E+00
          2   -1    0    0  501    0  0.00000000000E+00  0.00000000000E+00  0.13312035824E+04  0.13312035824E+04  0.25500000000E-02 0.  1.
         -2   -1    0    0    0  501 -0.00000000000E+00 -0.00000000000E+00 -0.37871552946E+02  0.37871553032E+02  0.25500000000E-02 0. -1.
    5000001    1    1    2    0    0  0.12835493219E+03  0.90727331751E+02  0.94505693081E+03  0.96642021907E+03  0.12700000000E+03 0.  0.
   -5000001    1    1    2    0    0 -0.12835493219E+03 -0.90727331751E+02  0.34827509867E+03  0.40265491639E+03  0.12700000000E+03 0.  0.
<mgrwt>
<rscale>  0 0.44906457E+03</rscale>
<asrwt>0</asrwt>
<pdfrwt beam="1">  1        2 0.19017195E+00 0.44906457E+03</pdfrwt>
<pdfrwt beam="2">  1       -2 0.54102215E-02 0.44906457E+03</pdfrwt>
<totfact> 0.33160936E+03</totfact>
</mgrwt>
</event>
<event>
 4    1  0.9032007E-005  0.7658997E+03  0.7818608E-02  0.9610731E-01
          2   -1    0    0  501    0  0.00000000000E+00  0.00000000000E+00  0.17105849697E+04  0.17105849697E+04  0.25500000000E-02 0.  1.
         -2   -1    0    0    0  501 -0.00000000000E+00 -0.00000000000E+00 -0.85731247932E+02  0.85731247970E+02  0.25500000000E-02 0. -1.
    5000001    1    1    2    0    0 -0.27382057835E+03  0.23076569718E+03  0.92468811542E+03  0.99970376958E+03  0.12700000000E+03 0.  0.
   -5000001    1    1    2    0    0  0.27382057835E+03 -0.23076569718E+03  0.70016560631E+03  0.79661244805E+03  0.12700000000E+03 0.  0.
<mgrwt>
<rscale>  0 0.76589969E+03</rscale>
<asrwt>0</asrwt>
<pdfrwt beam="1">  1        2 0.24436929E+00 0.76589969E+03</pdfrwt>
<pdfrwt beam="2">  1       -2 0.12247321E-01 0.76589969E+03</pdfrwt>
<totfact> 0.56434801E+02</totfact>
</mgrwt>
</event>
<event>
 4    1  0.9032007E-005  0.3687716E+03  0.7818608E-02  0.1055164E+00
          2   -1    0    0  501    0  0.00000000000E+00  0.00000000000E+00  0.15633214994E+04  0.15633214994E+04  0.25500000000E-02 0.  1.
         -2   -1    0    0    0  501 -0.00000000000E+00 -0.00000000000E+00 -0.21747368442E+02  0.21747368591E+02  0.25500000000E-02 0. -1.
    5000001    1    1    2    0    0 -0.36418220525E+02 -0.11602535596E+03  0.10093668132E+04  0.10245674861E+04  0.12700000000E+03 0.  0.
   -5000001    1    1    2    0    0  0.36418220525E+02  0.11602535596E+03  0.53220731773E+03  0.56050138185E+03  0.12700000000E+03 0.  0.
<mgrwt>
<rscale>  0 0.36877163E+03</rscale>
<asrwt>0</asrwt>
<pdfrwt beam="1">  1        2 0.22333163E+00 0.36877163E+03</pdfrwt>
<pdfrwt beam="2">  1       -2 0.31067671E-02 0.36877163E+03</pdfrwt>
<totfact> 0.58466314E+03</totfact>
</mgrwt>
</event>
<event>
 4    1  0.9032007E-005  0.3063463E+03  0.7818608E-02  0.1082111E+00
          2   -1    0    0  501    0  0.00000000000E+00  0.00000000000E+00  0.93353298367E+03  0.93353298368E+03  0.25500000000E-02 0.  1.
         -2   -1    0    0    0  501 -0.00000000000E+00 -0.00000000000E+00 -0.25132495027E+02  0.25132495156E+02  0.25500000000E-02 0. -1.
    5000001    1    1    2    0    0 -0.84560476874E+02  0.12176543181E+02  0.47251983726E+03  0.49669179484E+03  0.12700000000E+03 0.  0.
   -5000001    1    1    2    0    0  0.84560476874E+02 -0.12176543181E+02  0.43588065138E+03  0.46197368399E+03  0.12700000000E+03 0.  0.
<mgrwt>
<rscale>  0 0.30634630E+03</rscale>
<asrwt>0</asrwt>
<pdfrwt beam="1">  1        2 0.13336182E+00 0.30634630E+03</pdfrwt>
<pdfrwt beam="2">  1       -2 0.35903573E-02 0.30634630E+03</pdfrwt>
<totfact> 0.10350890E+04</totfact>
</mgrwt>
</event>
<event>
 4    1  0.9032007E-005  0.3906150E+03  0.7818608E-02  0.1047079E+00
         -2   -1    0    0    0  501 -0.00000000000E+00  0.00000000000E+00  0.34156041671E+02  0.34156041766E+02  0.25500000000E-02 0. -1.
          2   -1    0    0  501    0  0.00000000000E+00 -0.00000000000E+00 -0.11167868836E+04  0.11167868836E+04  0.25500000000E-02 0.  1.
    5000001    1    1    2    0    0  0.10347483724E+03  0.30490321709E+02 -0.84150062022E+03  0.85783972599E+03  0.12700000000E+03 0.  0.
   -5000001    1    1    2    0    0 -0.10347483724E+03 -0.30490321709E+02 -0.24113022167E+03  0.29310319934E+03  0.12700000000E+03 0.  0.
<mgrwt>
<rscale>  0 0.39061500E+03</rscale>
<asrwt>0</asrwt>
<pdfrwt beam="1">  1        2 0.15954096E+00 0.39061500E+03</pdfrwt>
<pdfrwt beam="2">  1       -2 0.48794352E-02 0.39061500E+03</pdfrwt>
<totfact> 0.50939113E+03</totfact>
</mgrwt>
</event>
<event>
 4    1  0.9032007E-005  0.4303499E+03  0.7818608E-02  0.1033749E+00
          2   -1    0    0  501    0  0.00000000000E+00  0.00000000000E+00  0.23715181521E+04  0.23715181521E+04  0.25500000000E-02 0.  1.
         -2   -1    0    0    0  501 -0.00000000000E+00 -0.00000000000E+00 -0.19523468985E+02  0.19523469151E+02  0.25500000000E-02 0. -1.
    5000001    1    1    2    0    0 -0.47691768579E+02 -0.16640071192E+03  0.10959518634E+04  0.11167825162E+04  0.12700000000E+03 0.  0.
   -5000001    1    1    2    0    0  0.47691768579E+02  0.16640071192E+03  0.12560428197E+04  0.12742591050E+04  0.12700000000E+03 0.  0.
<mgrwt>
<rscale>  0 0.43034991E+03</rscale>
<asrwt>0</asrwt>
<pdfrwt beam="1">  1        2 0.33878830E+00 0.43034991E+03</pdfrwt>
<pdfrwt beam="2">  1       -2 0.27890670E-02 0.43034991E+03</pdfrwt>
<totfact> 0.27193982E+03</totfact>
</mgrwt>
</event>
<event>
 4    1  0.9032007E-005  0.5397532E+03  0.7818608E-02  0.1003894E+00
          2   -1    0    0  501    0  0.00000000000E+00  0.00000000000E+00  0.61355684646E+03  0.61355684646E+03  0.25500000000E-02 0.  1.
         -2   -1    0    0    0  501 -0.00000000000E+00 -0.00000000000E+00 -0.11870680995E+03  0.11870680998E+03  0.25500000000E-02 0. -1.
    5000001    1    1    2    0    0  0.21577164989E+03 -0.68008323533E+02  0.14661257646E+03  0.29800467202E+03  0.12700000000E+03 0.  0.
   -5000001    1    1    2    0    0 -0.21577164989E+03  0.68008323533E+02  0.34823746005E+03  0.43425898442E+03  0.12700000000E+03 0.  0.
<mgrwt>
<rscale>  0 0.53975319E+03</rscale>
<asrwt>0</asrwt>
<pdfrwt beam="1">  1        2 0.87650981E-01 0.53975319E+03</pdfrwt>
<pdfrwt beam="2">  1       -2 0.16958115E-01 0.53975319E+03</pdfrwt>
<totfact> 0.15000945E+03</totfact>
</mgrwt>
</event>
<event>
 4    1  0.9032007E-005  0.3299391E+03  0.7818608E-02  0.1071164E+00
          2   -1    0    0  501    0  0.00000000000E+00  0.00000000000E+00  0.23733458275E+04  0.23733458275E+04  0.25500000000E-02 0.  1.
         -2   -1    0    0    0  501 -0.00000000000E+00 -0.00000000000E+00 -0.11466916218E+02  0.11466916501E+02  0.25500000000E-02 0. -1.
    5000001    1    1    2    0    0  0.56951137788E+02 -0.73724021416E+02  0.82630160977E+03  0.84117894275E+03  0.12700000000E+03 0.  0.
   -5000001    1    1    2    0    0 -0.56951137788E+02  0.73724021416E+02  0.15355773015E+04  0.15436338012E+04  0.12700000000E+03 0.  0.
<mgrwt>
<rscale>  0 0.32993913E+03</rscale>
<asrwt>0</asrwt>
<pdfrwt beam="1">  1        2 0.33904951E+00 0.32993913E+03</pdfrwt>
<pdfrwt beam="2">  1       -2 0.16381304E-02 0.32993913E+03</pdfrwt>
<totfact> 0.60093816E+03</totfact>
</mgrwt>
</event>
<event>
 4    1  0.9032007E-005  0.5137711E+03  0.7818608E-02  0.1010246E+00
         -2   -1    0    0    0  501 -0.00000000000E+00  0.00000000000E+00  0.20014592551E+02  0.20014592713E+02  0.25500000000E-02 0. -1.
          2   -1    0    0  501    0  0.00000000000E+00 -0.00000000000E+00 -0.32971031173E+04  0.32971031173E+04  0.25500000000E-02 0.  1.
    5000001    1    1    2    0    0 -0.10278270941E+03 -0.16661518789E+03 -0.23320082981E+04  0.23436545412E+04  0.12700000000E+03 0.  0.
   -5000001    1    1    2    0    0  0.10278270941E+03  0.16661518789E+03 -0.94508022662E+03  0.97346316876E+03  0.12700000000E+03 0.  0.
<mgrwt>
<rscale>  0 0.51377106E+03</rscale>
<asrwt>0</asrwt>
<pdfrwt beam="1">  1        2 0.47101439E+00 0.51377106E+03</pdfrwt>
<pdfrwt beam="2">  1       -2 0.28592296E-02 0.51377106E+03</pdfrwt>
<totfact> 0.84039885E+02</totfact>
</mgrwt>
</event>
<event>
 4    1  0.9032007E-005  0.5642961E+03  0.7818608E-02  0.9982381E-01
          2   -1    0    0  501    0  0.00000000000E+00  0.00000000000E+00  0.19478004978E+04  0.19478004978E+04  0.25500000000E-02 0.  1.
         -2   -1    0    0    0  501 -0.00000000000E+00 -0.00000000000E+00 -0.40870465011E+02  0.40870465091E+02  0.25500000000E-02 0. -1.
    5000001    1    1    2    0    0 -0.83561054051E+02 -0.21179839178E+03  0.57328802792E+03  0.62978502004E+03  0.12700000000E+03 0.  0.
   -5000001    1    1    2    0    0  0.83561054051E+02  0.21179839178E+03  0.13336420049E+04  0.13588859428E+04  0.12700000000E+03 0.  0.
<mgrwt>
<rscale>  0 0.56429606E+03</rscale>
<asrwt>0</asrwt>
<pdfrwt beam="1">  1        2 0.27825731E+00 0.56429606E+03</pdfrwt>
<pdfrwt beam="2">  1       -2 0.58386359E-02 0.56429606E+03</pdfrwt>
<totfact> 0.14208446E+03</totfact>
</mgrwt>
</event>
<event>
 4    1  0.9032007E-005  0.3332865E+03  0.7818608E-02  0.1069692E+00
         -2   -1    0    0    0  501 -0.00000000000E+00  0.00000000000E+00  0.51550616238E+03  0.51550616238E+03  0.25500000000E-02 0. -1.
          2   -1    0    0  501    0  0.00000000000E+00 -0.00000000000E+00 -0.53869319167E+02  0.53869319227E+02  0.25500000000E-02 0.  1.
    5000001    1    1    2    0    0 -0.31311325498E+02  0.93601573098E+02  0.15636591973E+03  0.22432332568E+03  0.12700000000E+03 0.  0.
   -5000001    1    1    2    0    0  0.31311325498E+02 -0.93601573098E+02  0.30527092348E+03  0.34505215593E+03  0.12700000000E+03 0.  0.
<mgrwt>
<rscale>  0 0.33328646E+03</rscale>
<asrwt>0</asrwt>
<pdfrwt beam="1">  1        2 0.76956175E-02 0.33328646E+03</pdfrwt>
<pdfrwt beam="2">  1       -2 0.73643733E-01 0.33328646E+03</pdfrwt>
<totfact> 0.15348743E+03</totfact>
</mgrwt>
</event>
<event>
 4    1  0.9032007E-005  0.5854770E+03  0.7818608E-02  0.9936003E-01
          2   -1    0    0  501    0  0.00000000000E+00  0.00000000000E+00  0.47552597855E+03  0.47552597856E+03  0.25500000000E-02 0.  1.
         -2   -1    0    0    0  501 -0.00000000000E+00 -0.00000000000E+00 -0.18021270618E+03  0.18021270619E+03  0.25500000000E-02 0. -1.
    5000001    1    1    2    0    0 -0.17697959872E+03 -0.16318079411E+03  0.26939381436E+02  0.27350407712E+03  0.12700000000E+03 0.  0.
   -5000001    1    1    2    0    0  0.17697959872E+03  0.16318079411E+03  0.26837389094E+03  0.38223460763E+03  0.12700000000E+03 0.  0.
<mgrwt>
<rscale>  0 0.58547698E+03</rscale>
<asrwt>0</asrwt>
<pdfrwt beam="1">  1        2 0.67932284E-01 0.58547698E+03</pdfrwt>
<pdfrwt beam="2">  1       -2 0.25744672E-01 0.58547698E+03</pdfrwt>
<totfact> 0.96850146E+02</totfact>
</mgrwt>
</event>
<event>
 4    1  0.9032007E-005  0.3599616E+03  0.7818608E-02  0.1058599E+00
          2   -1    0    0  501    0  0.00000000000E+00  0.00000000000E+00  0.49766567582E+03  0.49766567582E+03  0.25500000000E-02 0.  1.
         -2   -1    0    0    0  501 -0.00000000000E+00 -0.00000000000E+00 -0.65090060117E+02  0.65090060167E+02  0.25500000000E-02 0. -1.
    5000001    1    1    2    0    0 -0.46400618298E+02  0.77806590090E+02  0.35661957236E+03  0.38924722508E+03  0.12700000000E+03 0.  0.
   -5000001    1    1    2    0    0  0.46400618298E+02 -0.77806590090E+02  0.75956043340E+02  0.17350851091E+03  0.12700000000E+03 0.  0.
<mgrwt>
<rscale>  0 0.35996160E+03</rscale>
<asrwt>0</asrwt>
<pdfrwt beam="1">  1        2 0.71095099E-01 0.35996160E+03</pdfrwt>
<pdfrwt beam="2">  1       -2 0.92985797E-02 0.35996160E+03</pdfrwt>
<totfact> 0.50946421E+03</totfact>
</mgrwt>
</event>
<event>
 4    1  0.9032007E-005  0.3496472E+03  0.7818608E-02  0.1062760E+00
          2   -1    0    0  501    0  0.00000000000E+00  0.00000000000E+00  0.39860444105E+03  0.39860444106E+03  0.25500000000E-02 0.  1.
         -2   -1    0    0    0  501 -0.00000000000E+00 -0.00000000000E+00 -0.76675757200E+02  0.76675757242E+02  0.25500000000E-02 0. -1.
    5000001    1    1    2    0    0 -0.64213728319E+02 -0.95068119574E+02  0.20946245008E+03  0.27049005205E+03  0.12700000000E+03 0.  0.
   -5000001    1    1    2    0    0  0.64213728319E+02  0.95068119574E+02  0.11246623377E+03  0.20479014626E+03  0.12700000000E+03 0.  0.
<mgrwt>
<rscale>  0 0.34964724E+03</rscale>
<asrwt>0</asrwt>
<pdfrwt beam="1">  1        2 0.56943494E-01 0.34964724E+03</pdfrwt>
<pdfrwt beam="2">  1       -2 0.10953679E-01 0.34964724E+03</pdfrwt>
<totfact> 0.50015959E+03</totfact>
</mgrwt>
</event>
<event>
 4    1  0.9032007E-005  0.3931943E+03  0.7818608E-02  0.1046162E+00
          2   -1    0    0  501    0  0.00000000000E+00  0.00000000000E+00  0.28123359254E+02  0.28123359370E+02  0.25500000000E-02 0.  1.
         -2   -1    0    0    0  501 -0.00000000000E+00 -0.00000000000E+00 -0.13743178886E+04  0.13743178886E+04  0.25500000000E-02 0. -1.
    5000001    1    1    2    0    0 -0.13774668433E+03  0.42956499119E+02 -0.52594716185E+03  0.55997216619E+03  0.12700000000E+03 0.  0.
   -5000001    1    1    2    0    0  0.13774668433E+03 -0.42956499119E+02 -0.82024736748E+03  0.84246908176E+03  0.12700000000E+03 0.  0.
<mgrwt>
<rscale>  0 0.39319428E+03</rscale>
<asrwt>0</asrwt>
<pdfrwt beam="1">  1        2 0.40176236E-02 0.39319428E+03</pdfrwt>
<pdfrwt beam="2">  1       -2 0.19633108E+00 0.39319428E+03</pdfrwt>
<totfact> 0.32116859E+02</totfact>
</mgrwt>
</event>
<event>
 4    1  0.9032007E-005  0.7489563E+03  0.7818608E-02  0.9636989E-01
          2   -1    0    0  501    0  0.00000000000E+00  0.00000000000E+00  0.96284627112E+03  0.96284627112E+03  0.25500000000E-02 0.  1.
         -2   -1    0    0    0  501 -0.00000000000E+00 -0.00000000000E+00 -0.14564515196E+03  0.14564515198E+03  0.25500000000E-02 0. -1.
    5000001    1    1    2    0    0  0.54840993214E+02  0.33313095720E+03  0.25970210681E+03  0.44447491883E+03  0.12700000000E+03 0.  0.
   -5000001    1    1    2    0    0 -0.54840993214E+02 -0.33313095720E+03  0.55749901235E+03  0.66401650428E+03  0.12700000000E+03 0.  0.
<mgrwt>
<rscale>  0 0.74895632E+03</rscale>
<asrwt>0</asrwt>
<pdfrwt beam="1">  1        2 0.13754947E+00 0.74895632E+03</pdfrwt>
<pdfrwt beam="2">  1       -2 0.20806450E-01 0.74895632E+03</pdfrwt>
<totfact> 0.59174370E+02</totfact>
</mgrwt>
</event>
<event>
 4    1  0.9032007E-005  0.2916430E+03  0.7818608E-02  0.1089494E+00
          2   -1    0    0  501    0  0.00000000000E+00  0.00000000000E+00  0.43222016252E+03  0.43222016252E+03  0.25500000000E-02 0. -1.
         -2   -1    0    0    0  501 -0.00000000000E+00 -0.00000000000E+00 -0.49196952925E+02  0.49196952991E+02  0.25500000000E-02 0.  1.
    5000001    1    1    2    0    0  0.40493482256E+02 -0.15072411102E+02  0.97146384282E+02  0.16563006871E+03  0.12700000000E+03 0.  0.
   -5000001    1    1    2    0    0 -0.40493482256E+02  0.15072411102E+02  0.28587682531E+03  0.31578704681E+03  0.12700000000E+03 0.  0.
<mgrwt>
<rscale>  0 0.29164304E+03</rscale>
<asrwt>0</asrwt>
<pdfrwt beam="1">  1        2 0.61745744E-01 0.29164304E+03</pdfrwt>
<pdfrwt beam="2">  1       -2 0.70281354E-02 0.29164304E+03</pdfrwt>
<totfact> 0.91774176E+03</totfact>
</mgrwt>
</event>
<event>
 4    1  0.9032007E-005  0.4206579E+03  0.7818608E-02  0.1036852E+00
          2   -1    0    0  501    0  0.00000000000E+00  0.00000000000E+00  0.12457724108E+04  0.12457724108E+04  0.25500000000E-02 0.  1.
         -2   -1    0    0    0  501 -0.00000000000E+00 -0.00000000000E+00 -0.35510708755E+02  0.35510708846E+02  0.25500000000E-02 0. -1.
    5000001    1    1    2    0    0 -0.51869048997E+01  0.15106090008E+03  0.82609977096E+03  0.84936219076E+03  0.12700000000E+03 0.  0.
   -5000001    1    1    2    0    0  0.51869048997E+01 -0.15106090008E+03  0.38416193106E+03  0.43192092886E+03  0.12700000000E+03 0.  0.
<mgrwt>
<rscale>  0 0.42065787E+03</rscale>
<asrwt>0</asrwt>
<pdfrwt beam="1">  1        2 0.17796754E+00 0.42065787E+03</pdfrwt>
<pdfrwt beam="2">  1       -2 0.50729568E-02 0.42065787E+03</pdfrwt>
<totfact> 0.40711454E+03</totfact>
</mgrwt>
</event>
<event>
 4    1  0.9032007E-005  0.3361636E+03  0.7818608E-02  0.1068442E+00
          2   -1    0    0  501    0  0.00000000000E+00  0.00000000000E+00  0.11338388342E+04  0.11338388342E+04  0.25500000000E-02 0.  1.
         -2   -1    0    0    0  501 -0.00000000000E+00 -0.00000000000E+00 -0.24916672830E+02  0.24916672961E+02  0.25500000000E-02 0. -1.
    5000001    1    1    2    0    0  0.13342507920E+02  0.10507501412E+03  0.45083818405E+03  0.48021125488E+03  0.12700000000E+03 0.  0.
   -5000001    1    1    2    0    0 -0.13342507920E+02 -0.10507501412E+03  0.65808397733E+03  0.67854425230E+03  0.12700000000E+03 0.  0.
<mgrwt>
<rscale>  0 0.33616360E+03</rscale>
<asrwt>0</asrwt>
<pdfrwt beam="1">  1        2 0.16197698E+00 0.33616360E+03</pdfrwt>
<pdfrwt beam="2">  1       -2 0.35595245E-02 0.33616360E+03</pdfrwt>
<totfact> 0.80242394E+03</totfact>
</mgrwt>
</event>
<event>
 4    1  0.9032007E-005  0.3565621E+03  0.7818608E-02  0.1059953E+00
         -2   -1    0    0    0  501 -0.00000000000E+00  0.00000000000E+00  0.18852260239E+02  0.18852260412E+02  0.25500000000E-02 0. -1.
          2   -1    0    0  501    0  0.00000000000E+00 -0.00000000000E+00 -0.16859584210E+04  0.16859584210E+04  0.25500000000E-02 0.  1.
    5000001    1    1    2    0    0  0.68976139212E+02 -0.77296885202E+02 -0.49809460515E+03  0.52436604764E+03  0.12700000000E+03 0.  0.
   -5000001    1    1    2    0    0 -0.68976139212E+02  0.77296885202E+02 -0.11690115556E+04  0.11804446338E+04  0.12700000000E+03 0.  0.
<mgrwt>
<rscale>  0 0.35656207E+03</rscale>
<asrwt>0</asrwt>
<pdfrwt beam="1">  1        2 0.24085111E+00 0.35656207E+03</pdfrwt>
<pdfrwt beam="2">  1       -2 0.26931811E-02 0.35656207E+03</pdfrwt>
<totfact> 0.62827113E+03</totfact>
</mgrwt>
</event>
<event>
 4    1  0.9032007E-005  0.3113082E+03  0.7818608E-02  0.1079720E+00
         -2   -1    0    0    0  501 -0.00000000000E+00  0.00000000000E+00  0.37681338962E+02  0.37681339048E+02  0.25500000000E-02 0. -1.
          2   -1    0    0  501    0  0.00000000000E+00 -0.00000000000E+00 -0.64297621149E+03  0.64297621149E+03  0.25500000000E-02 0.  1.
    5000001    1    1    2    0    0 -0.38749320138E+02 -0.54627493814E+02 -0.17121456679E+03  0.22344820602E+03  0.12700000000E+03 0.  0.
   -5000001    1    1    2    0    0  0.38749320138E+02  0.54627493814E+02 -0.43408030573E+03  0.45720934452E+03  0.12700000000E+03 0.  0.
<mgrwt>
<rscale>  0 0.31130824E+03</rscale>
<asrwt>0</asrwt>
<pdfrwt beam="1">  1        2 0.91853738E-01 0.31130824E+03</pdfrwt>
<pdfrwt beam="2">  1       -2 0.53830488E-02 0.31130824E+03</pdfrwt>
<totfact> 0.88845060E+03</totfact>
</mgrwt>
</event>
<event>
 4    1  0.9032007E-005  0.4971987E+03  0.7818608E-02  0.1014513E+00
          2   -1    0    0  501    0  0.00000000000E+00  0.00000000000E+00  0.13951230956E+04  0.13951230956E+04  0.25500000000E-02 0.  1.
         -2   -1    0    0    0  501 -0.00000000000E+00 -0.00000000000E+00 -0.44298346085E+02  0.44298346158E+02  0.25500000000E-02 0. -1.
    5000001    1    1    2    0    0  0.95937349665E+02 -0.15190253421E+03  0.10104686945E+04  0.10341442537E+04  0.12700000000E+03 0.  0.
   -5000001    1    1    2    0    0 -0.95937349665E+02  0.15190253421E+03  0.34035605509E+03  0.40527718810E+03  0.12700000000E+03 0.  0.
<mgrwt>
<rscale>  0 0.49719874E+03</rscale>
<asrwt>0</asrwt>
<pdfrwt beam="1">  1        2 0.19930329E+00 0.49719874E+03</pdfrwt>
<pdfrwt beam="2">  1       -2 0.63283355E-02 0.49719874E+03</pdfrwt>
<totfact> 0.24026471E+03</totfact>
</mgrwt>
</event>
<event>
 4    1  0.9032007E-005  0.3317899E+03  0.7818608E-02  0.1070348E+00
         -2   -1    0    0    0  501 -0.00000000000E+00  0.00000000000E+00  0.15549198533E+03  0.15549198535E+03  0.25500000000E-02 0. -1.
          2   -1    0    0  501    0  0.00000000000E+00 -0.00000000000E+00 -0.17699389168E+03  0.17699389170E+03  0.25500000000E-02 0.  1.
    5000001    1    1    2    0    0 -0.81945860250E+01 -0.75855910785E+02 -0.85545723214E+02  0.17107992635E+03  0.12700000000E+03 0.  0.
   -5000001    1    1    2    0    0  0.81945860250E+01  0.75855910785E+02  0.64043816870E+02  0.16140595070E+03  0.12700000000E+03 0.  0.
<mgrwt>
<rscale>  0 0.33178988E+03</rscale>
<asrwt>0</asrwt>
<pdfrwt beam="1">  1        2 0.25284842E-01 0.33178988E+03</pdfrwt>
<pdfrwt beam="2">  1       -2 0.22213141E-01 0.33178988E+03</pdfrwt>
<totfact> 0.37276643E+03</totfact>
</mgrwt>
</event>
<event>
 4    1  0.9032007E-005  0.4926631E+03  0.7818608E-02  0.1015712E+00
         -2   -1    0    0    0  501 -0.00000000000E+00  0.00000000000E+00  0.12812861113E+03  0.12812861116E+03  0.25500000000E-02 0. -1.
          2   -1    0    0  501    0  0.00000000000E+00 -0.00000000000E+00 -0.47358070129E+03  0.47358070130E+03  0.25500000000E-02 0.  1.
    5000001    1    1    2    0    0 -0.11151264269E+03  0.16658669997E+03 -0.25340885469E+03  0.34717610189E+03  0.12700000000E+03 0.  0.
   -5000001    1    1    2    0    0  0.11151264269E+03 -0.16658669997E+03 -0.92043235471E+02  0.25453321057E+03  0.12700000000E+03 0.  0.
<mgrwt>
<rscale>  0 0.49266312E+03</rscale>
<asrwt>0</asrwt>
<pdfrwt beam="1">  1        2 0.67654385E-01 0.49266312E+03</pdfrwt>
<pdfrwt beam="2">  1       -2 0.18304087E-01 0.49266312E+03</pdfrwt>
<totfact> 0.17719548E+03</totfact>
</mgrwt>
</event>
<event>
 4    1  0.9032007E-005  0.6647445E+03  0.7818608E-02  0.9779499E-01
          2   -1    0    0  501    0  0.00000000000E+00  0.00000000000E+00  0.14562069249E+04  0.14562069249E+04  0.25500000000E-02 0.  1.
         -2   -1    0    0    0  501 -0.00000000000E+00 -0.00000000000E+00 -0.75862382603E+02  0.75862382645E+02  0.25500000000E-02 0. -1.
    5000001    1    1    2    0    0  0.26432159389E+03  0.30929111448E+02  0.33671204237E+03  0.44757850083E+03  0.12700000000E+03 0.  0.
   -5000001    1    1    2    0    0 -0.26432159389E+03 -0.30929111448E+02  0.10436324999E+04  0.10844908067E+04  0.12700000000E+03 0.  0.
<mgrwt>
<rscale>  0 0.66474454E+03</rscale>
<asrwt>0</asrwt>
<pdfrwt beam="1">  1        2 0.20802955E+00 0.66474454E+03</pdfrwt>
<pdfrwt beam="2">  1       -2 0.10837484E-01 0.66474454E+03</pdfrwt>
<totfact> 0.93981964E+02</totfact>
</mgrwt>
</event>
<event>
 4    1  0.9032007E-005  0.3131067E+03  0.7818608E-02  0.1078866E+00
          2   -1    0    0  501    0  0.00000000000E+00  0.00000000000E+00  0.25835142079E+04  0.25835142079E+04  0.25500000000E-02 0.  1.
         -2   -1    0    0    0  501 -0.00000000000E+00 -0.00000000000E+00 -0.94866712387E+01  0.94866715814E+01  0.25500000000E-02 0. -1.
    5000001    1    1    2    0    0 -0.78316232556E+02  0.47271684868E+02  0.12584384219E+04  0.12681341830E+04  0.12700000000E+03 0.  0.
   -5000001    1    1    2    0    0  0.78316232556E+02 -0.47271684868E+02  0.13155891148E+04  0.13248666964E+04  0.12700000000E+03 0.  0.
<mgrwt>
<rscale>  0 0.31310669E+03</rscale>
<asrwt>0</asrwt>
<pdfrwt beam="1">  1        2 0.36907376E+00 0.31310669E+03</pdfrwt>
<pdfrwt beam="2">  1       -2 0.13552377E-02 0.31310669E+03</pdfrwt>
<totfact> 0.62308978E+03</totfact>
</mgrwt>
</event>
<event>
 4    1  0.9032007E-005  0.4340282E+03  0.7818608E-02  0.1032595E+00
         -2   -1    0    0    0  501 -0.00000000000E+00  0.00000000000E+00  0.15015577757E+03  0.15015577760E+03  0.25500000000E-02 0. -1.
          2   -1    0    0  501    0  0.00000000000E+00 -0.00000000000E+00 -0.31364174754E+03  0.31364174755E+03  0.25500000000E-02 0.  1.
    5000001    1    1    2    0    0  0.57983603715E+02  0.12608701814E+03  0.33872586727E+02  0.19114493604E+03  0.12700000000E+03 0.  0.
   -5000001    1    1    2    0    0 -0.57983603715E+02 -0.12608701814E+03 -0.19735855669E+03  0.27265258910E+03  0.12700000000E+03 0.  0.
<mgrwt>
<rscale>  0 0.43402820E+03</rscale>
<asrwt>0</asrwt>
<pdfrwt beam="1">  1        2 0.44805964E-01 0.43402820E+03</pdfrwt>
<pdfrwt beam="2">  1       -2 0.21450825E-01 0.43402820E+03</pdfrwt>
<totfact> 0.21190151E+03</totfact>
</mgrwt>
</event>
<event>
 4    1  0.9032007E-005  0.5259423E+03  0.7818608E-02  0.1007221E+00
          2   -1    0    0  501    0  0.00000000000E+00  0.00000000000E+00  0.23079545600E+04  0.23079545600E+04  0.25500000000E-02 0.  1.
         -2   -1    0    0    0  501 -0.00000000000E+00 -0.00000000000E+00 -0.29963257252E+02  0.29963257361E+02  0.25500000000E-02 0. -1.
    5000001    1    1    2    0    0  0.71996381184E+02 -0.15290134441E+03  0.18342470126E+04  0.18463892881E+04  0.12700000000E+03 0.  0.
   -5000001    1    1    2    0    0 -0.71996381184E+02  0.15290134441E+03  0.44374429013E+03  0.49152852923E+03  0.12700000000E+03 0.  0.
<mgrwt>
<rscale>  0 0.52594234E+03</rscale>
<asrwt>0</asrwt>
<pdfrwt beam="1">  1        2 0.32970773E+00 0.52594234E+03</pdfrwt>
<pdfrwt beam="2">  1       -2 0.42804662E-02 0.52594234E+03</pdfrwt>
<totfact> 0.15189166E+03</totfact>
</mgrwt>
</event>
<event>
 4    1  0.9032007E-005  0.8285255E+03  0.7818608E-02  0.9519621E-01
          2   -1    0    0  501    0  0.00000000000E+00  0.00000000000E+00  0.91271832989E+03  0.91271832990E+03  0.25500000000E-02 0.  1.
         -2   -1    0    0    0  501 -0.00000000000E+00 -0.00000000000E+00 -0.18802473424E+03  0.18802473425E+03  0.25500000000E-02 0. -1.
    5000001    1    1    2    0    0 -0.33438440976E+03  0.53257639415E+02  0.63081819432E+03  0.72712440746E+03  0.12700000000E+03 0.  0.
   -5000001    1    1    2    0    0  0.33438440976E+03 -0.53257639415E+02  0.93875401340E+02  0.37361865669E+03  0.12700000000E+03 0.  0.
<mgrwt>
<rscale>  0 0.82852549E+03</rscale>
<asrwt>0</asrwt>
<pdfrwt beam="1">  1        2 0.13038834E+00 0.82852549E+03</pdfrwt>
<pdfrwt beam="2">  1       -2 0.26860676E-01 0.82852549E+03</pdfrwt>
<totfact> 0.40193173E+02</totfact>
</mgrwt>
</event>
<event>
 4    1  0.9032007E-005  0.3018798E+03  0.7818608E-02  0.1084305E+00
          2   -1    0    0  501    0  0.00000000000E+00  0.00000000000E+00  0.73170699589E+02  0.73170699634E+02  0.25500000000E-02 0. -1.
         -2   -1    0    0    0  501 -0.00000000000E+00 -0.00000000000E+00 -0.31136576466E+03  0.31136576467E+03  0.25500000000E-02 0.  1.
    5000001    1    1    2    0    0  0.29066168054E+01  0.72742075730E+02 -0.16596933805E+03  0.22130223491E+03  0.12700000000E+03 0.  0.
   -5000001    1    1    2    0    0 -0.29066168054E+01 -0.72742075730E+02 -0.72225727023E+02  0.16323422940E+03  0.12700000000E+03 0.  0.
<mgrwt>
<rscale>  0 0.30187978E+03</rscale>
<asrwt>0</asrwt>
<pdfrwt beam="1">  1        2 0.10452957E-01 0.30187978E+03</pdfrwt>
<pdfrwt beam="2">  1       -2 0.44480823E-01 0.30187978E+03</pdfrwt>
<totfact> 0.29381955E+03</totfact>
</mgrwt>
</event>
<event>
 4    1  0.9032007E-005  0.3513327E+03  0.7818608E-02  0.1062069E+00
          2   -1    0    0  501    0  0.00000000000E+00  0.00000000000E+00  0.11071452478E+04  0.11071452478E+04  0.25500000000E-02 0. -1.
         -2   -1    0    0    0  501 -0.00000000000E+00 -0.00000000000E+00 -0.27872290026E+02  0.27872290143E+02  0.25500000000E-02 0.  1.
    5000001    1    1    2    0    0  0.11964782701E+03  0.52359137195E+00  0.47391950690E+03  0.50501938149E+03  0.12700000000E+03 0.  0.
   -5000001    1    1    2    0    0 -0.11964782701E+03 -0.52359137195E+00  0.60535345088E+03  0.62999815647E+03  0.12700000000E+03 0.  0.
<mgrwt>
<rscale>  0 0.35133274E+03</rscale>
<asrwt>0</asrwt>
<pdfrwt beam="1">  1        2 0.15816357E+00 0.35133274E+03</pdfrwt>
<pdfrwt beam="2">  1       -2 0.39817566E-02 0.35133274E+03</pdfrwt>
<totfact> 0.70198518E+03</totfact>
</mgrwt>
</event>
<event>
 4    1  0.9032007E-005  0.3142283E+03  0.7818608E-02  0.1078337E+00
         -2   -1    0    0    0  501 -0.00000000000E+00  0.00000000000E+00  0.23776572571E+02  0.23776572708E+02  0.25500000000E-02 0. -1.
          2   -1    0    0  501    0  0.00000000000E+00 -0.00000000000E+00 -0.10382008083E+04  0.10382008083E+04  0.25500000000E-02 0.  1.
    5000001    1    1    2    0    0 -0.56559508578E+02 -0.30520762001E+02 -0.73203699544E+03  0.74574637620E+03  0.12700000000E+03 0.  0.
   -5000001    1    1    2    0    0  0.56559508578E+02  0.30520762001E+02 -0.28238724026E+03  0.31623100478E+03  0.12700000000E+03 0.  0.
<mgrwt>
<rscale>  0 0.31422831E+03</rscale>
<asrwt>0</asrwt>
<pdfrwt beam="1">  1        2 0.14831437E+00 0.31422831E+03</pdfrwt>
<pdfrwt beam="2">  1       -2 0.33966539E-02 0.31422831E+03</pdfrwt>
<totfact> 0.97468671E+03</totfact>
</mgrwt>
</event>
<event>
 4    1  0.9032007E-005  0.3796424E+03  0.7818608E-02  0.1051066E+00
         -2   -1    0    0    0  501 -0.00000000000E+00  0.00000000000E+00  0.94351424897E+02  0.94351424931E+02  0.25500000000E-02 0. -1.
          2   -1    0    0  501    0  0.00000000000E+00 -0.00000000000E+00 -0.38189230940E+03  0.38189230941E+03  0.25500000000E-02 0.  1.
    5000001    1    1    2    0    0 -0.14046146005E+03 -0.67007649777E+01 -0.15800512163E+03  0.24671631578E+03  0.12700000000E+03 0.  0.
   -5000001    1    1    2    0    0  0.14046146005E+03  0.67007649777E+01 -0.12953576288E+03  0.22952741857E+03  0.12700000000E+03 0.  0.
<mgrwt>
<rscale>  0 0.37964238E+03</rscale>
<asrwt>0</asrwt>
<pdfrwt beam="1">  1        2 0.54556043E-01 0.37964238E+03</pdfrwt>
<pdfrwt beam="2">  1       -2 0.13478775E-01 0.37964238E+03</pdfrwt>
<totfact> 0.37456612E+03</totfact>
</mgrwt>
</event>
<event>
 4    1  0.9032007E-005  0.5556756E+03  0.7818608E-02  0.1000189E+00
         -2   -1    0    0    0  501 -0.00000000000E+00  0.00000000000E+00  0.98612279174E+02  0.98612279207E+02  0.25500000000E-02 0. -1.
          2   -1    0    0  501    0  0.00000000000E+00 -0.00000000000E+00 -0.78280162397E+03  0.78280162397E+03  0.25500000000E-02 0.  1.
    5000001    1    1    2    0    0 -0.11896501288E+02  0.21988892005E+03 -0.51994881440E+03  0.57876457519E+03  0.12700000000E+03 0.  0.
   -5000001    1    1    2    0    0  0.11896501288E+02 -0.21988892005E+03 -0.16424053039E+03  0.30264932798E+03  0.12700000000E+03 0.  0.
<mgrwt>
<rscale>  0 0.55567563E+03</rscale>
<asrwt>0</asrwt>
<pdfrwt beam="1">  1        2 0.11182880E+00 0.55567563E+03</pdfrwt>
<pdfrwt beam="2">  1       -2 0.14087469E-01 0.55567563E+03</pdfrwt>
<totfact> 0.15240292E+03</totfact>
</mgrwt>
</event>
<event>
 4    1  0.9032007E-005  0.3845723E+03  0.7818608E-02  0.1049257E+00
          2   -1    0    0  501    0  0.00000000000E+00  0.00000000000E+00  0.20098982100E+03  0.20098982102E+03  0.25500000000E-02 0.  1.
         -2   -1    0    0    0  501 -0.00000000000E+00 -0.00000000000E+00 -0.18395938510E+03  0.18395938512E+03  0.25500000000E-02 0. -1.
    5000001    1    1    2    0    0  0.12682622221E+03 -0.68780777201E+02  0.13931429966E+02  0.19271422027E+03  0.12700000000E+03 0.  0.
   -5000001    1    1    2    0    0 -0.12682622221E+03  0.68780777201E+02  0.30990059378E+01  0.19223498587E+03  0.12700000000E+03 0.  0.
<mgrwt>
<rscale>  0 0.38457230E+03</rscale>
<asrwt>0</asrwt>
<pdfrwt beam="1">  1        2 0.28712832E-01 0.38457230E+03</pdfrwt>
<pdfrwt beam="2">  1       -2 0.26279912E-01 0.38457230E+03</pdfrwt>
<totfact> 0.24103449E+03</totfact>
</mgrwt>
</event>
<event>
 4    1  0.9032007E-005  0.3679698E+03  0.7818608E-02  0.1055472E+00
          2   -1    0    0  501    0  0.00000000000E+00  0.00000000000E+00  0.17388425590E+03  0.17388425592E+03  0.25500000000E-02 0.  1.
         -2   -1    0    0    0  501 -0.00000000000E+00 -0.00000000000E+00 -0.19467224067E+03  0.19467224068E+03  0.25500000000E-02 0. -1.
    5000001    1    1    2    0    0 -0.62902290971E+02  0.11474705117E+03  0.14096042988E+02  0.18289691739E+03  0.12700000000E+03 0.  0.
   -5000001    1    1    2    0    0  0.62902290971E+02 -0.11474705117E+03 -0.34884027757E+02  0.18565957921E+03  0.12700000000E+03 0.  0.
<mgrwt>
<rscale>  0 0.36796977E+03</rscale>
<asrwt>0</asrwt>
<pdfrwt beam="1">  1        2 0.24840608E-01 0.36796977E+03</pdfrwt>
<pdfrwt beam="2">  1       -2 0.27810320E-01 0.36796977E+03</pdfrwt>
<totfact> 0.25588184E+03</totfact>
</mgrwt>
</event>
<event>
 4    1  0.9032007E-005  0.9034397E+03  0.7818608E-02  0.9421292E-01
         -2   -1    0    0    0  501 -0.00000000000E+00  0.00000000000E+00  0.11509295433E+03  0.11509295436E+03  0.25500000000E-02 0. -1.
          2   -1    0    0  501    0  0.00000000000E+00 -0.00000000000E+00 -0.17729220067E+04  0.17729220067E+04  0.25500000000E-02 0.  1.
    5000001    1    1    2    0    0  0.14993075221E+02  0.39079987127E+03 -0.43810099679E+03  0.60084175544E+03  0.12700000000E+03 0.  0.
   -5000001    1    1    2    0    0 -0.14993075221E+02 -0.39079987127E+03 -0.12197280555E+04  0.12871732056E+04  0.12700000000E+03 0.  0.
<mgrwt>
<rscale>  0 0.90343972E+03</rscale>
<asrwt>0</asrwt>
<pdfrwt beam="1">  1        2 0.25327456E+00 0.90343972E+03</pdfrwt>
<pdfrwt beam="2">  1       -2 0.16441852E-01 0.90343972E+03</pdfrwt>
<totfact> 0.31672853E+02</totfact>
</mgrwt>
</event>
<event>
 4    1  0.9032007E-005  0.4376879E+03  0.7818608E-02  0.1031459E+00
         -2   -1    0    0    0  501 -0.00000000000E+00  0.00000000000E+00  0.27412194451E+03  0.27412194452E+03  0.25500000000E-02 0. -1.
          2   -1    0    0  501    0  0.00000000000E+00 -0.00000000000E+00 -0.17471304757E+03  0.17471304759E+03  0.25500000000E-02 0.  1.
    5000001    1    1    2    0    0 -0.15958171046E+03  0.79083293269E+02  0.56443790895E+02  0.22591013947E+03  0.12700000000E+03 0.  0.
   -5000001    1    1    2    0    0  0.15958171046E+03 -0.79083293269E+02  0.42965106043E+02  0.22292485264E+03  0.12700000000E+03 0.  0.
<mgrwt>
<rscale>  0 0.43768793E+03</rscale>
<asrwt>0</asrwt>
<pdfrwt beam="1">  1        2 0.24959007E-01 0.43768793E+03</pdfrwt>
<pdfrwt beam="2">  1       -2 0.39160278E-01 0.43768793E+03</pdfrwt>
<totfact> 0.13488400E+03</totfact>
</mgrwt>
</event>
<event>
 4    1  0.9032007E-005  0.4977189E+03  0.7818608E-02  0.1014376E+00
          2   -1    0    0  501    0  0.00000000000E+00  0.00000000000E+00  0.67628791912E+03  0.67628791913E+03  0.25500000000E-02 0.  1.
         -2   -1    0    0    0  501 -0.00000000000E+00 -0.00000000000E+00 -0.91574942822E+02  0.91574942857E+02  0.25500000000E-02 0. -1.
    5000001    1    1    2    0    0 -0.15819119005E+03 -0.27592649842E+02  0.51062473700E+03  0.55013855434E+03  0.12700000000E+03 0.  0.
   -5000001    1    1    2    0    0  0.15819119005E+03  0.27592649842E+02  0.74088239300E+02  0.21772430764E+03  0.12700000000E+03 0.  0.
<mgrwt>
<rscale>  0 0.49771891E+03</rscale>
<asrwt>0</asrwt>
<pdfrwt beam="1">  1        2 0.96612561E-01 0.49771891E+03</pdfrwt>
<pdfrwt beam="2">  1       -2 0.13082135E-01 0.49771891E+03</pdfrwt>
<totfact> 0.20643010E+03</totfact>
</mgrwt>
</event>
<event>
 4    1  0.9032007E-005  0.4920670E+03  0.7818608E-02  0.1015871E+00
          2   -1    0    0  501    0  0.00000000000E+00  0.00000000000E+00  0.73508422439E+03  0.73508422439E+03  0.25500000000E-02 0.  1.
         -2   -1    0    0    0  501 -0.00000000000E+00 -0.00000000000E+00 -0.82347696483E+02  0.82347696523E+02  0.25500000000E-02 0. -1.
    5000001    1    1    2    0    0 -0.16489091320E+03  0.93908791287E+02  0.17415459274E+03  0.28717015254E+03  0.12700000000E+03 0.  0.
   -5000001    1    1    2    0    0  0.16489091320E+03 -0.93908791287E+02  0.47858193516E+03  0.53026176837E+03  0.12700000000E+03 0.  0.
<mgrwt>
<rscale>  0 0.49206704E+03</rscale>
<asrwt>0</asrwt>
<pdfrwt beam="1">  1        2 0.10501204E+00 0.49206704E+03</pdfrwt>
<pdfrwt beam="2">  1       -2 0.11763956E-01 0.49206704E+03</pdfrwt>
<totfact> 0.22207047E+03</totfact>
</mgrwt>
</event>
<event>
 4    1  0.9032007E-005  0.3239520E+03  0.7818608E-02  0.1073845E+00
          2   -1    0    0  501    0  0.00000000000E+00  0.00000000000E+00  0.71847974491E+03  0.71847974491E+03  0.25500000000E-02 0.  1.
         -2   -1    0    0    0  501 -0.00000000000E+00 -0.00000000000E+00 -0.36516301354E+02  0.36516301444E+02  0.25500000000E-02 0. -1.
    5000001    1    1    2    0    0  0.34206183130E+02 -0.86891763058E+02  0.25418579307E+03  0.29909807564E+03  0.12700000000E+03 0.  0.
   -5000001    1    1    2    0    0 -0.34206183130E+02  0.86891763058E+02  0.42777765048E+03  0.45589797071E+03  0.12700000000E+03 0.  0.
<mgrwt>
<rscale>  0 0.32395199E+03</rscale>
<asrwt>0</asrwt>
<pdfrwt beam="1">  1        2 0.10263997E+00 0.32395199E+03</pdfrwt>
<pdfrwt beam="2">  1       -2 0.52166142E-02 0.32395199E+03</pdfrwt>
<totfact> 0.81835452E+03</totfact>
</mgrwt>
</event>
<event>
 4    1  0.9032007E-005  0.4214394E+03  0.7818608E-02  0.1036599E+00
         -2   -1    0    0    0  501 -0.00000000000E+00  0.00000000000E+00  0.61430796491E+02  0.61430796544E+02  0.25500000000E-02 0. -1.
          2   -1    0    0  501    0  0.00000000000E+00 -0.00000000000E+00 -0.72280990594E+03  0.72280990594E+03  0.25500000000E-02 0.  1.
    5000001    1    1    2    0    0  0.36265362746E+02 -0.16349503920E+03 -0.30259214202E+03  0.36842476680E+03  0.12700000000E+03 0.  0.
   -5000001    1    1    2    0    0 -0.36265362746E+02  0.16349503920E+03 -0.35878696742E+03  0.41581593569E+03  0.12700000000E+03 0.  0.
<mgrwt>
<rscale>  0 0.42143938E+03</rscale>
<asrwt>0</asrwt>
<pdfrwt beam="1">  1        2 0.10325855E+00 0.42143938E+03</pdfrwt>
<pdfrwt beam="2">  1       -2 0.87758285E-02 0.42143938E+03</pdfrwt>
<totfact> 0.36320173E+03</totfact>
</mgrwt>
</event>
<event>
 4    1  0.9032007E-005  0.3445879E+03  0.7818608E-02  0.1064859E+00
         -2   -1    0    0    0  501 -0.00000000000E+00  0.00000000000E+00  0.14355858223E+03  0.14355858226E+03  0.25500000000E-02 0. -1.
          2   -1    0    0  501    0  0.00000000000E+00 -0.00000000000E+00 -0.20678115958E+03  0.20678115960E+03  0.25500000000E-02 0.  1.
    5000001    1    1    2    0    0  0.88347304503E+02 -0.71394973216E+02 -0.57606047683E+02  0.17986090499E+03  0.12700000000E+03 0.  0.
   -5000001    1    1    2    0    0 -0.88347304503E+02  0.71394973216E+02 -0.56165296673E+01  0.17047883687E+03  0.12700000000E+03 0.  0.
<mgrwt>
<rscale>  0 0.34458793E+03</rscale>
<asrwt>0</asrwt>
<pdfrwt beam="1">  1        2 0.29540166E-01 0.34458793E+03</pdfrwt>
<pdfrwt beam="2">  1       -2 0.20508369E-01 0.34458793E+03</pdfrwt>
<totfact> 0.36032111E+03</totfact>
</mgrwt>
</event>
<event>
 4    1  0.9032007E-005  0.3498891E+03  0.7818608E-02  0.1062661E+00
          2   -1    0    0  501    0  0.00000000000E+00  0.00000000000E+00  0.45239058917E+03  0.45239058917E+03  0.25500000000E-02 0.  1.
         -2   -1    0    0    0  501 -0.00000000000E+00 -0.00000000000E+00 -0.67653024552E+02  0.67653024600E+02  0.25500000000E-02 0. -1.
    5000001    1    1    2    0    0  0.98603581288E+02 -0.48821494915E+02  0.26473219068E+03  0.31355755037E+03  0.12700000000E+03 0.  0.
   -5000001    1    1    2    0    0 -0.98603581288E+02  0.48821494915E+02  0.12000537393E+03  0.20648606341E+03  0.12700000000E+03 0.  0.
<mgrwt>
<rscale>  0 0.34988908E+03</rscale>
<asrwt>0</asrwt>
<pdfrwt beam="1">  1        2 0.64627224E-01 0.34988908E+03</pdfrwt>
<pdfrwt beam="2">  1       -2 0.96647182E-02 0.34988908E+03</pdfrwt>
<totfact> 0.53215318E+03</totfact>
</mgrwt>
</event>
<event>
 4    1  0.9032007E-005  0.3824835E+03  0.7818608E-02  0.1050020E+00
         -2   -1    0    0    0  501 -0.00000000000E+00  0.00000000000E+00  0.10238239738E+03  0.10238239741E+03  0.25500000000E-02 0. -1.
          2   -1    0    0  501    0  0.00000000000E+00 -0.00000000000E+00 -0.35722363772E+03  0.35722363773E+03  0.25500000000E-02 0.  1.
    5000001    1    1    2    0    0  0.12423722041E+03 -0.70777924098E+02 -0.12754643884E+03  0.22987278120E+03  0.12700000000E+03 0.  0.
   -5000001    1    1    2    0    0 -0.12423722041E+03  0.70777924098E+02 -0.12729480150E+03  0.22973325394E+03  0.12700000000E+03 0.  0.
<mgrwt>
<rscale>  0 0.38248353E+03</rscale>
<asrwt>0</asrwt>
<pdfrwt beam="1">  1        2 0.51031947E-01 0.38248353E+03</pdfrwt>
<pdfrwt beam="2">  1       -2 0.14626057E-01 0.38248353E+03</pdfrwt>
<totfact> 0.35201559E+03</totfact>
</mgrwt>
</event>
<event>
 4    1  0.9032007E-005  0.3714928E+03  0.7818608E-02  0.1054124E+00
         -2   -1    0    0    0  501 -0.00000000000E+00  0.00000000000E+00  0.23892822080E+02  0.23892822216E+02  0.25500000000E-02 0. -1.
          2   -1    0    0  501    0  0.00000000000E+00 -0.00000000000E+00 -0.14440204797E+04  0.14440204797E+04  0.25500000000E-02 0.  1.
    5000001    1    1    2    0    0 -0.87143430036E+02 -0.10105706274E+03 -0.80408843621E+03  0.82492043288E+03  0.12700000000E+03 0.  0.
   -5000001    1    1    2    0    0  0.87143430036E+02  0.10105706274E+03 -0.61603922145E+03  0.64299286908E+03  0.12700000000E+03 0.  0.
<mgrwt>
<rscale>  0 0.37149280E+03</rscale>
<asrwt>0</asrwt>
<pdfrwt beam="1">  1        2 0.20628859E+00 0.37149280E+03</pdfrwt>
<pdfrwt beam="2">  1       -2 0.34132612E-02 0.37149280E+03</pdfrwt>
<totfact> 0.58399608E+03</totfact>
</mgrwt>
</event>
<event>
 4    1  0.9032007E-005  0.3296982E+03  0.7818608E-02  0.1071270E+00
          2   -1    0    0  501    0  0.00000000000E+00  0.00000000000E+00  0.34512485790E+03  0.34512485790E+03  0.25500000000E-02 0.  1.
         -2   -1    0    0    0  501 -0.00000000000E+00 -0.00000000000E+00 -0.78740275420E+02  0.78740275461E+02  0.25500000000E-02 0. -1.
    5000001    1    1    2    0    0  0.81087733783E+02  0.16764503273E+02  0.49974553044E+02  0.15963309523E+03  0.12700000000E+03 0.  0.
   -5000001    1    1    2    0    0 -0.81087733783E+02 -0.16764503273E+02  0.21641002943E+03  0.26423203814E+03  0.12700000000E+03 0.  0.
<mgrwt>
<rscale>  0 0.32969820E+03</rscale>
<asrwt>0</asrwt>
<pdfrwt beam="1">  1        2 0.49303553E-01 0.32969820E+03</pdfrwt>
<pdfrwt beam="2">  1       -2 0.11248610E-01 0.32969820E+03</pdfrwt>
<totfact> 0.55952625E+03</totfact>
</mgrwt>
</event>
<event>
 4    1  0.9032007E-005  0.3145977E+03  0.7818608E-02  0.1078163E+00
          2   -1    0    0  501    0  0.00000000000E+00  0.00000000000E+00  0.14841157236E+03  0.14841157238E+03  0.25500000000E-02 0.  1.
         -2   -1    0    0    0  501 -0.00000000000E+00 -0.00000000000E+00 -0.16671832809E+03  0.16671832811E+03  0.25500000000E-02 0. -1.
    5000001    1    1    2    0    0 -0.44239724221E+02  0.81267000052E+02 -0.16407916544E+02  0.15798638619E+03  0.12700000000E+03 0.  0.
   -5000001    1    1    2    0    0  0.44239724221E+02 -0.81267000052E+02 -0.18988391850E+01  0.15714351430E+03  0.12700000000E+03 0.  0.
<mgrwt>
<rscale>  0 0.31459771E+03</rscale>
<asrwt>0</asrwt>
<pdfrwt beam="1">  1        2 0.21201653E-01 0.31459771E+03</pdfrwt>
<pdfrwt beam="2">  1       -2 0.23816904E-01 0.31459771E+03</pdfrwt>
<totfact> 0.40217635E+03</totfact>
</mgrwt>
</event>
<event>
 4    1  0.9032007E-005  0.3089943E+03  0.7818608E-02  0.1080829E+00
          2   -1    0    0  501    0  0.00000000000E+00  0.00000000000E+00  0.11890576196E+03  0.11890576199E+03  0.25500000000E-02 0.  1.
         -2   -1    0    0    0  501 -0.00000000000E+00 -0.00000000000E+00 -0.20074186565E+03  0.20074186567E+03  0.25500000000E-02 0. -1.
    5000001    1    1    2    0    0  0.28847011740E+02 -0.35811795799E+02 -0.11850889877E+03  0.17968860257E+03  0.12700000000E+03 0.  0.
   -5000001    1    1    2    0    0 -0.28847011740E+02  0.35811795799E+02  0.36672795076E+02  0.13995902509E+03  0.12700000000E+03 0.  0.
<mgrwt>
<rscale>  0 0.30899427E+03</rscale>
<asrwt>0</asrwt>
<pdfrwt beam="1">  1        2 0.16986537E-01 0.30899427E+03</pdfrwt>
<pdfrwt beam="2">  1       -2 0.28677409E-01 0.30899427E+03</pdfrwt>
<totfact> 0.37311750E+03</totfact>
</mgrwt>
</event>
<event>
 4    1  0.9032007E-005  0.5467867E+03  0.7818608E-02  0.1002240E+00
         -2   -1    0    0    0  501 -0.00000000000E+00  0.00000000000E+00  0.39779652624E+02  0.39779652705E+02  0.25500000000E-02 0. -1.
          2   -1    0    0  501    0  0.00000000000E+00 -0.00000000000E+00 -0.18789485808E+04  0.18789485808E+04  0.25500000000E-02 0.  1.
    5000001    1    1    2    0    0  0.16170439828E+02 -0.23995880720E+03 -0.10171607227E+04  0.10528944145E+04  0.12700000000E+03 0.  0.
   -5000001    1    1    2    0    0 -0.16170439828E+02  0.23995880720E+03 -0.82200820552E+03  0.86583381905E+03  0.12700000000E+03 0.  0.
<mgrwt>
<rscale>  0 0.54678669E+03</rscale>
<asrwt>0</asrwt>
<pdfrwt beam="1">  1        2 0.26842117E+00 0.54678669E+03</pdfrwt>
<pdfrwt beam="2">  1       -2 0.56828087E-02 0.54678669E+03</pdfrwt>
<totfact> 0.16060038E+03</totfact>
</mgrwt>
</event>
<event>
 4    1  0.9032007E-005  0.3700726E+03  0.7818608E-02  0.1054665E+00
          2   -1    0    0  501    0  0.00000000000E+00  0.00000000000E+00  0.11731717791E+03  0.11731717794E+03  0.25500000000E-02 0.  1.
         -2   -1    0    0    0  501 -0.00000000000E+00 -0.00000000000E+00 -0.29184496329E+03  0.29184496330E+03  0.25500000000E-02 0. -1.
    5000001    1    1    2    0    0  0.71675091313E+02 -0.10793363581E+03 -0.47057383170E+02  0.18743101602E+03  0.12700000000E+03 0.  0.
   -5000001    1    1    2    0    0 -0.71675091313E+02  0.10793363581E+03 -0.12747040221E+03  0.22173112522E+03  0.12700000000E+03 0.  0.
<mgrwt>
<rscale>  0 0.37007257E+03</rscale>
<asrwt>0</asrwt>
<pdfrwt beam="1">  1        2 0.16759597E-01 0.37007257E+03</pdfrwt>
<pdfrwt beam="2">  1       -2 0.41692137E-01 0.37007257E+03</pdfrwt>
<totfact> 0.18903786E+03</totfact>
</mgrwt>
</event>
<event>
 4    1  0.9032007E-005  0.3968417E+03  0.7818608E-02  0.1044879E+00
         -2   -1    0    0    0  501 -0.00000000000E+00  0.00000000000E+00  0.15332880208E+03  0.15332880210E+03  0.25500000000E-02 0. -1.
          2   -1    0    0  501    0  0.00000000000E+00 -0.00000000000E+00 -0.25677388086E+03  0.25677388087E+03  0.25500000000E-02 0.  1.
    5000001    1    1    2    0    0 -0.12751321018E+03  0.42772074861E+02  0.22458921143E+02  0.18633966914E+03  0.12700000000E+03 0.  0.
   -5000001    1    1    2    0    0  0.12751321018E+03 -0.42772074861E+02 -0.12590399992E+03  0.22376301382E+03  0.12700000000E+03 0.  0.
<mgrwt>
<rscale>  0 0.39684169E+03</rscale>
<asrwt>0</asrwt>
<pdfrwt beam="1">  1        2 0.36681983E-01 0.39684169E+03</pdfrwt>
<pdfrwt beam="2">  1       -2 0.21904114E-01 0.39684169E+03</pdfrwt>
<totfact> 0.25394751E+03</totfact>
</mgrwt>
</event>
<event>
 4    1  0.9032007E-005  0.4455499E+03  0.7818608E-02  0.1029057E+00
          2   -1    0    0  501    0  0.00000000000E+00  0.00000000000E+00  0.22495719980E+03  0.22495719981E+03  0.25500000000E-02 0.  1.
         -2   -1    0    0    0  501 -0.00000000000E+00 -0.00000000000E+00 -0.22061385420E+03  0.22061385422E+03  0.25500000000E-02 0. -1.
    5000001    1    1    2    0    0 -0.14445167269E+03  0.45586081190E+02  0.10491553588E+03  0.22378705551E+03  0.12700000000E+03 0.  0.
   -5000001    1    1    2    0    0  0.14445167269E+03 -0.45586081190E+02 -0.10057219029E+03  0.22178399852E+03  0.12700000000E+03 0.  0.
<mgrwt>
<rscale>  0 0.44554988E+03</rscale>
<asrwt>0</asrwt>
<pdfrwt beam="1">  1        2 0.32136743E-01 0.44554988E+03</pdfrwt>
<pdfrwt beam="2">  1       -2 0.31516265E-01 0.44554988E+03</pdfrwt>
<totfact> 0.15305021E+03</totfact>
</mgrwt>
</event>
<event>
 4    1  0.9032007E-005  0.4767045E+03  0.7818608E-02  0.1020045E+00
          2   -1    0    0  501    0  0.00000000000E+00  0.00000000000E+00  0.23414710543E+03  0.23414710545E+03  0.25500000000E-02 0.  1.
         -2   -1    0    0    0  501 -0.00000000000E+00 -0.00000000000E+00 -0.24263286939E+03  0.24263286941E+03  0.25500000000E-02 0. -1.
    5000001    1    1    2    0    0 -0.19952373528E+03  0.20533484084E+02 -0.25493345418E+02  0.23876820469E+03  0.12700000000E+03 0.  0.
   -5000001    1    1    2    0    0  0.19952373528E+03 -0.20533484084E+02  0.17007581456E+02  0.23801177016E+03  0.12700000000E+03 0.  0.
<mgrwt>
<rscale>  0 0.47670445E+03</rscale>
<asrwt>0</asrwt>
<pdfrwt beam="1">  1        2 0.33449586E-01 0.47670445E+03</pdfrwt>
<pdfrwt beam="2">  1       -2 0.34661839E-01 0.47670445E+03</pdfrwt>
<totfact> 0.12263315E+03</totfact>
</mgrwt>
</event>
<event>
 4    1  0.9032007E-005  0.4395569E+03  0.7818608E-02  0.1030883E+00
          2   -1    0    0  501    0  0.00000000000E+00  0.00000000000E+00  0.11676771266E+04  0.11676771266E+04  0.25500000000E-02 0.  1.
         -2   -1    0    0    0  501 -0.00000000000E+00 -0.00000000000E+00 -0.41366372148E+02  0.41366372226E+02  0.25500000000E-02 0. -1.
    5000001    1    1    2    0    0  0.60734467899E+02 -0.91440662636E+02  0.95334754249E+03  0.96801374327E+03  0.12700000000E+03 0.  0.
   -5000001    1    1    2    0    0 -0.60734467899E+02  0.91440662636E+02  0.17296321195E+03  0.24102975555E+03  0.12700000000E+03 0.  0.
<mgrwt>
<rscale>  0 0.43955690E+03</rscale>
<asrwt>0</asrwt>
<pdfrwt beam="1">  1        2 0.16681098E+00 0.43955690E+03</pdfrwt>
<pdfrwt beam="2">  1       -2 0.59094830E-02 0.43955690E+03</pdfrwt>
<totfact> 0.35518921E+03</totfact>
</mgrwt>
</event>
<event>
 4    1  0.9032007E-005  0.3015960E+03  0.7818608E-02  0.1084445E+00
          2   -1    0    0  501    0  0.00000000000E+00  0.00000000000E+00  0.85972385866E+03  0.85972385866E+03  0.25500000000E-02 0.  1.
         -2   -1    0    0    0  501 -0.00000000000E+00 -0.00000000000E+00 -0.26450396966E+02  0.26450397089E+02  0.25500000000E-02 0. -1.
    5000001    1    1    2    0    0 -0.52139940098E+02  0.57850018194E+02  0.34798902900E+03  0.37853739876E+03  0.12700000000E+03 0.  0.
   -5000001    1    1    2    0    0  0.52139940098E+02 -0.57850018194E+02  0.48528443269E+03  0.50763685699E+03  0.12700000000E+03 0.  0.
<mgrwt>
<rscale>  0 0.30159600E+03</rscale>
<asrwt>0</asrwt>
<pdfrwt beam="1">  1        2 0.12281771E+00 0.30159600E+03</pdfrwt>
<pdfrwt beam="2">  1       -2 0.37786276E-02 0.30159600E+03</pdfrwt>
<totfact> 0.10662659E+04</totfact>
</mgrwt>
</event>
<event>
 4    1  0.9032007E-005  0.6555943E+03  0.7818608E-02  0.9796338E-01
         -2   -1    0    0    0  501 -0.00000000000E+00  0.00000000000E+00  0.96364248692E+02  0.96364248726E+02  0.25500000000E-02 0. -1.
          2   -1    0    0  501    0  0.00000000000E+00 -0.00000000000E+00 -0.11150502079E+04  0.11150502079E+04  0.25500000000E-02 0.  1.
    5000001    1    1    2    0    0 -0.22268539424E+03  0.91649065893E+02 -0.84670713853E+03  0.88939885008E+03  0.12700000000E+03 0.  0.
   -5000001    1    1    2    0    0  0.22268539424E+03 -0.91649065893E+02 -0.17197882064E+03  0.32201560651E+03  0.12700000000E+03 0.  0.
<mgrwt>
<rscale>  0 0.65559431E+03</rscale>
<asrwt>0</asrwt>
<pdfrwt beam="1">  1        2 0.15929288E+00 0.65559431E+03</pdfrwt>
<pdfrwt beam="2">  1       -2 0.13766322E-01 0.65559431E+03</pdfrwt>
<totfact> 0.97512194E+02</totfact>
</mgrwt>
</event>
<event>
 4    1  0.9032007E-005  0.3870081E+03  0.7818608E-02  0.1048374E+00
         -2   -1    0    0    0  501 -0.00000000000E+00  0.00000000000E+00  0.18162219531E+02  0.18162219710E+02  0.25500000000E-02 0. -1.
          2   -1    0    0  501    0  0.00000000000E+00 -0.00000000000E+00 -0.20616321105E+04  0.20616321105E+04  0.25500000000E-02 0.  1.
    5000001    1    1    2    0    0  0.91300817185E+02  0.11336793204E+03 -0.10822227719E+04  0.10993285475E+04  0.12700000000E+03 0.  0.
   -5000001    1    1    2    0    0 -0.91300817185E+02 -0.11336793204E+03 -0.96124711907E+03  0.98046578276E+03  0.12700000000E+03 0.  0.
<mgrwt>
<rscale>  0 0.38700809E+03</rscale>
<asrwt>0</asrwt>
<pdfrwt beam="1">  1        2 0.29451872E+00 0.38700809E+03</pdfrwt>
<pdfrwt beam="2">  1       -2 0.25946041E-02 0.38700809E+03</pdfrwt>
<totfact> 0.43289631E+03</totfact>
</mgrwt>
</event>
<event>
 4    1  0.9032007E-005  0.4547800E+03  0.7818608E-02  0.1026306E+00
         -2   -1    0    0    0  501 -0.00000000000E+00  0.00000000000E+00  0.22379345238E+03  0.22379345240E+03  0.25500000000E-02 0. -1.
          2   -1    0    0  501    0  0.00000000000E+00 -0.00000000000E+00 -0.23104437841E+03  0.23104437842E+03  0.25500000000E-02 0.  1.
    5000001    1    1    2    0    0 -0.13500823396E+03  0.83414006056E+02 -0.10558006656E+03  0.22904425358E+03  0.12700000000E+03 0.  0.
   -5000001    1    1    2    0    0  0.13500823396E+03 -0.83414006056E+02  0.98329140541E+02  0.22579357724E+03  0.12700000000E+03 0.  0.
<mgrwt>
<rscale>  0 0.45478003E+03</rscale>
<asrwt>0</asrwt>
<pdfrwt beam="1">  1        2 0.33006340E-01 0.45478003E+03</pdfrwt>
<pdfrwt beam="2">  1       -2 0.31970493E-01 0.45478003E+03</pdfrwt>
<totfact> 0.14472140E+03</totfact>
</mgrwt>
</event>
<event>
 4    1  0.9032007E-005  0.2843931E+03  0.7818608E-02  0.1093313E+00
          2   -1    0    0  501    0  0.00000000000E+00  0.00000000000E+00  0.35680933152E+03  0.35680933153E+03  0.25500000000E-02 0.  1.
         -2   -1    0    0    0  501 -0.00000000000E+00 -0.00000000000E+00 -0.56668542836E+02  0.56668542893E+02  0.25500000000E-02 0. -1.
    5000001    1    1    2    0    0 -0.18272434106E+02  0.59938435696E+02  0.13143062897E+03  0.19320845777E+03  0.12700000000E+03 0.  0.
   -5000001    1    1    2    0    0  0.18272434106E+02 -0.59938435696E+02  0.16871015971E+03  0.22026941665E+03  0.12700000000E+03 0.  0.
<mgrwt>
<rscale>  0 0.28439314E+03</rscale>
<asrwt>0</asrwt>
<pdfrwt beam="1">  1        2 0.50972759E-01 0.28439314E+03</pdfrwt>
<pdfrwt beam="2">  1       -2 0.80955065E-02 0.28439314E+03</pdfrwt>
<totfact> 0.90539655E+03</totfact>
</mgrwt>
</event>
<event>
 4    1  0.9032007E-005  0.2997455E+03  0.7818608E-02  0.1085368E+00
          2   -1    0    0  501    0  0.00000000000E+00  0.00000000000E+00  0.99438669192E+01  0.99438672462E+01  0.25500000000E-02 0.  1.
         -2   -1    0    0    0  501 -0.00000000000E+00 -0.00000000000E+00 -0.22588642553E+04  0.22588642553E+04  0.25500000000E-02 0. -1.
    5000001    1    1    2    0    0 -0.15768503279E+02  0.67097349593E+02 -0.82338961673E+03  0.83597258385E+03  0.12700000000E+03 0.  0.
   -5000001    1    1    2    0    0  0.15768503279E+02 -0.67097349593E+02 -0.14255307717E+04  0.14328355387E+04  0.12700000000E+03 0.  0.
<mgrwt>
<rscale>  0 0.29974553E+03</rscale>
<asrwt>0</asrwt>
<pdfrwt beam="1">  1        2 0.14205539E-02 0.29974553E+03</pdfrwt>
<pdfrwt beam="2">  1       -2 0.32269456E+00 0.29974553E+03</pdfrwt>
<totfact> 0.23719034E+02</totfact>
</mgrwt>
</event>
<event>
 4    1  0.9032007E-005  0.4846872E+03  0.7818608E-02  0.1017855E+00
         -2   -1    0    0    0  501 -0.00000000000E+00  0.00000000000E+00  0.59442773484E+02  0.59442773539E+02  0.25500000000E-02 0. -1.
          2   -1    0    0  501    0  0.00000000000E+00 -0.00000000000E+00 -0.98801627232E+03  0.98801627232E+03  0.25500000000E-02 0.  1.
    5000001    1    1    2    0    0  0.60201649260E+02  0.77242964749E+02 -0.85693433338E+03  0.87181200147E+03  0.12700000000E+03 0.  0.
   -5000001    1    1    2    0    0 -0.60201649260E+02 -0.77242964749E+02 -0.71639165452E+02  0.17564704439E+03  0.12700000000E+03 0.  0.
<mgrwt>
<rscale>  0 0.48468723E+03</rscale>
<asrwt>0</asrwt>
<pdfrwt beam="1">  1        2 0.14114517E+00 0.48468723E+03</pdfrwt>
<pdfrwt beam="2">  1       -2 0.84918254E-02 0.48468723E+03</pdfrwt>
<totfact> 0.25567326E+03</totfact>
</mgrwt>
</event>
<event>
 4    1  0.9032007E-005  0.4064033E+03  0.7818608E-02  0.1041585E+00
          2   -1    0    0  501    0  0.00000000000E+00  0.00000000000E+00  0.54437046074E+02  0.54437046133E+02  0.25500000000E-02 0.  1.
         -2   -1    0    0    0  501 -0.00000000000E+00 -0.00000000000E+00 -0.75850772774E+03  0.75850772775E+03  0.25500000000E-02 0. -1.
    5000001    1    1    2    0    0 -0.13698186202E+03 -0.59245694331E+02 -0.24453987891E+03  0.31337331603E+03  0.12700000000E+03 0.  0.
   -5000001    1    1    2    0    0  0.13698186202E+03  0.59245694331E+02 -0.45953080276E+03  0.49957145786E+03  0.12700000000E+03 0.  0.
<mgrwt>
<rscale>  0 0.40640335E+03</rscale>
<asrwt>0</asrwt>
<pdfrwt beam="1">  1        2 0.77767213E-02 0.40640335E+03</pdfrwt>
<pdfrwt beam="2">  1       -2 0.10835824E+00 0.40640335E+03</pdfrwt>
<totfact> 0.63015710E+02</totfact>
</mgrwt>
</event>
<event>
 4    1  0.9032007E-005  0.3456562E+03  0.7818608E-02  0.1064412E+00
         -2   -1    0    0    0  501 -0.00000000000E+00  0.00000000000E+00  0.98215553115E+01  0.98215556425E+01  0.25500000000E-02 0. -1.
          2   -1    0    0  501    0  0.00000000000E+00 -0.00000000000E+00 -0.30412242381E+04  0.30412242381E+04  0.25500000000E-02 0.  1.
    5000001    1    1    2    0    0 -0.87123298060E+02  0.74899121670E+02 -0.17208570969E+04  0.17293578275E+04  0.12700000000E+03 0.  0.
   -5000001    1    1    2    0    0  0.87123298060E+02 -0.74899121670E+02 -0.13105455859E+04  0.13216879663E+04  0.12700000000E+03 0.  0.
<mgrwt>
<rscale>  0 0.34565620E+03</rscale>
<asrwt>0</asrwt>
<pdfrwt beam="1">  1        2 0.43446000E+00 0.34565620E+03</pdfrwt>
<pdfrwt beam="2">  1       -2 0.14030813E-02 0.34565620E+03</pdfrwt>
<totfact> 0.34167073E+03</totfact>
</mgrwt>
</event>
<event>
 4    1  0.9032007E-005  0.5762565E+03  0.7818608E-02  0.9955929E-01
          2   -1    0    0  501    0  0.00000000000E+00  0.00000000000E+00  0.10204800025E+04  0.10204800025E+04  0.25500000000E-02 0.  1.
         -2   -1    0    0    0  501 -0.00000000000E+00 -0.00000000000E+00 -0.81351789224E+02  0.81351789264E+02  0.25500000000E-02 0. -1.
    5000001    1    1    2    0    0  0.13500286265E+03  0.12215764877E+03  0.11834675427E+03  0.25156155971E+03  0.12700000000E+03 0.  0.
   -5000001    1    1    2    0    0 -0.13500286265E+03 -0.12215764877E+03  0.82078145897E+03  0.85027023202E+03  0.12700000000E+03 0.  0.
<mgrwt>
<rscale>  0 0.57625645E+03</rscale>
<asrwt>0</asrwt>
<pdfrwt beam="1">  1        2 0.14578285E+00 0.57625645E+03</pdfrwt>
<pdfrwt beam="2">  1       -2 0.11621684E-01 0.57625645E+03</pdfrwt>
<totfact> 0.14707019E+03</totfact>
</mgrwt>
</event>
<event>
 4    1  0.9032007E-005  0.3167990E+03  0.7818608E-02  0.1077132E+00
         -2   -1    0    0    0  501 -0.00000000000E+00  0.00000000000E+00  0.15148166572E+03  0.15148166574E+03  0.25500000000E-02 0. -1.
          2   -1    0    0  501    0  0.00000000000E+00 -0.00000000000E+00 -0.16563324591E+03  0.16563324593E+03  0.25500000000E-02 0.  1.
    5000001    1    1    2    0    0 -0.73809569211E+02  0.43190759472E+02 -0.47713143702E+02  0.16037093968E+03  0.12700000000E+03 0.  0.
   -5000001    1    1    2    0    0  0.73809569211E+02 -0.43190759472E+02  0.33561563509E+02  0.15674397199E+03  0.12700000000E+03 0.  0.
<mgrwt>
<rscale>  0 0.31679899E+03</rscale>
<asrwt>0</asrwt>
<pdfrwt beam="1">  1        2 0.23661892E-01 0.31679899E+03</pdfrwt>
<pdfrwt beam="2">  1       -2 0.21640238E-01 0.31679899E+03</pdfrwt>
<totfact> 0.41979286E+03</totfact>
</mgrwt>
</event>
<event>
 4    1  0.9032007E-005  0.3348723E+03  0.7818608E-02  0.1069001E+00
          2   -1    0    0  501    0  0.00000000000E+00  0.00000000000E+00  0.18007175340E+03  0.18007175342E+03  0.25500000000E-02 0.  1.
         -2   -1    0    0    0  501 -0.00000000000E+00 -0.00000000000E+00 -0.15568717585E+03  0.15568717587E+03  0.25500000000E-02 0. -1.
    5000001    1    1    2    0    0  0.30249151657E+02 -0.98427501510E+02 -0.23998689237E+02  0.16525108567E+03  0.12700000000E+03 0.  0.
   -5000001    1    1    2    0    0 -0.30249151657E+02  0.98427501510E+02  0.48383266793E+02  0.17050784362E+03  0.12700000000E+03 0.  0.
<mgrwt>
<rscale>  0 0.33487229E+03</rscale>
<asrwt>0</asrwt>
<pdfrwt beam="1">  1        2 0.25724536E-01 0.33487229E+03</pdfrwt>
<pdfrwt beam="2">  1       -2 0.22241025E-01 0.33487229E+03</pdfrwt>
<totfact> 0.36491698E+03</totfact>
</mgrwt>
</event>
<event>
 4    1  0.9032007E-005  0.6347657E+03  0.7818608E-02  0.9835793E-01
          2   -1    0    0  501    0  0.00000000000E+00  0.00000000000E+00  0.67509835577E+03  0.67509835578E+03  0.25500000000E-02 0. -1.
         -2   -1    0    0    0  501 -0.00000000000E+00 -0.00000000000E+00 -0.14921065127E+03  0.14921065129E+03  0.25500000000E-02 0.  1.
    5000001    1    1    2    0    0 -0.17168627320E+03  0.17581231948E+03  0.60858773860E+02  0.28322948018E+03  0.12700000000E+03 0.  0.
   -5000001    1    1    2    0    0  0.17168627320E+03 -0.17581231948E+03  0.46502893065E+03  0.54107952689E+03  0.12700000000E+03 0.  0.
<mgrwt>
<rscale>  0 0.63476567E+03</rscale>
<asrwt>0</asrwt>
<pdfrwt beam="1">  1        2 0.96442623E-01 0.63476567E+03</pdfrwt>
<pdfrwt beam="2">  1       -2 0.21315807E-01 0.63476567E+03</pdfrwt>
<totfact> 0.89997610E+02</totfact>
</mgrwt>
</event>
<event>
 4    1  0.9032007E-005  0.4749241E+03  0.7818608E-02  0.1020540E+00
         -2   -1    0    0    0  501 -0.00000000000E+00  0.00000000000E+00  0.22375952222E+02  0.22375952368E+02  0.25500000000E-02 0. -1.
          2   -1    0    0  501    0  0.00000000000E+00 -0.00000000000E+00 -0.25200367317E+04  0.25200367317E+04  0.25500000000E-02 0.  1.
    5000001    1    1    2    0    0 -0.13587612896E+03 -0.13697538909E+03 -0.95392983619E+03  0.98149666938E+03  0.12700000000E+03 0.  0.
   -5000001    1    1    2    0    0  0.13587612896E+03  0.13697538909E+03 -0.15437309433E+04  0.15609160147E+04  0.12700000000E+03 0.  0.
<mgrwt>
<rscale>  0 0.47492409E+03</rscale>
<asrwt>0</asrwt>
<pdfrwt beam="1">  1        2 0.36000507E+00 0.47492409E+03</pdfrwt>
<pdfrwt beam="2">  1       -2 0.31965662E-02 0.47492409E+03</pdfrwt>
<totfact> 0.18570222E+03</totfact>
</mgrwt>
</event>
<event>
 4    1  0.9032007E-005  0.5062321E+03  0.7818608E-02  0.1012165E+00
         -2   -1    0    0    0  501 -0.00000000000E+00  0.00000000000E+00  0.85139161177E+02  0.85139161215E+02  0.25500000000E-02 0. -1.
          2   -1    0    0  501    0  0.00000000000E+00 -0.00000000000E+00 -0.75250615314E+03  0.75250615314E+03  0.25500000000E-02 0.  1.
    5000001    1    1    2    0    0 -0.15001611574E+03 -0.15826384771E+03 -0.36621199094E+03  0.44473869045E+03  0.12700000000E+03 0.  0.
   -5000001    1    1    2    0    0  0.15001611574E+03  0.15826384771E+03 -0.30115500102E+03  0.39290662391E+03  0.12700000000E+03 0.  0.
<mgrwt>
<rscale>  0 0.50623213E+03</rscale>
<asrwt>0</asrwt>
<pdfrwt beam="1">  1        2 0.10750087E+00 0.50623213E+03</pdfrwt>
<pdfrwt beam="2">  1       -2 0.12162738E-01 0.50623213E+03</pdfrwt>
<totfact> 0.20426370E+03</totfact>
</mgrwt>
</event>
<event>
 4    1  0.9032007E-005  0.3642347E+03  0.7818608E-02  0.1056920E+00
          2   -1    0    0  501    0  0.00000000000E+00  0.00000000000E+00  0.12034382649E+03  0.12034382651E+03  0.25500000000E-02 0.  1.
         -2   -1    0    0    0  501 -0.00000000000E+00 -0.00000000000E+00 -0.27559971121E+03  0.27559971122E+03  0.25500000000E-02 0. -1.
    5000001    1    1    2    0    0 -0.33489269917E+02  0.11370256122E+03 -0.18207418842E+02  0.17467201759E+03  0.12700000000E+03 0.  0.
   -5000001    1    1    2    0    0  0.33489269917E+02 -0.11370256122E+03 -0.13704846588E+03  0.22127152015E+03  0.12700000000E+03 0.  0.
<mgrwt>
<rscale>  0 0.36423467E+03</rscale>
<asrwt>0</asrwt>
<pdfrwt beam="1">  1        2 0.17191975E-01 0.36423467E+03</pdfrwt>
<pdfrwt beam="2">  1       -2 0.39371387E-01 0.36423467E+03</pdfrwt>
<totfact> 0.20479658E+03</totfact>
</mgrwt>
</event>
<event>
 4    1  0.9032007E-005  0.4069349E+03  0.7818608E-02  0.1041404E+00
          2   -1    0    0  501    0  0.00000000000E+00  0.00000000000E+00  0.83193734976E+03  0.83193734976E+03  0.25500000000E-02 0.  1.
         -2   -1    0    0    0  501 -0.00000000000E+00 -0.00000000000E+00 -0.49762175949E+02  0.49762176014E+02  0.25500000000E-02 0. -1.
    5000001    1    1    2    0    0  0.10252894222E+03 -0.81448508767E+02  0.19579769996E+03  0.26760377965E+03  0.12700000000E+03 0.  0.
   -5000001    1    1    2    0    0 -0.10252894222E+03  0.81448508767E+02  0.58637747385E+03  0.61409574613E+03  0.12700000000E+03 0.  0.
<mgrwt>
<rscale>  0 0.40693495E+03</rscale>
<asrwt>0</asrwt>
<pdfrwt beam="1">  1        2 0.11884819E+00 0.40693495E+03</pdfrwt>
<pdfrwt beam="2">  1       -2 0.71088824E-02 0.40693495E+03</pdfrwt>
<totfact> 0.42482057E+03</totfact>
</mgrwt>
</event>
<event>
 4    1  0.9032007E-005  0.4085382E+03  0.7818608E-02  0.1040863E+00
         -2   -1    0    0    0  501 -0.00000000000E+00  0.00000000000E+00  0.20266855527E+02  0.20266855687E+02  0.25500000000E-02 0. -1.
          2   -1    0    0  501    0  0.00000000000E+00 -0.00000000000E+00 -0.20588232015E+04  0.20588232016E+04  0.25500000000E-02 0.  1.
    5000001    1    1    2    0    0  0.15341338085E+03 -0.12595038505E+02 -0.12412567984E+04  0.12571959831E+04  0.12700000000E+03 0.  0.
   -5000001    1    1    2    0    0 -0.15341338085E+03  0.12595038505E+02 -0.79729954760E+03  0.82189407409E+03  0.12700000000E+03 0.  0.
<mgrwt>
<rscale>  0 0.40853824E+03</rscale>
<asrwt>0</asrwt>
<pdfrwt beam="1">  1        2 0.29411747E+00 0.40853824E+03</pdfrwt>
<pdfrwt beam="2">  1       -2 0.28952664E-02 0.40853824E+03</pdfrwt>
<totfact> 0.36825201E+03</totfact>
</mgrwt>
</event>
<event>
 4    1  0.9032007E-005  0.2997079E+03  0.7818608E-02  0.1085387E+00
          2   -1    0    0  501    0  0.00000000000E+00  0.00000000000E+00  0.17471023912E+04  0.17471023912E+04  0.25500000000E-02 0.  1.
         -2   -1    0    0    0  501 -0.00000000000E+00 -0.00000000000E+00 -0.12853398716E+02  0.12853398968E+02  0.25500000000E-02 0. -1.
    5000001    1    1    2    0    0 -0.77498684209E+02  0.17550865489E+02  0.84585035929E+03  0.85901449886E+03  0.12700000000E+03 0.  0.
   -5000001    1    1    2    0    0  0.77498684209E+02 -0.17550865489E+02  0.88839863319E+03  0.90094129131E+03  0.12700000000E+03 0.  0.
<mgrwt>
<rscale>  0 0.29970788E+03</rscale>
<asrwt>0</asrwt>
<pdfrwt beam="1">  1        2 0.24958615E+00 0.29970788E+03</pdfrwt>
<pdfrwt beam="2">  1       -2 0.18361991E-02 0.29970788E+03</pdfrwt>
<totfact> 0.10317808E+04</totfact>
</mgrwt>
</event>
<event>
 4    1  0.9032007E-005  0.3231399E+03  0.7818608E-02  0.1074213E+00
          2   -1    0    0  501    0  0.00000000000E+00  0.00000000000E+00  0.30475949289E+03  0.30475949290E+03  0.25500000000E-02 0.  1.
         -2   -1    0    0    0  501 -0.00000000000E+00 -0.00000000000E+00 -0.85657203651E+02  0.85657203689E+02  0.25500000000E-02 0. -1.
    5000001    1    1    2    0    0 -0.72737290195E+02  0.48774775311E+02  0.51530578862E+02  0.16264714153E+03  0.12700000000E+03 0.  0.
   -5000001    1    1    2    0    0  0.72737290195E+02 -0.48774775311E+02  0.16757171038E+03  0.22776955506E+03  0.12700000000E+03 0.  0.
<mgrwt>
<rscale>  0 0.32313988E+03</rscale>
<asrwt>0</asrwt>
<pdfrwt beam="1">  1        2 0.43537070E-01 0.32313988E+03</pdfrwt>
<pdfrwt beam="2">  1       -2 0.12236743E-01 0.32313988E+03</pdfrwt>
<totfact> 0.55823966E+03</totfact>
</mgrwt>
</event>
<event>
 4    1  0.9032007E-005  0.6176773E+03  0.7818608E-02  0.9869395E-01
         -2   -1    0    0    0  501 -0.00000000000E+00  0.00000000000E+00  0.72152914876E+02  0.72152914921E+02  0.25500000000E-02 0. -1.
          2   -1    0    0  501    0  0.00000000000E+00 -0.00000000000E+00 -0.13219328509E+04  0.13219328509E+04  0.25500000000E-02 0.  1.
    5000001    1    1    2    0    0  0.20424107531E+03 -0.97270213012E+02 -0.10030699606E+04  0.10360763761E+04  0.12700000000E+03 0.  0.
   -5000001    1    1    2    0    0 -0.20424107531E+03  0.97270213012E+02 -0.24670997544E+03  0.35800938977E+03  0.12700000000E+03 0.  0.
<mgrwt>
<rscale>  0 0.61767729E+03</rscale>
<asrwt>0</asrwt>
<pdfrwt beam="1">  1        2 0.18884754E+00 0.61767729E+03</pdfrwt>
<pdfrwt beam="2">  1       -2 0.10307560E-01 0.61767729E+03</pdfrwt>
<totfact> 0.12049628E+03</totfact>
</mgrwt>
</event>
<event>
 4    1  0.9032007E-005  0.3000749E+03  0.7818608E-02  0.1085203E+00
          2   -1    0    0  501    0  0.00000000000E+00  0.00000000000E+00  0.11844906677E+04  0.11844906677E+04  0.25500000000E-02 0.  1.
         -2   -1    0    0    0  501 -0.00000000000E+00 -0.00000000000E+00 -0.19004988954E+02  0.19004989125E+02  0.25500000000E-02 0. -1.
    5000001    1    1    2    0    0  0.26246869907E+02 -0.59998049986E+02  0.39923339015E+03  0.42403415428E+03  0.12700000000E+03 0.  0.
   -5000001    1    1    2    0    0 -0.26246869907E+02  0.59998049986E+02  0.76625228863E+03  0.77946150258E+03  0.12700000000E+03 0.  0.
<mgrwt>
<rscale>  0 0.30007487E+03</rscale>
<asrwt>0</asrwt>
<pdfrwt beam="1">  1        2 0.16921303E+00 0.30007487E+03</pdfrwt>
<pdfrwt beam="2">  1       -2 0.27149972E-02 0.30007487E+03</pdfrwt>
<totfact> 0.11249067E+04</totfact>
</mgrwt>
</event>
<event>
 4    1  0.9032007E-005  0.3572839E+03  0.7818608E-02  0.1059665E+00
         -2   -1    0    0    0  501 -0.00000000000E+00  0.00000000000E+00  0.16523027760E+03  0.16523027762E+03  0.25500000000E-02 0. -1.
          2   -1    0    0  501    0  0.00000000000E+00 -0.00000000000E+00 -0.19314219535E+03  0.19314219536E+03  0.25500000000E-02 0.  1.
    5000001    1    1    2    0    0  0.15528765388E+02  0.11078947068E+03  0.43388938055E+02  0.17471991676E+03  0.12700000000E+03 0.  0.
   -5000001    1    1    2    0    0 -0.15528765388E+02 -0.11078947068E+03 -0.71300855799E+02  0.18365255622E+03  0.12700000000E+03 0.  0.
<mgrwt>
<rscale>  0 0.35728386E+03</rscale>
<asrwt>0</asrwt>
<pdfrwt beam="1">  1        2 0.27591742E-01 0.35728386E+03</pdfrwt>
<pdfrwt beam="2">  1       -2 0.23604325E-01 0.35728386E+03</pdfrwt>
<totfact> 0.30447149E+03</totfact>
</mgrwt>
</event>
<event>
 4    1  0.9032007E-005  0.4919050E+03  0.7818608E-02  0.1015914E+00
          2   -1    0    0  501    0  0.00000000000E+00  0.00000000000E+00  0.17488253467E+04  0.17488253467E+04  0.25500000000E-02 0.  1.
         -2   -1    0    0    0  501 -0.00000000000E+00 -0.00000000000E+00 -0.34590439384E+02  0.34590439478E+02  0.25500000000E-02 0. -1.
    5000001    1    1    2    0    0  0.15793506238E+03 -0.13267752044E+03  0.70258191734E+03  0.74316697917E+03  0.12700000000E+03 0.  0.
   -5000001    1    1    2    0    0 -0.15793506238E+03  0.13267752044E+03  0.10116529900E+04  0.10402488070E+04  0.12700000000E+03 0.  0.
<mgrwt>
<rscale>  0 0.49190502E+03</rscale>
<asrwt>0</asrwt>
<pdfrwt beam="1">  1        2 0.24983224E+00 0.49190502E+03</pdfrwt>
<pdfrwt beam="2">  1       -2 0.49414903E-02 0.49190502E+03</pdfrwt>
<totfact> 0.23232054E+03</totfact>
</mgrwt>
</event>
<event>
 4    1  0.9032007E-005  0.3442559E+03  0.7818608E-02  0.1064998E+00
          2   -1    0    0  501    0  0.00000000000E+00  0.00000000000E+00  0.66646635926E+02  0.66646635974E+02  0.25500000000E-02 0.  1.
         -2   -1    0    0    0  501 -0.00000000000E+00 -0.00000000000E+00 -0.44455398351E+03  0.44455398352E+03  0.25500000000E-02 0. -1.
    5000001    1    1    2    0    0  0.28023057707E+02  0.75856821550E+02 -0.65074485584E+02  0.16402206502E+03  0.12700000000E+03 0.  0.
   -5000001    1    1    2    0    0 -0.28023057707E+02 -0.75856821550E+02 -0.31283286200E+03  0.34717855447E+03  0.12700000000E+03 0.  0.
<mgrwt>
<rscale>  0 0.34425588E+03</rscale>
<asrwt>0</asrwt>
<pdfrwt beam="1">  1        2 0.95209483E-02 0.34425588E+03</pdfrwt>
<pdfrwt beam="2">  1       -2 0.63507710E-01 0.34425588E+03</pdfrwt>
<totfact> 0.16087242E+03</totfact>
</mgrwt>
</event>
<event>
 4    1  0.9032007E-005  0.6447677E+03  0.7818608E-02  0.9816647E-01
         -2   -1    0    0    0  501 -0.00000000000E+00  0.00000000000E+00  0.12449760753E+04  0.12449760753E+04  0.25500000000E-02 0. -1.
          2   -1    0    0  501    0  0.00000000000E+00 -0.00000000000E+00 -0.83480591760E+02  0.83480591799E+02  0.25500000000E-02 0.  1.
    5000001    1    1    2    0    0 -0.97830404988E+02  0.23371482330E+03  0.89732689438E+03  0.94101963962E+03  0.12700000000E+03 0.  0.
   -5000001    1    1    2    0    0  0.97830404988E+02 -0.23371482330E+03  0.26416858918E+03  0.38743702750E+03  0.12700000000E+03 0.  0.
<mgrwt>
<rscale>  0 0.64476768E+03</rscale>
<asrwt>0</asrwt>
<pdfrwt beam="1">  1        2 0.11925799E-01 0.64476768E+03</pdfrwt>
<pdfrwt beam="2">  1       -2 0.17785373E+00 0.64476768E+03</pdfrwt>
<totfact> 0.10178205E+02</totfact>
</mgrwt>
</event>
<event>
 4    1  0.9032007E-005  0.3425760E+03  0.7818608E-02  0.1065704E+00
          2   -1    0    0  501    0  0.00000000000E+00  0.00000000000E+00  0.35975744319E+04  0.35975744319E+04  0.25500000000E-02 0.  1.
         -2   -1    0    0    0  501 -0.00000000000E+00 -0.00000000000E+00 -0.81553789317E+01  0.81553793304E+01  0.25500000000E-02 0. -1.
    5000001    1    1    2    0    0 -0.27316491967E+02 -0.91013386427E+02  0.11141376129E+04  0.11253716043E+04  0.12700000000E+03 0.  0.
   -5000001    1    1    2    0    0  0.27316491967E+02  0.91013386427E+02  0.24752814401E+04  0.24803582069E+04  0.12700000000E+03 0.  0.
<mgrwt>
<rscale>  0 0.34257603E+03</rscale>
<asrwt>0</asrwt>
<pdfrwt beam="1">  1        2 0.51393935E+00 0.34257603E+03</pdfrwt>
<pdfrwt beam="2">  1       -2 0.11650538E-02 0.34257603E+03</pdfrwt>
<totfact> 0.21779568E+03</totfact>
</mgrwt>
</event>
<event>
 4    1  0.9032007E-005  0.7175964E+03  0.7818608E-02  0.9687604E-01
         -2   -1    0    0    0  501 -0.00000000000E+00  0.00000000000E+00  0.50452288187E+02  0.50452288252E+02  0.25500000000E-02 0. -1.
          2   -1    0    0  501    0  0.00000000000E+00 -0.00000000000E+00 -0.25516412573E+04  0.25516412573E+04  0.25500000000E-02 0.  1.
    5000001    1    1    2    0    0  0.32246020112E+03 -0.67796797845E+02 -0.14807934870E+04  0.15223190659E+04  0.12700000000E+03 0.  0.
   -5000001    1    1    2    0    0 -0.32246020112E+03  0.67796797845E+02 -0.10203954821E+04  0.10797744797E+04  0.12700000000E+03 0.  0.
<mgrwt>
<rscale>  0 0.71759638E+03</rscale>
<asrwt>0</asrwt>
<pdfrwt beam="1">  1        2 0.36452010E+00 0.71759638E+03</pdfrwt>
<pdfrwt beam="2">  1       -2 0.72074713E-02 0.71759638E+03</pdfrwt>
<totfact> 0.49864504E+02</totfact>
</mgrwt>
</event>
<event>
 4    1  0.9032007E-005  0.4145669E+03  0.7818608E-02  0.1038849E+00
          2   -1    0    0  501    0  0.00000000000E+00  0.00000000000E+00  0.59223745165E+03  0.59223745165E+03  0.25500000000E-02 0.  1.
         -2   -1    0    0    0  501 -0.00000000000E+00 -0.00000000000E+00 -0.72549327121E+02  0.72549327166E+02  0.25500000000E-02 0. -1.
    5000001    1    1    2    0    0  0.61805034065E+02  0.12815463227E+03  0.39005899550E+03  0.43418716238E+03  0.12700000000E+03 0.  0.
   -5000001    1    1    2    0    0 -0.61805034065E+02 -0.12815463227E+03  0.12962912903E+03  0.23059961644E+03  0.12700000000E+03 0.  0.
<mgrwt>
<rscale>  0 0.41456690E+03</rscale>
<asrwt>0</asrwt>
<pdfrwt beam="1">  1        2 0.84605350E-01 0.41456690E+03</pdfrwt>
<pdfrwt beam="2">  1       -2 0.10364190E-01 0.41456690E+03</pdfrwt>
<totfact> 0.35240918E+03</totfact>
</mgrwt>
</event>
<event>
 4    1  0.9032007E-005  0.4798217E+03  0.7818608E-02  0.1019184E+00
          2   -1    0    0  501    0  0.00000000000E+00  0.00000000000E+00  0.13599938870E+04  0.13599938870E+04  0.25500000000E-02 0.  1.
         -2   -1    0    0    0  501 -0.00000000000E+00 -0.00000000000E+00 -0.42321678847E+02  0.42321678924E+02  0.25500000000E-02 0. -1.
    5000001    1    1    2    0    0 -0.13938402918E+03 -0.22786743128E+02  0.23049090194E+03  0.29866737205E+03  0.12700000000E+03 0.  0.
   -5000001    1    1    2    0    0  0.13938402918E+03  0.22786743128E+02  0.10871813062E+04  0.11036481939E+04  0.12700000000E+03 0.  0.
<mgrwt>
<rscale>  0 0.47982174E+03</rscale>
<asrwt>0</asrwt>
<pdfrwt beam="1">  1        2 0.19428489E+00 0.47982174E+03</pdfrwt>
<pdfrwt beam="2">  1       -2 0.60459527E-02 0.47982174E+03</pdfrwt>
<totfact> 0.26936153E+03</totfact>
</mgrwt>
</event>
<event>
 4    1  0.9032007E-005  0.3398032E+03  0.7818608E-02  0.1066880E+00
         -2   -1    0    0    0  501 -0.00000000000E+00  0.00000000000E+00  0.37238870778E+03  0.37238870779E+03  0.25500000000E-02 0. -1.
          2   -1    0    0  501    0  0.00000000000E+00 -0.00000000000E+00 -0.77517242139E+02  0.77517242181E+02  0.25500000000E-02 0.  1.
    5000001    1    1    2    0    0  0.10342342474E+03  0.30159331112E+02  0.19197389402E+03  0.25414359331E+03  0.12700000000E+03 0.  0.
   -5000001    1    1    2    0    0 -0.10342342474E+03 -0.30159331112E+02  0.10289757163E+03  0.19576235666E+03  0.12700000000E+03 0.  0.
<mgrwt>
<rscale>  0 0.33980315E+03</rscale>
<asrwt>0</asrwt>
<pdfrwt beam="1">  1        2 0.11073891E-01 0.33980315E+03</pdfrwt>
<pdfrwt beam="2">  1       -2 0.53198388E-01 0.33980315E+03</pdfrwt>
<totfact> 0.19211739E+03</totfact>
</mgrwt>
</event>
<event>
 4    1  0.9032007E-005  0.5447833E+03  0.7818608E-02  0.1002709E+00
         -2   -1    0    0    0  501 -0.00000000000E+00  0.00000000000E+00  0.45942663348E+02  0.45942663419E+02  0.25500000000E-02 0. -1.
          2   -1    0    0  501    0  0.00000000000E+00 -0.00000000000E+00 -0.16149957329E+04  0.16149957329E+04  0.25500000000E-02 0.  1.
    5000001    1    1    2    0    0  0.22535677223E+03 -0.61563658646E+02 -0.60435149166E+03  0.66026167867E+03  0.12700000000E+03 0.  0.
   -5000001    1    1    2    0    0 -0.22535677223E+03  0.61563658646E+02 -0.96470157793E+03  0.10006767177E+04  0.12700000000E+03 0.  0.
<mgrwt>
<rscale>  0 0.54478328E+03</rscale>
<asrwt>0</asrwt>
<pdfrwt beam="1">  1        2 0.23071364E+00 0.54478328E+03</pdfrwt>
<pdfrwt beam="2">  1       -2 0.65632386E-02 0.54478328E+03</pdfrwt>
<totfact> 0.17432091E+03</totfact>
</mgrwt>
</event>
<event>
 4    1  0.9032007E-005  0.3253039E+03  0.7818608E-02  0.1073234E+00
         -2   -1    0    0    0  501 -0.00000000000E+00  0.00000000000E+00  0.24829206685E+02  0.24829206816E+02  0.25500000000E-02 0. -1.
          2   -1    0    0  501    0  0.00000000000E+00 -0.00000000000E+00 -0.10655055603E+04  0.10655055603E+04  0.25500000000E-02 0.  1.
    5000001    1    1    2    0    0  0.10056017880E+03  0.96463103794E+01 -0.48342988278E+03  0.50994004788E+03  0.12700000000E+03 0.  0.
   -5000001    1    1    2    0    0 -0.10056017880E+03 -0.96463103794E+01 -0.55724647080E+03  0.58039471921E+03  0.12700000000E+03 0.  0.
<mgrwt>
<rscale>  0 0.32530391E+03</rscale>
<asrwt>0</asrwt>
<pdfrwt beam="1">  1        2 0.15221505E+00 0.32530391E+03</pdfrwt>
<pdfrwt beam="2">  1       -2 0.35470302E-02 0.32530391E+03</pdfrwt>
<totfact> 0.88142149E+03</totfact>
</mgrwt>
</event>
<event>
 4    1  0.9032007E-005  0.3644212E+03  0.7818608E-02  0.1056847E+00
         -2   -1    0    0    0  501 -0.00000000000E+00  0.00000000000E+00  0.22997803010E+03  0.22997803012E+03  0.25500000000E-02 0. -1.
          2   -1    0    0  501    0  0.00000000000E+00 -0.00000000000E+00 -0.14436468880E+03  0.14436468882E+03  0.25500000000E-02 0.  1.
    5000001    1    1    2    0    0 -0.11299096099E+03 -0.60823476962E+02  0.68078379792E+02  0.19295107776E+03  0.12700000000E+03 0.  0.
   -5000001    1    1    2    0    0  0.11299096099E+03  0.60823476962E+02  0.17534961513E+02  0.18139164118E+03  0.12700000000E+03 0.  0.
<mgrwt>
<rscale>  0 0.36442122E+03</rscale>
<asrwt>0</asrwt>
<pdfrwt beam="1">  1        2 0.20623527E-01 0.36442122E+03</pdfrwt>
<pdfrwt beam="2">  1       -2 0.32854004E-01 0.36442122E+03</pdfrwt>
<totfact> 0.23309443E+03</totfact>
</mgrwt>
</event>
<event>
 4    1  0.9032007E-005  0.4270129E+03  0.7818608E-02  0.1034808E+00
         -2   -1    0    0    0  501 -0.00000000000E+00  0.00000000000E+00  0.27884478907E+02  0.27884479024E+02  0.25500000000E-02 0. -1.
          2   -1    0    0  501    0  0.00000000000E+00 -0.00000000000E+00 -0.16347808688E+04  0.16347808688E+04  0.25500000000E-02 0.  1.
    5000001    1    1    2    0    0  0.14951622553E+02  0.11223148621E+03 -0.13056699400E+04  0.13167089465E+04  0.12700000000E+03 0.  0.
   -5000001    1    1    2    0    0 -0.14951622553E+02 -0.11223148621E+03 -0.30122644984E+03  0.34595640130E+03  0.12700000000E+03 0.  0.
<mgrwt>
<rscale>  0 0.42701294E+03</rscale>
<asrwt>0</asrwt>
<pdfrwt beam="1">  1        2 0.23354006E+00 0.42701294E+03</pdfrwt>
<pdfrwt beam="2">  1       -2 0.39834980E-02 0.42701294E+03</pdfrwt>
<totfact> 0.36947402E+03</totfact>
</mgrwt>
</event>
<event>
 4    1  0.9032007E-005  0.3876926E+03  0.7818608E-02  0.1048127E+00
         -2   -1    0    0    0  501 -0.00000000000E+00  0.00000000000E+00  0.25705585621E+02  0.25705585747E+02  0.25500000000E-02 0. -1.
          2   -1    0    0  501    0  0.00000000000E+00 -0.00000000000E+00 -0.14617985651E+04  0.14617985651E+04  0.25500000000E-02 0.  1.
    5000001    1    1    2    0    0 -0.11481788239E+03  0.44023202812E+02 -0.41287628836E+03  0.44912917740E+03  0.12700000000E+03 0.  0.
   -5000001    1    1    2    0    0  0.11481788239E+03 -0.44023202812E+02 -0.10232166912E+04  0.10383749735E+04  0.12700000000E+03 0.  0.
<mgrwt>
<rscale>  0 0.38769260E+03</rscale>
<asrwt>0</asrwt>
<pdfrwt beam="1">  1        2 0.20882831E+00 0.38769260E+03</pdfrwt>
<pdfrwt beam="2">  1       -2 0.36722274E-02 0.38769260E+03</pdfrwt>
<totfact> 0.51214101E+03</totfact>
</mgrwt>
</event>
<event>
 4    1  0.9032007E-005  0.3521428E+03  0.7818608E-02  0.1061739E+00
          2   -1    0    0  501    0  0.00000000000E+00  0.00000000000E+00  0.73994240921E+03  0.73994240921E+03  0.25500000000E-02 0.  1.
         -2   -1    0    0    0  501 -0.00000000000E+00 -0.00000000000E+00 -0.41896679331E+02  0.41896679408E+02  0.25500000000E-02 0. -1.
    5000001    1    1    2    0    0  0.39440702454E+02 -0.11433105852E+03  0.38377288048E+03  0.42194523785E+03  0.12700000000E+03 0.  0.
   -5000001    1    1    2    0    0 -0.39440702454E+02  0.11433105852E+03  0.31427284939E+03  0.35989385076E+03  0.12700000000E+03 0.  0.
<mgrwt>
<rscale>  0 0.35214275E+03</rscale>
<asrwt>0</asrwt>
<pdfrwt beam="1">  1        2 0.10570605E+00 0.35214275E+03</pdfrwt>
<pdfrwt beam="2">  1       -2 0.59852402E-02 0.35214275E+03</pdfrwt>
<totfact> 0.64075366E+03</totfact>
</mgrwt>
</event>
<event>
 4    1  0.9032007E-005  0.3719372E+03  0.7818608E-02  0.1053955E+00
         -2   -1    0    0    0  501 -0.00000000000E+00  0.00000000000E+00  0.13264951398E+03  0.13264951400E+03  0.25500000000E-02 0. -1.
          2   -1    0    0  501    0  0.00000000000E+00 -0.00000000000E+00 -0.26071948950E+03  0.26071948952E+03  0.25500000000E-02 0.  1.
    5000001    1    1    2    0    0  0.27398705731E+02  0.12447205303E+03 -0.14300507312E+02  0.18049234214E+03  0.12700000000E+03 0.  0.
   -5000001    1    1    2    0    0 -0.27398705731E+02 -0.12447205303E+03 -0.11376946821E+03  0.21287666138E+03  0.12700000000E+03 0.  0.
<mgrwt>
<rscale>  0 0.37193716E+03</rscale>
<asrwt>0</asrwt>
<pdfrwt beam="1">  1        2 0.37245641E-01 0.37193716E+03</pdfrwt>
<pdfrwt beam="2">  1       -2 0.18949931E-01 0.37193716E+03</pdfrwt>
<totfact> 0.32042145E+03</totfact>
</mgrwt>
</event>
<event>
 4    1  0.9032007E-005  0.4913772E+03  0.7818608E-02  0.1016054E+00
          2   -1    0    0  501    0  0.00000000000E+00  0.00000000000E+00  0.36287795481E+04  0.36287795481E+04  0.25500000000E-02 0.  1.
         -2   -1    0    0    0  501 -0.00000000000E+00 -0.00000000000E+00 -0.16634484414E+02  0.16634484610E+02  0.25500000000E-02 0. -1.
    5000001    1    1    2    0    0  0.15494381327E+03 -0.17934870874E+02  0.75940445328E+03  0.78559109499E+03  0.12700000000E+03 0.  0.
   -5000001    1    1    2    0    0 -0.15494381327E+03  0.17934870874E+02  0.28527406104E+04  0.28598229377E+04  0.12700000000E+03 0.  0.
<mgrwt>
<rscale>  0 0.49137716E+03</rscale>
<asrwt>0</asrwt>
<pdfrwt beam="1">  1        2 0.51839686E+00 0.49137716E+03</pdfrwt>
<pdfrwt beam="2">  1       -2 0.23763559E-02 0.49137716E+03</pdfrwt>
<totfact> 0.71136295E+02</totfact>
</mgrwt>
</event>
<event>
 4    1  0.9032007E-005  0.2883849E+03  0.7818608E-02  0.1091195E+00
         -2   -1    0    0    0  501 -0.00000000000E+00  0.00000000000E+00  0.85940256715E+02  0.85940256753E+02  0.25500000000E-02 0.  1.
          2   -1    0    0  501    0  0.00000000000E+00 -0.00000000000E+00 -0.24192931823E+03  0.24192931824E+03  0.25500000000E-02 0. -1.
    5000001    1    1    2    0    0  0.53643520575E+02 -0.19278434740E+02 -0.35255206188E+02  0.14360088756E+03  0.12700000000E+03 0.  0.
   -5000001    1    1    2    0    0 -0.53643520575E+02  0.19278434740E+02 -0.12073385533E+03  0.18426868743E+03  0.12700000000E+03 0.  0.
<mgrwt>
<rscale>  0 0.28838494E+03</rscale>
<asrwt>0</asrwt>
<pdfrwt beam="1">  1        2 0.34561331E-01 0.28838494E+03</pdfrwt>
<pdfrwt beam="2">  1       -2 0.12277180E-01 0.28838494E+03</pdfrwt>
<totfact> 0.71044605E+03</totfact>
</mgrwt>
</event>
<event>
 4    1  0.9032007E-005  0.3030686E+03  0.7818608E-02  0.1083717E+00
         -2   -1    0    0    0  501 -0.00000000000E+00  0.00000000000E+00  0.15360773604E+02  0.15360773815E+02  0.25500000000E-02 0. -1.
          2   -1    0    0  501    0  0.00000000000E+00 -0.00000000000E+00 -0.14948887980E+04  0.14948887980E+04  0.25500000000E-02 0.  1.
    5000001    1    1    2    0    0  0.30593032427E+02  0.43382391286E+02 -0.10555460693E+04  0.10644831938E+04  0.12700000000E+03 0.  0.
   -5000001    1    1    2    0    0 -0.30593032427E+02 -0.43382391286E+02 -0.42398195510E+03  0.44576637800E+03  0.12700000000E+03 0.  0.
<mgrwt>
<rscale>  0 0.30306863E+03</rscale>
<asrwt>0</asrwt>
<pdfrwt beam="1">  1        2 0.21355545E+00 0.30306863E+03</pdfrwt>
<pdfrwt beam="2">  1       -2 0.21943972E-02 0.30306863E+03</pdfrwt>
<totfact> 0.10602742E+04</totfact>
</mgrwt>
</event>
<event>
 4    1  0.9032007E-005  0.4380302E+03  0.7818608E-02  0.1031353E+00
         -2   -1    0    0    0  501 -0.00000000000E+00  0.00000000000E+00  0.14581454161E+04  0.14581454161E+04  0.25500000000E-02 0. -1.
          2   -1    0    0  501    0  0.00000000000E+00 -0.00000000000E+00 -0.32896313078E+02  0.32896313177E+02  0.25500000000E-02 0.  1.
    5000001    1    1    2    0    0  0.64218260221E+02  0.16082438052E+03  0.56620863592E+03  0.60556559159E+03  0.12700000000E+03 0.  0.
   -5000001    1    1    2    0    0 -0.64218260221E+02 -0.16082438052E+03  0.85904046712E+03  0.88547613772E+03  0.12700000000E+03 0.  0.
<mgrwt>
<rscale>  0 0.43803017E+03</rscale>
<asrwt>0</asrwt>
<pdfrwt beam="1">  1        2 0.46994730E-02 0.43803017E+03</pdfrwt>
<pdfrwt beam="2">  1       -2 0.20830650E+00 0.43803017E+03</pdfrwt>
<totfact> 0.21776946E+02</totfact>
</mgrwt>
</event>
<event>
 4    1  0.9032007E-005  0.5411456E+03  0.7818608E-02  0.1003564E+00
         -2   -1    0    0    0  501 -0.00000000000E+00  0.00000000000E+00  0.20122237717E+03  0.20122237719E+03  0.25500000000E-02 0. -1.
          2   -1    0    0  501    0  0.00000000000E+00 -0.00000000000E+00 -0.36382455806E+03  0.36382455807E+03  0.25500000000E-02 0.  1.
    5000001    1    1    2    0    0 -0.14953473813E+03  0.50761773509E+02 -0.26850514783E+03  0.33639472345E+03  0.12700000000E+03 0.  0.
   -5000001    1    1    2    0    0  0.14953473813E+03 -0.50761773509E+02  0.10590296693E+03  0.22865221181E+03  0.12700000000E+03 0.  0.
<mgrwt>
<rscale>  0 0.54114561E+03</rscale>
<asrwt>0</asrwt>
<pdfrwt beam="1">  1        2 0.51974937E-01 0.54114561E+03</pdfrwt>
<pdfrwt beam="2">  1       -2 0.28746054E-01 0.54114561E+03</pdfrwt>
<totfact> 0.10684306E+03</totfact>
</mgrwt>
</event>
<event>
 4    1  0.9032007E-005  0.5736162E+03  0.7818608E-02  0.9961708E-01
         -2   -1    0    0    0  501 -0.00000000000E+00  0.00000000000E+00  0.94190753158E+02  0.94190753192E+02  0.25500000000E-02 0. -1.
          2   -1    0    0  501    0  0.00000000000E+00 -0.00000000000E+00 -0.87332225723E+03  0.87332225723E+03  0.25500000000E-02 0.  1.
    5000001    1    1    2    0    0  0.22699628469E+03  0.62716198631E+02 -0.21534403468E+03  0.34345696689E+03  0.12700000000E+03 0.  0.
   -5000001    1    1    2    0    0 -0.22699628469E+03 -0.62716198631E+02 -0.56378746939E+03  0.62405604354E+03  0.12700000000E+03 0.  0.
<mgrwt>
<rscale>  0 0.57361618E+03</rscale>
<asrwt>0</asrwt>
<pdfrwt beam="1">  1        2 0.12476032E+00 0.57361618E+03</pdfrwt>
<pdfrwt beam="2">  1       -2 0.13455822E-01 0.57361618E+03</pdfrwt>
<totfact> 0.14281300E+03</totfact>
</mgrwt>
</event>
<event>
 4    1  0.9032007E-005  0.6306425E+03  0.7818608E-02  0.9843796E-01
          2   -1    0    0  501    0  0.00000000000E+00  0.00000000000E+00  0.96295081594E+03  0.96295081594E+03  0.25500000000E-02 0.  1.
         -2   -1    0    0    0  501 -0.00000000000E+00 -0.00000000000E+00 -0.10325293013E+03  0.10325293017E+03  0.25500000000E-02 0. -1.
    5000001    1    1    2    0    0 -0.27957486434E+02  0.26822852819E+03  0.60366953090E+03  0.67325631591E+03  0.12700000000E+03 0.  0.
   -5000001    1    1    2    0    0  0.27957486434E+02 -0.26822852819E+03  0.25602835491E+03  0.39294743020E+03  0.12700000000E+03 0.  0.
<mgrwt>
<rscale>  0 0.63064251E+03</rscale>
<asrwt>0</asrwt>
<pdfrwt beam="1">  1        2 0.13756440E+00 0.63064251E+03</pdfrwt>
<pdfrwt beam="2">  1       -2 0.14750419E-01 0.63064251E+03</pdfrwt>
<totfact> 0.10723245E+03</totfact>
</mgrwt>
</event>
<event>
 4    1  0.9032007E-005  0.3646192E+03  0.7818608E-02  0.1056770E+00
          2   -1    0    0  501    0  0.00000000000E+00  0.00000000000E+00  0.72789353194E+03  0.72789353194E+03  0.25500000000E-02 0.  1.
         -2   -1    0    0    0  501 -0.00000000000E+00 -0.00000000000E+00 -0.45661600974E+02  0.45661601045E+02  0.25500000000E-02 0. -1.
    5000001    1    1    2    0    0 -0.74132092911E+02  0.83053528318E+02  0.19544879339E+03  0.25830734911E+03  0.12700000000E+03 0.  0.
   -5000001    1    1    2    0    0  0.74132092911E+02 -0.83053528318E+02  0.48678313758E+03  0.51524778388E+03  0.12700000000E+03 0.  0.
<mgrwt>
<rscale>  0 0.36461917E+03</rscale>
<asrwt>0</asrwt>
<pdfrwt beam="1">  1        2 0.10398478E+00 0.36461917E+03</pdfrwt>
<pdfrwt beam="2">  1       -2 0.65230862E-02 0.36461917E+03</pdfrwt>
<totfact> 0.57255362E+03</totfact>
</mgrwt>
</event>
<event>
 4    1  0.9032007E-005  0.5187115E+03  0.7818608E-02  0.1009007E+00
         -2   -1    0    0    0  501 -0.00000000000E+00  0.00000000000E+00  0.60486915038E+02  0.60486915092E+02  0.25500000000E-02 0. -1.
          2   -1    0    0  501    0  0.00000000000E+00 -0.00000000000E+00 -0.11120653034E+04  0.11120653034E+04  0.25500000000E-02 0.  1.
    5000001    1    1    2    0    0  0.20687282336E+03 -0.16556322527E+02 -0.72880664104E+03  0.76834796602E+03  0.12700000000E+03 0.  0.
   -5000001    1    1    2    0    0 -0.20687282336E+03  0.16556322527E+02 -0.32277174736E+03  0.40420425252E+03  0.12700000000E+03 0.  0.
<mgrwt>
<rscale>  0 0.51871148E+03</rscale>
<asrwt>0</asrwt>
<pdfrwt beam="1">  1        2 0.15886646E+00 0.51871148E+03</pdfrwt>
<pdfrwt beam="2">  1       -2 0.86409885E-02 0.51871148E+03</pdfrwt>
<totfact> 0.21000659E+03</totfact>
</mgrwt>
</event>
<event>
 4    1  0.9032007E-005  0.3612935E+03  0.7818608E-02  0.1058073E+00
          2   -1    0    0  501    0  0.00000000000E+00  0.00000000000E+00  0.92875211952E+03  0.92875211952E+03  0.25500000000E-02 0.  1.
         -2   -1    0    0    0  501 -0.00000000000E+00 -0.00000000000E+00 -0.35136667239E+02  0.35136667331E+02  0.25500000000E-02 0. -1.
    5000001    1    1    2    0    0  0.95377010908E+02  0.31333219182E+02  0.66066660226E+03  0.68021166131E+03  0.12700000000E+03 0.  0.
   -5000001    1    1    2    0    0 -0.95377010908E+02 -0.31333219182E+02  0.23294885002E+03  0.28367712555E+03  0.12700000000E+03 0.  0.
<mgrwt>
<rscale>  0 0.36129353E+03</rscale>
<asrwt>0</asrwt>
<pdfrwt beam="1">  1        2 0.13267885E+00 0.36129353E+03</pdfrwt>
<pdfrwt beam="2">  1       -2 0.50195246E-02 0.36129353E+03</pdfrwt>
<totfact> 0.62961401E+03</totfact>
</mgrwt>
</event>
<event>
 4    1  0.9032007E-005  0.5373800E+03  0.7818608E-02  0.1004458E+00
         -2   -1    0    0    0  501 -0.00000000000E+00  0.00000000000E+00  0.60970288902E+02  0.60970288955E+02  0.25500000000E-02 0. -1.
          2   -1    0    0  501    0  0.00000000000E+00 -0.00000000000E+00 -0.11840901075E+04  0.11840901075E+04  0.25500000000E-02 0.  1.
    5000001    1    1    2    0    0 -0.26998812164E+02  0.22771223223E+03 -0.69830698189E+03  0.74588433253E+03  0.12700000000E+03 0.  0.
   -5000001    1    1    2    0    0  0.26998812164E+02 -0.22771223223E+03 -0.42481283672E+03  0.49917606394E+03  0.12700000000E+03 0.  0.
<mgrwt>
<rscale>  0 0.53738000E+03</rscale>
<asrwt>0</asrwt>
<pdfrwt beam="1">  1        2 0.16915572E+00 0.53738000E+03</pdfrwt>
<pdfrwt beam="2">  1       -2 0.87100420E-02 0.53738000E+03</pdfrwt>
<totfact> 0.18865795E+03</totfact>
</mgrwt>
</event>
<event>
 4    1  0.9032007E-005  0.4322200E+03  0.7818608E-02  0.1033161E+00
          2   -1    0    0  501    0  0.00000000000E+00  0.00000000000E+00  0.36644048021E+03  0.36644048021E+03  0.25500000000E-02 0.  1.
         -2   -1    0    0    0  501 -0.00000000000E+00 -0.00000000000E+00 -0.12745186214E+03  0.12745186217E+03  0.25500000000E-02 0. -1.
    5000001    1    1    2    0    0  0.46596332614E+02 -0.13830399203E+03  0.22954472271E+03  0.30019825474E+03  0.12700000000E+03 0.  0.
   -5000001    1    1    2    0    0 -0.46596332614E+02  0.13830399203E+03  0.94438953509E+01  0.19369408764E+03  0.12700000000E+03 0.  0.
<mgrwt>
<rscale>  0 0.43221995E+03</rscale>
<asrwt>0</asrwt>
<pdfrwt beam="1">  1        2 0.52348641E-01 0.43221995E+03</pdfrwt>
<pdfrwt beam="2">  1       -2 0.18207409E-01 0.43221995E+03</pdfrwt>
<totfact> 0.23721740E+03</totfact>
</mgrwt>
</event>
<event>
 4    1  0.9032007E-005  0.3182541E+03  0.7818608E-02  0.1076456E+00
          2   -1    0    0  501    0  0.00000000000E+00  0.00000000000E+00  0.28845393477E+03  0.28845393479E+03  0.25500000000E-02 0.  1.
         -2   -1    0    0    0  501 -0.00000000000E+00 -0.00000000000E+00 -0.87783253470E+02  0.87783253507E+02  0.25500000000E-02 0. -1.
    5000001    1    1    2    0    0 -0.56847902950E+02  0.70030488655E+02  0.13876057640E+03  0.20861316108E+03  0.12700000000E+03 0.  0.
   -5000001    1    1    2    0    0  0.56847902950E+02 -0.70030488655E+02  0.61910104901E+02  0.16762402722E+03  0.12700000000E+03 0.  0.
<mgrwt>
<rscale>  0 0.31825414E+03</rscale>
<asrwt>0</asrwt>
<pdfrwt beam="1">  1        2 0.41207704E-01 0.31825414E+03</pdfrwt>
<pdfrwt beam="2">  1       -2 0.12540465E-01 0.31825414E+03</pdfrwt>
<totfact> 0.56902946E+03</totfact>
</mgrwt>
</event>
<event>
 4    1  0.9032007E-005  0.3495372E+03  0.7818608E-02  0.1062805E+00
         -2   -1    0    0    0  501 -0.00000000000E+00  0.00000000000E+00  0.45598505979E+02  0.45598506050E+02  0.25500000000E-02 0. -1.
          2   -1    0    0  501    0  0.00000000000E+00 -0.00000000000E+00 -0.66984783821E+03  0.66984783822E+03  0.25500000000E-02 0.  1.
    5000001    1    1    2    0    0 -0.10807627739E+03  0.48908089681E+02 -0.27424001966E+03  0.32466763213E+03  0.12700000000E+03 0.  0.
   -5000001    1    1    2    0    0  0.10807627739E+03 -0.48908089681E+02 -0.35000931257E+03  0.39077871214E+03  0.12700000000E+03 0.  0.
<mgrwt>
<rscale>  0 0.34953718E+03</rscale>
<asrwt>0</asrwt>
<pdfrwt beam="1">  1        2 0.95692542E-01 0.34953718E+03</pdfrwt>
<pdfrwt beam="2">  1       -2 0.65140727E-02 0.34953718E+03</pdfrwt>
<totfact> 0.63328410E+03</totfact>
</mgrwt>
</event>
<event>
 4    1  0.9032007E-005  0.3935662E+03  0.7818608E-02  0.1046031E+00
         -2   -1    0    0    0  501 -0.00000000000E+00  0.00000000000E+00  0.13085743671E+03  0.13085743673E+03  0.25500000000E-02 0. -1.
          2   -1    0    0  501    0  0.00000000000E+00 -0.00000000000E+00 -0.29592194250E+03  0.29592194251E+03  0.25500000000E-02 0.  1.
    5000001    1    1    2    0    0 -0.78473702588E+02  0.10197615381E+03  0.17251486328E+01  0.18080164292E+03  0.12700000000E+03 0.  0.
   -5000001    1    1    2    0    0  0.78473702588E+02 -0.10197615381E+03 -0.16678965443E+03  0.24597773632E+03  0.12700000000E+03 0.  0.
<mgrwt>
<rscale>  0 0.39356619E+03</rscale>
<asrwt>0</asrwt>
<pdfrwt beam="1">  1        2 0.42274563E-01 0.39356619E+03</pdfrwt>
<pdfrwt beam="2">  1       -2 0.18693920E-01 0.39356619E+03</pdfrwt>
<totfact> 0.28594960E+03</totfact>
</mgrwt>
</event>
<event>
 4    1  0.9032007E-005  0.4207805E+03  0.7818608E-02  0.1036813E+00
         -2   -1    0    0    0  501 -0.00000000000E+00  0.00000000000E+00  0.10875451151E+03  0.10875451154E+03  0.25500000000E-02 0. -1.
          2   -1    0    0  501    0  0.00000000000E+00 -0.00000000000E+00 -0.40700890422E+03  0.40700890423E+03  0.25500000000E-02 0.  1.
    5000001    1    1    2    0    0  0.14371523465E+03  0.48261527685E+01 -0.43275645430E+02  0.19667013476E+03  0.12700000000E+03 0.  0.
   -5000001    1    1    2    0    0 -0.14371523465E+03 -0.48261527685E+01 -0.25497874728E+03  0.31909328101E+03  0.12700000000E+03 0.  0.
<mgrwt>
<rscale>  0 0.42078049E+03</rscale>
<asrwt>0</asrwt>
<pdfrwt beam="1">  1        2 0.58144128E-01 0.42078049E+03</pdfrwt>
<pdfrwt beam="2">  1       -2 0.15536359E-01 0.42078049E+03</pdfrwt>
<totfact> 0.27636718E+03</totfact>
</mgrwt>
</event>
<event>
 4    1  0.9032007E-005  0.2931422E+03  0.7818608E-02  0.1088720E+00
         -2   -1    0    0    0  501 -0.00000000000E+00  0.00000000000E+00  0.17890818175E+02  0.17890818357E+02  0.25500000000E-02 0. -1.
          2   -1    0    0  501    0  0.00000000000E+00 -0.00000000000E+00 -0.12007882937E+04  0.12007882937E+04  0.25500000000E-02 0.  1.
    5000001    1    1    2    0    0 -0.67906454814E+02  0.27250863531E+02 -0.58964152309E+03  0.60758540299E+03  0.12700000000E+03 0.  0.
   -5000001    1    1    2    0    0  0.67906454814E+02 -0.27250863531E+02 -0.59325595239E+03  0.61109370903E+03  0.12700000000E+03 0.  0.
<mgrwt>
<rscale>  0 0.29314218E+03</rscale>
<asrwt>0</asrwt>
<pdfrwt beam="1">  1        2 0.17154113E+00 0.29314218E+03</pdfrwt>
<pdfrwt beam="2">  1       -2 0.25558319E-02 0.29314218E+03</pdfrwt>
<totfact> 0.12047571E+04</totfact>
</mgrwt>
</event>
<event>
 4    1  0.9032007E-005  0.6175191E+03  0.7818608E-02  0.9869712E-01
          2   -1    0    0  501    0  0.00000000000E+00  0.00000000000E+00  0.12911703496E+04  0.12911703496E+04  0.25500000000E-02 0.  1.
         -2   -1    0    0    0  501 -0.00000000000E+00 -0.00000000000E+00 -0.73834150402E+02  0.73834150446E+02  0.25500000000E-02 0. -1.
    5000001    1    1    2    0    0 -0.13001521710E+03  0.21544896300E+03  0.88723278790E+03  0.93093137893E+03  0.12700000000E+03 0.  0.
   -5000001    1    1    2    0    0  0.13001521710E+03 -0.21544896300E+03  0.33010341131E+03  0.43407312114E+03  0.12700000000E+03 0.  0.
<mgrwt>
<rscale>  0 0.61751912E+03</rscale>
<asrwt>0</asrwt>
<pdfrwt beam="1">  1        2 0.18445289E+00 0.61751912E+03</pdfrwt>
<pdfrwt beam="2">  1       -2 0.10547737E-01 0.61751912E+03</pdfrwt>
<totfact> 0.12061931E+03</totfact>
</mgrwt>
</event>
<event>
 4    1  0.9032007E-005  0.4669903E+03  0.7818608E-02  0.1022773E+00
         -2   -1    0    0    0  501 -0.00000000000E+00  0.00000000000E+00  0.73423156293E+02  0.73423156337E+02  0.25500000000E-02 0. -1.
          2   -1    0    0  501    0  0.00000000000E+00 -0.00000000000E+00 -0.74254467158E+03  0.74254467158E+03  0.25500000000E-02 0.  1.
    5000001    1    1    2    0    0 -0.66891898835E+02 -0.14455775102E+03 -0.53393196618E+03  0.57147512108E+03  0.12700000000E+03 0.  0.
   -5000001    1    1    2    0    0  0.66891898835E+02  0.14455775102E+03 -0.13518954911E+03  0.24449270684E+03  0.12700000000E+03 0.  0.
<mgrwt>
<rscale>  0 0.46699025E+03</rscale>
<asrwt>0</asrwt>
<pdfrwt beam="1">  1        2 0.10607781E+00 0.46699025E+03</pdfrwt>
<pdfrwt beam="2">  1       -2 0.10489023E-01 0.46699025E+03</pdfrwt>
<totfact> 0.26423533E+03</totfact>
</mgrwt>
</event>
<event>
 4    1  0.9032007E-005  0.3482770E+03  0.7818608E-02  0.1063324E+00
         -2   -1    0    0    0  501 -0.00000000000E+00  0.00000000000E+00  0.24598739292E+02  0.24598739424E+02  0.25500000000E-02 0. -1.
          2   -1    0    0  501    0  0.00000000000E+00 -0.00000000000E+00 -0.12327549531E+04  0.12327549531E+04  0.25500000000E-02 0.  1.
    5000001    1    1    2    0    0  0.71017797016E+02  0.75008105419E+02 -0.81843697055E+03  0.83464832003E+03  0.12700000000E+03 0.  0.
   -5000001    1    1    2    0    0 -0.71017797016E+02 -0.75008105419E+02 -0.38971924329E+03  0.42270537252E+03  0.12700000000E+03 0.  0.
<mgrwt>
<rscale>  0 0.34827700E+03</rscale>
<asrwt>0</asrwt>
<pdfrwt beam="1">  1        2 0.17610781E+00 0.34827700E+03</pdfrwt>
<pdfrwt beam="2">  1       -2 0.35141064E-02 0.34827700E+03</pdfrwt>
<totfact> 0.72207279E+03</totfact>
</mgrwt>
</event>
<event>
 4    1  0.9032007E-005  0.3355531E+03  0.7818608E-02  0.1068706E+00
         -2   -1    0    0    0  501 -0.00000000000E+00  0.00000000000E+00  0.51304130220E+02  0.51304130284E+02  0.25500000000E-02 0. -1.
          2   -1    0    0  501    0  0.00000000000E+00 -0.00000000000E+00 -0.54866880539E+03  0.54866880540E+03  0.25500000000E-02 0.  1.
    5000001    1    1    2    0    0  0.75401315208E+02  0.43287649104E+01 -0.39078011227E+03  0.41778247054E+03  0.12700000000E+03 0.  0.
   -5000001    1    1    2    0    0 -0.75401315208E+02 -0.43287649104E+01 -0.10658456290E+03  0.18219046514E+03  0.12700000000E+03 0.  0.
<mgrwt>
<rscale>  0 0.33555313E+03</rscale>
<asrwt>0</asrwt>
<pdfrwt beam="1">  1        2 0.78381254E-01 0.33555313E+03</pdfrwt>
<pdfrwt beam="2">  1       -2 0.73291618E-02 0.33555313E+03</pdfrwt>
<totfact> 0.66310873E+03</totfact>
</mgrwt>
</event>
<event>
 4    1  0.9032007E-005  0.8000589E+03  0.7818608E-02  0.9559932E-01
          2   -1    0    0  501    0  0.00000000000E+00  0.00000000000E+00  0.11140613775E+04  0.11140613775E+04  0.25500000000E-02 0.  1.
         -2   -1    0    0    0  501 -0.00000000000E+00 -0.00000000000E+00 -0.14363980803E+03  0.14363980805E+03  0.25500000000E-02 0. -1.
    5000001    1    1    2    0    0  0.31816233604E+03  0.20154702784E+03  0.55631861717E+03  0.68371622791E+03  0.12700000000E+03 0.  0.
   -5000001    1    1    2    0    0 -0.31816233604E+03 -0.20154702784E+03  0.41410295234E+03  0.57398495768E+03  0.12700000000E+03 0.  0.
<mgrwt>
<rscale>  0 0.80005890E+03</rscale>
<asrwt>0</asrwt>
<pdfrwt beam="1">  1        2 0.15915162E+00 0.80005890E+03</pdfrwt>
<pdfrwt beam="2">  1       -2 0.20519974E-01 0.80005890E+03</pdfrwt>
<totfact> 0.49039264E+02</totfact>
</mgrwt>
</event>
<event>
 4    1  0.9032007E-005  0.2605194E+03  0.7818608E-02  0.1106832E+00
         -2   -1    0    0    0  501 -0.00000000000E+00  0.00000000000E+00  0.89992900306E+01  0.89992903919E+01  0.25500000000E-02 0. -1.
          2   -1    0    0  501    0  0.00000000000E+00 -0.00000000000E+00 -0.18854371314E+04  0.18854371314E+04  0.25500000000E-02 0.  1.
    5000001    1    1    2    0    0  0.27250633211E+02 -0.72476882374E+01 -0.89027491163E+03  0.89972970624E+03  0.12700000000E+03 0.  0.
   -5000001    1    1    2    0    0 -0.27250633211E+02  0.72476882374E+01 -0.98616292975E+03  0.99470671558E+03  0.12700000000E+03 0.  0.
<mgrwt>
<rscale>  0 0.26051945E+03</rscale>
<asrwt>0</asrwt>
<pdfrwt beam="1">  1        2 0.26934791E+00 0.26051945E+03</pdfrwt>
<pdfrwt beam="2">  1       -2 0.12856141E-02 0.26051945E+03</pdfrwt>
<totfact> 0.14829687E+04</totfact>
</mgrwt>
</event>
<event>
 4    1  0.9032007E-005  0.4606118E+03  0.7818608E-02  0.1024604E+00
         -2   -1    0    0    0  501 -0.00000000000E+00  0.00000000000E+00  0.93341202157E+02  0.93341202191E+02  0.25500000000E-02 0. -1.
          2   -1    0    0  501    0  0.00000000000E+00 -0.00000000000E+00 -0.56824635767E+03  0.56824635768E+03  0.25500000000E-02 0.  1.
    5000001    1    1    2    0    0  0.68724837734E+02  0.10556256247E+03 -0.29085426951E+02  0.18122229437E+03  0.12700000000E+03 0.  0.
   -5000001    1    1    2    0    0 -0.68724837734E+02 -0.10556256247E+03 -0.44581972857E+03  0.48036526550E+03  0.12700000000E+03 0.  0.
<mgrwt>
<rscale>  0 0.46061176E+03</rscale>
<asrwt>0</asrwt>
<pdfrwt beam="1">  1        2 0.81178049E-01 0.46061176E+03</pdfrwt>
<pdfrwt beam="2">  1       -2 0.13334458E-01 0.46061176E+03</pdfrwt>
<totfact> 0.24535249E+03</totfact>
</mgrwt>
</event>
<event>
 4    1  0.9032007E-005  0.3080728E+03  0.7818608E-02  0.1081273E+00
          2   -1    0    0  501    0  0.00000000000E+00  0.00000000000E+00  0.38810646142E+03  0.38810646143E+03  0.25500000000E-02 0.  1.
         -2   -1    0    0    0  501 -0.00000000000E+00 -0.00000000000E+00 -0.61135824679E+02  0.61135824733E+02  0.25500000000E-02 0. -1.
    5000001    1    1    2    0    0 -0.29838023720E+02  0.77487439451E+02  0.12480504781E+03  0.19646860027E+03  0.12700000000E+03 0.  0.
   -5000001    1    1    2    0    0  0.29838023720E+02 -0.77487439451E+02  0.20216558893E+03  0.25277368589E+03  0.12700000000E+03 0.  0.
<mgrwt>
<rscale>  0 0.30807277E+03</rscale>
<asrwt>0</asrwt>
<pdfrwt beam="1">  1        2 0.55443780E-01 0.30807277E+03</pdfrwt>
<pdfrwt beam="2">  1       -2 0.87336894E-02 0.30807277E+03</pdfrwt>
<totfact> 0.73594206E+03</totfact>
</mgrwt>
</event>
<event>
 4    1  0.9032007E-005  0.4185636E+03  0.7818608E-02  0.1037535E+00
          2   -1    0    0  501    0  0.00000000000E+00  0.00000000000E+00  0.10408133677E+04  0.10408133677E+04  0.25500000000E-02 0.  1.
         -2   -1    0    0    0  501 -0.00000000000E+00 -0.00000000000E+00 -0.42081395746E+02  0.42081395823E+02  0.25500000000E-02 0. -1.
    5000001    1    1    2    0    0  0.88581097489E+02  0.54287105028E+02  0.16327116811E+03  0.23147391849E+03  0.12700000000E+03 0.  0.
   -5000001    1    1    2    0    0 -0.88581097489E+02 -0.54287105028E+02  0.83546080385E+03  0.85142084505E+03  0.12700000000E+03 0.  0.
<mgrwt>
<rscale>  0 0.41856364E+03</rscale>
<asrwt>0</asrwt>
<pdfrwt beam="1">  1        2 0.14868761E+00 0.41856364E+03</pdfrwt>
<pdfrwt beam="2">  1       -2 0.60116286E-02 0.41856364E+03</pdfrwt>
<totfact> 0.40882705E+03</totfact>
</mgrwt>
</event>
<event>
 4    1  0.9032007E-005  0.6089793E+03  0.7818608E-02  0.9886950E-01
          2   -1    0    0  501    0  0.00000000000E+00  0.00000000000E+00  0.77757751910E+02  0.77757751952E+02  0.25500000000E-02 0.  1.
         -2   -1    0    0    0  501 -0.00000000000E+00 -0.00000000000E+00 -0.11923434422E+04  0.11923434422E+04  0.25500000000E-02 0. -1.
    5000001    1    1    2    0    0 -0.29564696380E+02 -0.19730011522E+03 -0.95729520326E+03  0.98607530793E+03  0.12700000000E+03 0.  0.
   -5000001    1    1    2    0    0  0.29564696380E+02  0.19730011522E+03 -0.15729048705E+03  0.28402588624E+03  0.12700000000E+03 0.  0.
<mgrwt>
<rscale>  0 0.60897930E+03</rscale>
<asrwt>0</asrwt>
<pdfrwt beam="1">  1        2 0.11108251E-01 0.60897930E+03</pdfrwt>
<pdfrwt beam="2">  1       -2 0.17033477E+00 0.60897930E+03</pdfrwt>
<totfact> 0.12568499E+02</totfact>
</mgrwt>
</event>
<event>
 4    1  0.9032007E-005  0.2701932E+03  0.7818608E-02  0.1101169E+00
         -2   -1    0    0    0  501 -0.00000000000E+00  0.00000000000E+00  0.31830799498E+02  0.31830799600E+02  0.25500000000E-02 0. -1.
          2   -1    0    0  501    0  0.00000000000E+00 -0.00000000000E+00 -0.57337850954E+03  0.57337850954E+03  0.25500000000E-02 0.  1.
    5000001    1    1    2    0    0  0.24007161358E+02 -0.39188193211E+02 -0.27787057004E+03  0.30895487046E+03  0.12700000000E+03 0.  0.
   -5000001    1    1    2    0    0 -0.24007161358E+02  0.39188193211E+02 -0.26367714000E+03  0.29625443869E+03  0.12700000000E+03 0.  0.
<mgrwt>
<rscale>  0 0.27019324E+03</rscale>
<asrwt>0</asrwt>
<pdfrwt beam="1">  1        2 0.81911209E-01 0.27019324E+03</pdfrwt>
<pdfrwt beam="2">  1       -2 0.45472575E-02 0.27019324E+03</pdfrwt>
<totfact> 0.13026736E+04</totfact>
</mgrwt>
</event>
<event>
 4    1  0.9032007E-005  0.3675946E+03  0.7818608E-02  0.1055617E+00
         -2   -1    0    0    0  501 -0.00000000000E+00  0.00000000000E+00  0.17598698926E+02  0.17598699111E+02  0.25500000000E-02 0. -1.
          2   -1    0    0  501    0  0.00000000000E+00 -0.00000000000E+00 -0.19195420501E+04  0.19195420501E+04  0.25500000000E-02 0.  1.
    5000001    1    1    2    0    0 -0.83570081095E+02  0.12028606599E+02 -0.41036884603E+03  0.43779017305E+03  0.12700000000E+03 0.  0.
   -5000001    1    1    2    0    0  0.83570081095E+02 -0.12028606599E+02 -0.14915745052E+04  0.14993505762E+04  0.12700000000E+03 0.  0.
<mgrwt>
<rscale>  0 0.36759457E+03</rscale>
<asrwt>0</asrwt>
<pdfrwt beam="1">  1        2 0.27422016E+00 0.36759457E+03</pdfrwt>
<pdfrwt beam="2">  1       -2 0.25141011E-02 0.36759457E+03</pdfrwt>
<totfact> 0.53340958E+03</totfact>
</mgrwt>
</event>
<event>
 4    1  0.9032007E-005  0.3276834E+03  0.7818608E-02  0.1072167E+00
          2   -1    0    0  501    0  0.00000000000E+00  0.00000000000E+00  0.31739335011E+04  0.31739335011E+04  0.25500000000E-02 0.  1.
         -2   -1    0    0    0  501 -0.00000000000E+00 -0.00000000000E+00 -0.84576746538E+01  0.84576750382E+01  0.25500000000E-02 0. -1.
    5000001    1    1    2    0    0  0.65191771106E+02  0.74860962036E+02  0.12977723473E+04  0.13077446984E+04  0.12700000000E+03 0.  0.
   -5000001    1    1    2    0    0 -0.65191771106E+02 -0.74860962036E+02  0.18677034791E+04  0.18746464777E+04  0.12700000000E+03 0.  0.
<mgrwt>
<rscale>  0 0.32768337E+03</rscale>
<asrwt>0</asrwt>
<pdfrwt beam="1">  1        2 0.45341844E+00 0.32768337E+03</pdfrwt>
<pdfrwt beam="2">  1       -2 0.12082409E-02 0.32768337E+03</pdfrwt>
<totfact> 0.36090645E+03</totfact>
</mgrwt>
</event>
<event>
 4    1  0.9032007E-005  0.7058142E+03  0.7818608E-02  0.9707341E-01
          2   -1    0    0  501    0  0.00000000000E+00  0.00000000000E+00  0.34264639102E+03  0.34264639103E+03  0.25500000000E-02 0.  1.
         -2   -1    0    0    0  501 -0.00000000000E+00 -0.00000000000E+00 -0.36347504836E+03  0.36347504837E+03  0.25500000000E-02 0. -1.
    5000001    1    1    2    0    0  0.30332289833E+03 -0.32866828834E+02  0.11345154245E+03  0.34940701420E+03  0.12700000000E+03 0.  0.
   -5000001    1    1    2    0    0 -0.30332289833E+03  0.32866828834E+02 -0.13428019979E+03  0.35671442520E+03  0.12700000000E+03 0.  0.
<mgrwt>
<rscale>  0 0.70581418E+03</rscale>
<asrwt>0</asrwt>
<pdfrwt beam="1">  1        2 0.48949485E-01 0.70581418E+03</pdfrwt>
<pdfrwt beam="2">  1       -2 0.51925007E-01 0.70581418E+03</pdfrwt>
<totfact> 0.36311405E+02</totfact>
</mgrwt>
</event>
<event>
 4    1  0.9032007E-005  0.7851915E+03  0.7818608E-02  0.9581703E-01
          2   -1    0    0  501    0  0.00000000000E+00  0.00000000000E+00  0.62169466581E+03  0.62169466581E+03  0.25500000000E-02 0.  1.
         -2   -1    0    0    0  501 -0.00000000000E+00 -0.00000000000E+00 -0.24792139520E+03  0.24792139521E+03  0.25500000000E-02 0. -1.
    5000001    1    1    2    0    0 -0.30486600221E+03  0.14486817026E+03  0.35872145153E+03  0.50866506254E+03  0.12700000000E+03 0.  0.
   -5000001    1    1    2    0    0  0.30486600221E+03 -0.14486817026E+03  0.15051819076E+02  0.36095099849E+03  0.12700000000E+03 0.  0.
<mgrwt>
<rscale>  0 0.78519146E+03</rscale>
<asrwt>0</asrwt>
<pdfrwt beam="1">  1        2 0.88813524E-01 0.78519146E+03</pdfrwt>
<pdfrwt beam="2">  1       -2 0.35417342E-01 0.78519146E+03</pdfrwt>
<totfact> 0.39109821E+02</totfact>
</mgrwt>
</event>
<event>
 4    1  0.9032007E-005  0.4396581E+03  0.7818608E-02  0.1030852E+00
          2   -1    0    0  501    0  0.00000000000E+00  0.00000000000E+00  0.46106657244E+02  0.46106657314E+02  0.25500000000E-02 0.  1.
         -2   -1    0    0    0  501 -0.00000000000E+00 -0.00000000000E+00 -0.10481093703E+04  0.10481093703E+04  0.25500000000E-02 0. -1.
    5000001    1    1    2    0    0 -0.58491264733E+02 -0.96576240782E+02 -0.15392806133E+03  0.22928376828E+03  0.12700000000E+03 0.  0.
   -5000001    1    1    2    0    0  0.58491264733E+02  0.96576240782E+02 -0.84807465174E+03  0.86493225935E+03  0.12700000000E+03 0.  0.
<mgrwt>
<rscale>  0 0.43965814E+03</rscale>
<asrwt>0</asrwt>
<pdfrwt beam="1">  1        2 0.65866660E-02 0.43965814E+03</pdfrwt>
<pdfrwt beam="2">  1       -2 0.14972990E+00 0.43965814E+03</pdfrwt>
<totfact> 0.34953840E+02</totfact>
</mgrwt>
</event>
<event>
 4    1  0.9032007E-005  0.6831275E+03  0.7818608E-02  0.9746529E-01
          2   -1    0    0  501    0  0.00000000000E+00  0.00000000000E+00  0.33408733782E+04  0.33408733782E+04  0.25500000000E-02 0.  1.
         -2   -1    0    0    0  501 -0.00000000000E+00 -0.00000000000E+00 -0.34920750209E+02  0.34920750302E+02  0.25500000000E-02 0. -1.
    5000001    1    1    2    0    0 -0.26454597663E+03 -0.17144890062E+03  0.14848499901E+04  0.15232490907E+04  0.12700000000E+03 0.  0.
   -5000001    1    1    2    0    0  0.26454597663E+03  0.17144890062E+03  0.18211026379E+04  0.18525450378E+04  0.12700000000E+03 0.  0.
<mgrwt>
<rscale>  0 0.68312753E+03</rscale>
<asrwt>0</asrwt>
<pdfrwt beam="1">  1        2 0.47726725E+00 0.68312753E+03</pdfrwt>
<pdfrwt beam="2">  1       -2 0.49886825E-02 0.68312753E+03</pdfrwt>
<totfact> 0.33172209E+02</totfact>
</mgrwt>
</event>
<event>
 4    1  0.9032007E-005  0.3059933E+03  0.7818608E-02  0.1082282E+00
         -2   -1    0    0    0  501 -0.00000000000E+00  0.00000000000E+00  0.12152300604E+03  0.12152300607E+03  0.25500000000E-02 0. -1.
          2   -1    0    0  501    0  0.00000000000E+00 -0.00000000000E+00 -0.19262175465E+03  0.19262175467E+03  0.25500000000E-02 0.  1.
    5000001    1    1    2    0    0  0.56716002361E+02 -0.25716026174E+02  0.24321885382E+02  0.14352202979E+03  0.12700000000E+03 0.  0.
   -5000001    1    1    2    0    0 -0.56716002361E+02  0.25716026174E+02 -0.95420633987E+02  0.17062273095E+03  0.12700000000E+03 0.  0.
<mgrwt>
<rscale>  0 0.30599330E+03</rscale>
<asrwt>0</asrwt>
<pdfrwt beam="1">  1        2 0.27517393E-01 0.30599330E+03</pdfrwt>
<pdfrwt beam="2">  1       -2 0.17360429E-01 0.30599330E+03</pdfrwt>
<totfact> 0.51606550E+03</totfact>
</mgrwt>
</event>
<event>
 4    1  0.9032007E-005  0.3145032E+03  0.7818608E-02  0.1078207E+00
         -2   -1    0    0    0  501 -0.00000000000E+00  0.00000000000E+00  0.32827382517E+02  0.32827382616E+02  0.25500000000E-02 0. -1.
          2   -1    0    0  501    0  0.00000000000E+00 -0.00000000000E+00 -0.75327547293E+03  0.75327547293E+03  0.25500000000E-02 0.  1.
    5000001    1    1    2    0    0 -0.45551432900E+01  0.92610236032E+02 -0.35700658365E+03  0.39010268638E+03  0.12700000000E+03 0.  0.
   -5000001    1    1    2    0    0  0.45551432900E+01 -0.92610236032E+02 -0.36344150676E+03  0.39600016917E+03  0.12700000000E+03 0.  0.
<mgrwt>
<rscale>  0 0.31450318E+03</rscale>
<asrwt>0</asrwt>
<pdfrwt beam="1">  1        2 0.10761077E+00 0.31450318E+03</pdfrwt>
<pdfrwt beam="2">  1       -2 0.46896265E-02 0.31450318E+03</pdfrwt>
<totfact> 0.90821130E+03</totfact>
</mgrwt>
</event>
<event>
 4    1  0.9032007E-005  0.6595652E+03  0.7818608E-02  0.9788994E-01
          2   -1    0    0  501    0  0.00000000000E+00  0.00000000000E+00  0.28230783263E+04  0.28230783263E+04  0.25500000000E-02 0.  1.
         -2   -1    0    0    0  501 -0.00000000000E+00 -0.00000000000E+00 -0.38524103739E+02  0.38524103823E+02  0.25500000000E-02 0. -1.
    5000001    1    1    2    0    0  0.19732401387E+01 -0.29913429937E+03  0.16354852643E+04  0.16674610258E+04  0.12700000000E+03 0.  0.
   -5000001    1    1    2    0    0 -0.19732401387E+01  0.29913429937E+03  0.11490689582E+04  0.11941414043E+04  0.12700000000E+03 0.  0.
<mgrwt>
<rscale>  0 0.65956520E+03</rscale>
<asrwt>0</asrwt>
<pdfrwt beam="1">  1        2 0.40329697E+00 0.65956520E+03</pdfrwt>
<pdfrwt beam="2">  1       -2 0.55034424E-02 0.65956520E+03</pdfrwt>
<totfact> 0.55199144E+02</totfact>
</mgrwt>
</event>
<event>
 4    1  0.9032007E-005  0.4793988E+03  0.7818608E-02  0.1019301E+00
         -2   -1    0    0    0  501 -0.00000000000E+00  0.00000000000E+00  0.41658018284E+02  0.41658018362E+02  0.25500000000E-02 0. -1.
          2   -1    0    0  501    0  0.00000000000E+00 -0.00000000000E+00 -0.13792257879E+04  0.13792257879E+04  0.25500000000E-02 0.  1.
    5000001    1    1    2    0    0  0.84528353762E+02 -0.14341792769E+03 -0.32297225285E+03  0.38490754823E+03  0.12700000000E+03 0.  0.
   -5000001    1    1    2    0    0 -0.84528353762E+02  0.14341792769E+03 -0.10145955167E+04  0.10359762580E+04  0.12700000000E+03 0.  0.
<mgrwt>
<rscale>  0 0.47939884E+03</rscale>
<asrwt>0</asrwt>
<pdfrwt beam="1">  1        2 0.19703223E+00 0.47939884E+03</pdfrwt>
<pdfrwt beam="2">  1       -2 0.59511463E-02 0.47939884E+03</pdfrwt>
<totfact> 0.26967121E+03</totfact>
</mgrwt>
</event>
<event>
 4    1  0.9032007E-005  0.4691707E+03  0.7818608E-02  0.1022155E+00
         -2   -1    0    0    0  501 -0.00000000000E+00  0.00000000000E+00  0.25374119689E+02  0.25374119818E+02  0.25500000000E-02 0. -1.
          2   -1    0    0  501    0  0.00000000000E+00 -0.00000000000E+00 -0.21687568891E+04  0.21687568891E+04  0.25500000000E-02 0.  1.
    5000001    1    1    2    0    0 -0.13267626543E+03  0.13948082372E+03 -0.87090139282E+03  0.90091960108E+03  0.12700000000E+03 0.  0.
   -5000001    1    1    2    0    0  0.13267626543E+03 -0.13948082372E+03 -0.12724813766E+04  0.12932114078E+04  0.12700000000E+03 0.  0.
<mgrwt>
<rscale>  0 0.46917075E+03</rscale>
<asrwt>0</asrwt>
<pdfrwt beam="1">  1        2 0.30982229E+00 0.46917075E+03</pdfrwt>
<pdfrwt beam="2">  1       -2 0.36248756E-02 0.46917075E+03</pdfrwt>
<totfact> 0.23065578E+03</totfact>
</mgrwt>
</event>
<event>
 4    1  0.9032007E-005  0.4857620E+03  0.7818608E-02  0.1017564E+00
         -2   -1    0    0    0  501 -0.00000000000E+00  0.00000000000E+00  0.84065743392E+02  0.84065743430E+02  0.25500000000E-02 0. -1.
          2   -1    0    0  501    0  0.00000000000E+00 -0.00000000000E+00 -0.70172662488E+03  0.70172662489E+03  0.25500000000E-02 0.  1.
    5000001    1    1    2    0    0  0.17380672744E+03 -0.91449267131E+02 -0.41478859453E+03  0.47618307941E+03  0.12700000000E+03 0.  0.
   -5000001    1    1    2    0    0 -0.17380672744E+03  0.91449267131E+02 -0.20287228696E+03  0.30960928891E+03  0.12700000000E+03 0.  0.
<mgrwt>
<rscale>  0 0.48576196E+03</rscale>
<asrwt>0</asrwt>
<pdfrwt beam="1">  1        2 0.10024666E+00 0.48576196E+03</pdfrwt>
<pdfrwt beam="2">  1       -2 0.12009392E-01 0.48576196E+03</pdfrwt>
<totfact> 0.22723445E+03</totfact>
</mgrwt>
</event>
<event>
 4    1  0.9032007E-005  0.4559927E+03  0.7818608E-02  0.1025950E+00
         -2   -1    0    0    0  501 -0.00000000000E+00  0.00000000000E+00  0.11945328641E+03  0.11945328643E+03  0.25500000000E-02 0. -1.
          2   -1    0    0  501    0  0.00000000000E+00 -0.00000000000E+00 -0.43516874212E+03  0.43516874213E+03  0.25500000000E-02 0.  1.
    5000001    1    1    2    0    0  0.13359649440E+03  0.86160318726E+02 -0.28297498114E+03  0.34853330370E+03  0.12700000000E+03 0.  0.
   -5000001    1    1    2    0    0 -0.13359649440E+03 -0.86160318726E+02 -0.32740474578E+02  0.20608872486E+03  0.12700000000E+03 0.  0.
<mgrwt>
<rscale>  0 0.45599270E+03</rscale>
<asrwt>0</asrwt>
<pdfrwt beam="1">  1        2 0.62166963E-01 0.45599270E+03</pdfrwt>
<pdfrwt beam="2">  1       -2 0.17064755E-01 0.45599270E+03</pdfrwt>
<totfact> 0.21932920E+03</totfact>
</mgrwt>
</event>
<event>
 4    1  0.9032007E-005  0.3294282E+03  0.7818608E-02  0.1071390E+00
          2   -1    0    0  501    0  0.00000000000E+00  0.00000000000E+00  0.31425033448E+03  0.31425033449E+03  0.25500000000E-02 0.  1.
         -2   -1    0    0    0  501 -0.00000000000E+00 -0.00000000000E+00 -0.86334758197E+02  0.86334758234E+02  0.25500000000E-02 0. -1.
    5000001    1    1    2    0    0  0.86539462337E+02  0.25140119225E+02  0.17922232348E+03  0.23742524165E+03  0.12700000000E+03 0.  0.
   -5000001    1    1    2    0    0 -0.86539462337E+02 -0.25140119225E+02  0.48693252803E+02  0.16315985108E+03  0.12700000000E+03 0.  0.
<mgrwt>
<rscale>  0 0.32942815E+03</rscale>
<asrwt>0</asrwt>
<pdfrwt beam="1">  1        2 0.44892905E-01 0.32942815E+03</pdfrwt>
<pdfrwt beam="2">  1       -2 0.12333537E-01 0.32942815E+03</pdfrwt>
<totfact> 0.53346623E+03</totfact>
</mgrwt>
</event>
<event>
 4    1  0.9032007E-005  0.3228787E+03  0.7818608E-02  0.1074332E+00
          2   -1    0    0  501    0  0.00000000000E+00  0.00000000000E+00  0.39481499563E+02  0.39481499646E+02  0.25500000000E-02 0.  1.
         -2   -1    0    0    0  501 -0.00000000000E+00 -0.00000000000E+00 -0.66012350346E+03  0.66012350347E+03  0.25500000000E-02 0. -1.
    5000001    1    1    2    0    0  0.92206492648E+02 -0.21268738964E+02 -0.24251555813E+03  0.28965012080E+03  0.12700000000E+03 0.  0.
   -5000001    1    1    2    0    0 -0.92206492648E+02  0.21268738964E+02 -0.37812644576E+03  0.40995488231E+03  0.12700000000E+03 0.  0.
<mgrwt>
<rscale>  0 0.32287871E+03</rscale>
<asrwt>0</asrwt>
<pdfrwt beam="1">  1        2 0.56402146E-02 0.32287871E+03</pdfrwt>
<pdfrwt beam="2">  1       -2 0.94303351E-01 0.32287871E+03</pdfrwt>
<totfact> 0.13226537E+03</totfact>
</mgrwt>
</event>
<event>
 4    1  0.9032007E-005  0.8585693E+03  0.7818608E-02  0.9478907E-01
          2   -1    0    0  501    0  0.00000000000E+00  0.00000000000E+00  0.96724618437E+03  0.96724618437E+03  0.25500000000E-02 0.  1.
         -2   -1    0    0    0  501 -0.00000000000E+00 -0.00000000000E+00 -0.19052574675E+03  0.19052574677E+03  0.25500000000E-02 0. -1.
    5000001    1    1    2    0    0  0.15520020894E+03  0.24878059336E+03  0.17939951361E+01  0.31954828572E+03  0.12700000000E+03 0.  0.
   -5000001    1    1    2    0    0 -0.15520020894E+03 -0.24878059336E+03  0.77492644248E+03  0.83822364542E+03  0.12700000000E+03 0.  0.
<mgrwt>
<rscale>  0 0.85856928E+03</rscale>
<asrwt>0</asrwt>
<pdfrwt beam="1">  1        2 0.13817803E+00 0.85856928E+03</pdfrwt>
<pdfrwt beam="2">  1       -2 0.27217964E-01 0.85856928E+03</pdfrwt>
<totfact> 0.36174062E+02</totfact>
</mgrwt>
</event>
<event>
 4    1  0.9032007E-005  0.8976077E+03  0.7818608E-02  0.9428577E-01
          2   -1    0    0  501    0  0.00000000000E+00  0.00000000000E+00  0.53830536364E+03  0.53830536365E+03  0.25500000000E-02 0.  1.
         -2   -1    0    0    0  501 -0.00000000000E+00 -0.00000000000E+00 -0.37418331398E+03  0.37418331399E+03  0.25500000000E-02 0. -1.
    5000001    1    1    2    0    0  0.11615445093E+03 -0.41249231997E+03  0.12340609167E+03  0.46368074574E+03  0.12700000000E+03 0.  0.
   -5000001    1    1    2    0    0 -0.11615445093E+03  0.41249231997E+03  0.40715957986E+02  0.44880793190E+03  0.12700000000E+03 0.  0.
<mgrwt>
<rscale>  0 0.89760768E+03</rscale>
<asrwt>0</asrwt>
<pdfrwt beam="1">  1        2 0.76900765E-01 0.89760768E+03</pdfrwt>
<pdfrwt beam="2">  1       -2 0.53454760E-01 0.89760768E+03</pdfrwt>
<totfact> 0.20399520E+02</totfact>
</mgrwt>
</event>
<event>
 4    1  0.9032007E-005  0.3742605E+03  0.7818608E-02  0.1053076E+00
          2   -1    0    0  501    0  0.00000000000E+00  0.00000000000E+00  0.57582856781E+03  0.57582856782E+03  0.25500000000E-02 0.  1.
         -2   -1    0    0    0  501 -0.00000000000E+00 -0.00000000000E+00 -0.60812783413E+02  0.60812783466E+02  0.25500000000E-02 0. -1.
    5000001    1    1    2    0    0 -0.85690263677E+01 -0.10131132119E+03  0.41481108391E+03  0.44557226950E+03  0.12700000000E+03 0.  0.
   -5000001    1    1    2    0    0  0.85690263677E+01  0.10131132119E+03  0.10020470049E+03  0.19106908179E+03  0.12700000000E+03 0.  0.
<mgrwt>
<rscale>  0 0.37426054E+03</rscale>
<asrwt>0</asrwt>
<pdfrwt beam="1">  1        2 0.82261225E-01 0.37426054E+03</pdfrwt>
<pdfrwt beam="2">  1       -2 0.86875404E-02 0.37426054E+03</pdfrwt>
<totfact> 0.48164282E+03</totfact>
</mgrwt>
</event>
<event>
 4    1  0.9032007E-005  0.3402403E+03  0.7818608E-02  0.1066694E+00
          2   -1    0    0  501    0  0.00000000000E+00  0.00000000000E+00  0.13647634886E+04  0.13647634886E+04  0.25500000000E-02 0.  1.
         -2   -1    0    0    0  501 -0.00000000000E+00 -0.00000000000E+00 -0.21205770275E+02  0.21205770428E+02  0.25500000000E-02 0. -1.
    5000001    1    1    2    0    0 -0.63253535397E+02  0.93440119806E+02  0.63539097548E+03  0.65771023821E+03  0.12700000000E+03 0.  0.
   -5000001    1    1    2    0    0  0.63253535397E+02 -0.93440119806E+02  0.70816674288E+03  0.72825902085E+03  0.12700000000E+03 0.  0.
<mgrwt>
<rscale>  0 0.34024027E+03</rscale>
<asrwt>0</asrwt>
<pdfrwt beam="1">  1        2 0.19496624E+00 0.34024027E+03</pdfrwt>
<pdfrwt beam="2">  1       -2 0.30293953E-02 0.34024027E+03</pdfrwt>
<totfact> 0.76734542E+03</totfact>
</mgrwt>
</event>
<event>
 4    1  0.9032007E-005  0.4772575E+03  0.7818608E-02  0.1019892E+00
         -2   -1    0    0    0  501 -0.00000000000E+00  0.00000000000E+00  0.22090771575E+03  0.22090771576E+03  0.25500000000E-02 0.  1.
          2   -1    0    0  501    0  0.00000000000E+00 -0.00000000000E+00 -0.25777133541E+03  0.25777133542E+03  0.25500000000E-02 0. -1.
    5000001    1    1    2    0    0  0.29578594119E+02  0.19882763946E+03  0.18113066435E+01  0.23778058011E+03  0.12700000000E+03 0.  0.
   -5000001    1    1    2    0    0 -0.29578594119E+02 -0.19882763946E+03 -0.38674926306E+02  0.24089847108E+03  0.12700000000E+03 0.  0.
<mgrwt>
<rscale>  0 0.47725749E+03</rscale>
<asrwt>0</asrwt>
<pdfrwt beam="1">  1        2 0.36824476E-01 0.47725749E+03</pdfrwt>
<pdfrwt beam="2">  1       -2 0.31558245E-01 0.47725749E+03</pdfrwt>
<totfact> 0.13139770E+03</totfact>
</mgrwt>
</event>
<event>
 4    1  0.9032007E-005  0.3356937E+03  0.7818608E-02  0.1068645E+00
         -2   -1    0    0    0  501 -0.00000000000E+00  0.00000000000E+00  0.92397234448E+02  0.92397234483E+02  0.25500000000E-02 0. -1.
          2   -1    0    0  501    0  0.00000000000E+00 -0.00000000000E+00 -0.30490702005E+03  0.30490702007E+03  0.25500000000E-02 0.  1.
    5000001    1    1    2    0    0 -0.10812733750E+03  0.17561868691E+02 -0.11407203727E+03  0.20283335533E+03  0.12700000000E+03 0.  0.
   -5000001    1    1    2    0    0  0.10812733750E+03 -0.17561868691E+02 -0.98437748334E+02  0.19447089922E+03  0.12700000000E+03 0.  0.
<mgrwt>
<rscale>  0 0.33569370E+03</rscale>
<asrwt>0</asrwt>
<pdfrwt beam="1">  1        2 0.43558145E-01 0.33569370E+03</pdfrwt>
<pdfrwt beam="2">  1       -2 0.13199605E-01 0.33569370E+03</pdfrwt>
<totfact> 0.49366585E+03</totfact>
</mgrwt>
</event>
<event>
 4    1  0.9032007E-005  0.4399405E+03  0.7818608E-02  0.1030765E+00
         -2   -1    0    0    0  501 -0.00000000000E+00  0.00000000000E+00  0.27773955405E+02  0.27773955522E+02  0.25500000000E-02 0. -1.
          2   -1    0    0  501    0  0.00000000000E+00 -0.00000000000E+00 -0.17421681451E+04  0.17421681451E+04  0.25500000000E-02 0.  1.
    5000001    1    1    2    0    0  0.16845001868E+03 -0.14238298640E+02 -0.11012449860E+04  0.11213597358E+04  0.12700000000E+03 0.  0.
   -5000001    1    1    2    0    0 -0.16845001868E+03  0.14238298640E+02 -0.61314920375E+03  0.64858236485E+03  0.12700000000E+03 0.  0.
<mgrwt>
<rscale>  0 0.43994045E+03</rscale>
<asrwt>0</asrwt>
<pdfrwt beam="1">  1        2 0.24888109E+00 0.43994045E+03</pdfrwt>
<pdfrwt beam="2">  1       -2 0.39677090E-02 0.43994045E+03</pdfrwt>
<totfact> 0.32819128E+03</totfact>
</mgrwt>
</event>
<event>
 4    1  0.9032007E-005  0.3234677E+03  0.7818608E-02  0.1074064E+00
          2   -1    0    0  501    0  0.00000000000E+00  0.00000000000E+00  0.15764100592E+04  0.15764100592E+04  0.25500000000E-02 0.  1.
         -2   -1    0    0    0  501 -0.00000000000E+00 -0.00000000000E+00 -0.16593293607E+02  0.16593293803E+02  0.25500000000E-02 0. -1.
    5000001    1    1    2    0    0  0.55821959564E+02 -0.74994498511E+02  0.60312572528E+03  0.62340188199E+03  0.12700000000E+03 0.  0.
   -5000001    1    1    2    0    0 -0.55821959564E+02  0.74994498511E+02  0.95669104028E+03  0.96960147098E+03  0.12700000000E+03 0.  0.
<mgrwt>
<rscale>  0 0.32346768E+03</rscale>
<asrwt>0</asrwt>
<pdfrwt beam="1">  1        2 0.22520142E+00 0.32346768E+03</pdfrwt>
<pdfrwt beam="2">  1       -2 0.23704708E-02 0.32346768E+03</pdfrwt>
<totfact> 0.86119451E+03</totfact>
</mgrwt>
</event>
<event>
 4    1  0.9032007E-005  0.2876084E+03  0.7818608E-02  0.1091604E+00
         -2   -1    0    0    0  501 -0.00000000000E+00  0.00000000000E+00  0.16813540892E+02  0.16813541086E+02  0.25500000000E-02 0. -1.
          2   -1    0    0  501    0  0.00000000000E+00 -0.00000000000E+00 -0.12299401574E+04  0.12299401574E+04  0.25500000000E-02 0.  1.
    5000001    1    1    2    0    0  0.53175119510E+02 -0.31494241357E+02 -0.48934704419E+03  0.50932210853E+03  0.12700000000E+03 0.  0.
   -5000001    1    1    2    0    0 -0.53175119510E+02  0.31494241357E+02 -0.72377957231E+03  0.73743158996E+03  0.12700000000E+03 0.  0.
<mgrwt>
<rscale>  0 0.28760841E+03</rscale>
<asrwt>0</asrwt>
<pdfrwt beam="1">  1        2 0.17570568E+00 0.28760841E+03</pdfrwt>
<pdfrwt beam="2">  1       -2 0.24019352E-02 0.28760841E+03</pdfrwt>
<totfact> 0.12730351E+04</totfact>
</mgrwt>
</event>
<event>
 4    1  0.9032007E-005  0.6447697E+03  0.7818608E-02  0.9816643E-01
          2   -1    0    0  501    0  0.00000000000E+00  0.00000000000E+00  0.15330476029E+04  0.15330476029E+04  0.25500000000E-02 0.  1.
         -2   -1    0    0    0  501 -0.00000000000E+00 -0.00000000000E+00 -0.67794373177E+02  0.67794373225E+02  0.25500000000E-02 0. -1.
    5000001    1    1    2    0    0  0.40053129388E+02 -0.28518891218E+03  0.90582001022E+03  0.95894518077E+03  0.12700000000E+03 0.  0.
   -5000001    1    1    2    0    0 -0.40053129388E+02  0.28518891218E+03  0.55943321950E+03  0.64189679536E+03  0.12700000000E+03 0.  0.
<mgrwt>
<rscale>  0 0.64476973E+03</rscale>
<asrwt>0</asrwt>
<pdfrwt beam="1">  1        2 0.21900684E+00 0.64476973E+03</pdfrwt>
<pdfrwt beam="2">  1       -2 0.96849087E-02 0.64476973E+03</pdfrwt>
<totfact> 0.10295295E+03</totfact>
</mgrwt>
</event>
<event>
 4    1  0.9032007E-005  0.3294304E+03  0.7818608E-02  0.1071389E+00
          2   -1    0    0  501    0  0.00000000000E+00  0.00000000000E+00  0.24267960127E+03  0.24267960128E+03  0.25500000000E-02 0.  1.
         -2   -1    0    0    0  501 -0.00000000000E+00 -0.00000000000E+00 -0.11179801118E+03  0.11179801121E+03  0.25500000000E-02 0. -1.
    5000001    1    1    2    0    0 -0.65819035126E+02 -0.81523537756E+02  0.60184272915E+02  0.17529797289E+03  0.12700000000E+03 0.  0.
   -5000001    1    1    2    0    0  0.65819035126E+02  0.81523537756E+02  0.70697317172E+02  0.17917963960E+03  0.12700000000E+03 0.  0.
<mgrwt>
<rscale>  0 0.32943040E+03</rscale>
<asrwt>0</asrwt>
<pdfrwt beam="1">  1        2 0.34668514E-01 0.32943040E+03</pdfrwt>
<pdfrwt beam="2">  1       -2 0.15971144E-01 0.32943040E+03</pdfrwt>
<totfact> 0.46135176E+03</totfact>
</mgrwt>
</event>
<event>
 4    1  0.9032007E-005  0.5074907E+03  0.7818608E-02  0.1011842E+00
          2   -1    0    0  501    0  0.00000000000E+00  0.00000000000E+00  0.13949351994E+04  0.13949351994E+04  0.25500000000E-02 0.  1.
         -2   -1    0    0    0  501 -0.00000000000E+00 -0.00000000000E+00 -0.46157485084E+02  0.46157485154E+02  0.25500000000E-02 0. -1.
    5000001    1    1    2    0    0 -0.56242853742E+02  0.17228055797E+03  0.10269378001E+04  0.10505113490E+04  0.12700000000E+03 0.  0.
   -5000001    1    1    2    0    0  0.56242853742E+02 -0.17228055797E+03  0.32183991425E+03  0.39058133552E+03  0.12700000000E+03 0.  0.
<mgrwt>
<rscale>  0 0.50749069E+03</rscale>
<asrwt>0</asrwt>
<pdfrwt beam="1">  1        2 0.19927641E+00 0.50749069E+03</pdfrwt>
<pdfrwt beam="2">  1       -2 0.65939281E-02 0.50749069E+03</pdfrwt>
<totfact> 0.22529303E+03</totfact>
</mgrwt>
</event>
<event>
 4    1  0.9032007E-005  0.2969557E+03  0.7818608E-02  0.1086772E+00
          2   -1    0    0  501    0  0.00000000000E+00  0.00000000000E+00  0.35988253536E+03  0.35988253537E+03  0.25500000000E-02 0.  1.
         -2   -1    0    0    0  501 -0.00000000000E+00 -0.00000000000E+00 -0.61257983079E+02  0.61257983132E+02  0.25500000000E-02 0. -1.
    5000001    1    1    2    0    0  0.51790794555E+02 -0.13405864062E+02  0.70930016035E+02  0.15499055057E+03  0.12700000000E+03 0.  0.
   -5000001    1    1    2    0    0 -0.51790794555E+02  0.13405864062E+02  0.22769453625E+03  0.26614996793E+03  0.12700000000E+03 0.  0.
<mgrwt>
<rscale>  0 0.29695574E+03</rscale>
<asrwt>0</asrwt>
<pdfrwt beam="1">  1        2 0.51411790E-01 0.29695574E+03</pdfrwt>
<pdfrwt beam="2">  1       -2 0.87511406E-02 0.29695574E+03</pdfrwt>
<totfact> 0.79509394E+03</totfact>
</mgrwt>
</event>
<event>
 4    1  0.9032007E-005  0.4295377E+03  0.7818608E-02  0.1034006E+00
         -2   -1    0    0    0  501 -0.00000000000E+00  0.00000000000E+00  0.44750570576E+03  0.44750570577E+03  0.25500000000E-02 0. -1.
          2   -1    0    0  501    0  0.00000000000E+00 -0.00000000000E+00 -0.10307280011E+03  0.10307280015E+03  0.25500000000E-02 0.  1.
    5000001    1    1    2    0    0 -0.15097370310E+03 -0.59299497414E+02  0.25004965704E+03  0.32398043214E+03  0.12700000000E+03 0.  0.
   -5000001    1    1    2    0    0  0.15097370310E+03  0.59299497414E+02  0.94383248607E+02  0.22659807378E+03  0.12700000000E+03 0.  0.
<mgrwt>
<rscale>  0 0.42953773E+03</rscale>
<asrwt>0</asrwt>
<pdfrwt beam="1">  1        2 0.14724686E-01 0.42953773E+03</pdfrwt>
<pdfrwt beam="2">  1       -2 0.63929386E-01 0.42953773E+03</pdfrwt>
<totfact> 0.92979362E+02</totfact>
</mgrwt>
</event>
<event>
 4    1  0.9032007E-005  0.3402756E+03  0.7818608E-02  0.1066679E+00
         -2   -1    0    0    0  501 -0.00000000000E+00  0.00000000000E+00  0.20290398494E+02  0.20290398654E+02  0.25500000000E-02 0. -1.
          2   -1    0    0  501    0  0.00000000000E+00 -0.00000000000E+00 -0.14266287547E+04  0.14266287547E+04  0.25500000000E-02 0.  1.
    5000001    1    1    2    0    0 -0.69322326595E+01 -0.84018364598E+02 -0.38183338543E+03  0.41113607926E+03  0.12700000000E+03 0.  0.
   -5000001    1    1    2    0    0  0.69322326595E+01  0.84018364598E+02 -0.10245049707E+04  0.10357830741E+04  0.12700000000E+03 0.  0.
<mgrwt>
<rscale>  0 0.34027557E+03</rscale>
<asrwt>0</asrwt>
<pdfrwt beam="1">  1        2 0.20380405E+00 0.34027557E+03</pdfrwt>
<pdfrwt beam="2">  1       -2 0.28986293E-02 0.34027557E+03</pdfrwt>
<totfact> 0.76126020E+03</totfact>
</mgrwt>
</event>
<event>
 4    1  0.9032007E-005  0.5904130E+03  0.7818608E-02  0.9925498E-01
         -2   -1    0    0    0  501 -0.00000000000E+00  0.00000000000E+00  0.44856449153E+02  0.44856449226E+02  0.25500000000E-02 0. -1.
          2   -1    0    0  501    0  0.00000000000E+00 -0.00000000000E+00 -0.19427945153E+04  0.19427945153E+04  0.25500000000E-02 0.  1.
    5000001    1    1    2    0    0  0.17102625767E+03  0.17973175916E+03 -0.12764833374E+04  0.13065573836E+04  0.12700000000E+03 0.  0.
   -5000001    1    1    2    0    0 -0.17102625767E+03 -0.17973175916E+03 -0.62145472878E+03  0.68109358093E+03  0.12700000000E+03 0.  0.
<mgrwt>
<rscale>  0 0.59041295E+03</rscale>
<asrwt>0</asrwt>
<pdfrwt beam="1">  1        2 0.27754202E+00 0.59041295E+03</pdfrwt>
<pdfrwt beam="2">  1       -2 0.64080654E-02 0.59041295E+03</pdfrwt>
<totfact> 0.12336238E+03</totfact>
</mgrwt>
</event>
<event>
 4    1  0.9032007E-005  0.5074018E+03  0.7818608E-02  0.1011865E+00
         -2   -1    0    0    0  501 -0.00000000000E+00  0.00000000000E+00  0.30368156941E+03  0.30368156942E+03  0.25500000000E-02 0.  1.
          2   -1    0    0  501    0  0.00000000000E+00 -0.00000000000E+00 -0.21194617168E+03  0.21194617170E+03  0.25500000000E-02 0. -1.
    5000001    1    1    2    0    0 -0.54050199342E+02 -0.15376248489E+03  0.19546437634E+03  0.28442863469E+03  0.12700000000E+03 0.  0.
   -5000001    1    1    2    0    0  0.54050199342E+02  0.15376248489E+03 -0.10372897861E+03  0.23119910643E+03  0.12700000000E+03 0.  0.
<mgrwt>
<rscale>  0 0.50740180E+03</rscale>
<asrwt>0</asrwt>
<pdfrwt beam="1">  1        2 0.30278025E-01 0.50740180E+03</pdfrwt>
<pdfrwt beam="2">  1       -2 0.43383081E-01 0.50740180E+03</pdfrwt>
<totfact> 0.88996547E+02</totfact>
</mgrwt>
</event>
<event>
 4    1  0.9032007E-005  0.3018300E+03  0.7818608E-02  0.1084329E+00
         -2   -1    0    0    0  501 -0.00000000000E+00  0.00000000000E+00  0.37018646556E+03  0.37018646557E+03  0.25500000000E-02 0.  1.
          2   -1    0    0  501    0  0.00000000000E+00 -0.00000000000E+00 -0.61523966117E+02  0.61523966170E+02  0.25500000000E-02 0. -1.
    5000001    1    1    2    0    0  0.68249940115E+02  0.39566500981E+02  0.12492186609E+03  0.19482821909E+03  0.12700000000E+03 0.  0.
   -5000001    1    1    2    0    0 -0.68249940115E+02 -0.39566500981E+02  0.18374063335E+03  0.23688221265E+03  0.12700000000E+03 0.  0.
<mgrwt>
<rscale>  0 0.30183002E+03</rscale>
<asrwt>0</asrwt>
<pdfrwt beam="1">  1        2 0.87891378E-02 0.30183002E+03</pdfrwt>
<pdfrwt beam="2">  1       -2 0.52883782E-01 0.30183002E+03</pdfrwt>
<totfact> 0.25881496E+03</totfact>
</mgrwt>
</event>
<event>
 4    1  0.9032007E-005  0.4230960E+03  0.7818608E-02  0.1036063E+00
          2   -1    0    0  501    0  0.00000000000E+00  0.00000000000E+00  0.24134622477E+04  0.24134622477E+04  0.25500000000E-02 0. -1.
         -2   -1    0    0    0  501 -0.00000000000E+00 -0.00000000000E+00 -0.18542884696E+02  0.18542884871E+02  0.25500000000E-02 0.  1.
    5000001    1    1    2    0    0 -0.13981762074E+03 -0.92771335419E+02  0.13218190495E+04  0.13384655720E+04  0.12700000000E+03 0.  0.
   -5000001    1    1    2    0    0  0.13981762074E+03  0.92771335419E+02  0.10731003135E+04  0.10935395605E+04  0.12700000000E+03 0.  0.
<mgrwt>
<rscale>  0 0.42309598E+03</rscale>
<asrwt>0</asrwt>
<pdfrwt beam="1">  1        2 0.34478035E+00 0.42309598E+03</pdfrwt>
<pdfrwt beam="2">  1       -2 0.26489834E-02 0.42309598E+03</pdfrwt>
<totfact> 0.27999696E+03</totfact>
</mgrwt>
</event>
<event>
 4    1  0.9032007E-005  0.3686682E+03  0.7818608E-02  0.1055203E+00
          2   -1    0    0  501    0  0.00000000000E+00  0.00000000000E+00  0.44648257098E+03  0.44648257098E+03  0.25500000000E-02 0.  1.
         -2   -1    0    0    0  501 -0.00000000000E+00 -0.00000000000E+00 -0.76103882699E+02  0.76103882742E+02  0.25500000000E-02 0. -1.
    5000001    1    1    2    0    0 -0.12323628231E+03  0.21484148620E+02  0.25169565025E+03  0.30842900362E+03  0.12700000000E+03 0.  0.
   -5000001    1    1    2    0    0  0.12323628231E+03 -0.21484148620E+02  0.11868303803E+03  0.21415745011E+03  0.12700000000E+03 0.  0.
<mgrwt>
<rscale>  0 0.36866818E+03</rscale>
<asrwt>0</asrwt>
<pdfrwt beam="1">  1        2 0.63783223E-01 0.36866818E+03</pdfrwt>
<pdfrwt beam="2">  1       -2 0.10871984E-01 0.36866818E+03</pdfrwt>
<totfact> 0.44760224E+03</totfact>
</mgrwt>
</event>
<event>
 4    1  0.9032007E-005  0.8285243E+03  0.7818608E-02  0.9519623E-01
         -2   -1    0    0    0  501 -0.00000000000E+00  0.00000000000E+00  0.14532365965E+03  0.14532365967E+03  0.25500000000E-02 0. -1.
          2   -1    0    0  501    0  0.00000000000E+00 -0.00000000000E+00 -0.11809029774E+04  0.11809029774E+04  0.25500000000E-02 0.  1.
    5000001    1    1    2    0    0 -0.33361811609E+03 -0.18728536303E+03 -0.36503058767E+03  0.54383194511E+03  0.12700000000E+03 0.  0.
   -5000001    1    1    2    0    0  0.33361811609E+03  0.18728536303E+03 -0.67054873005E+03  0.78239469193E+03  0.12700000000E+03 0.  0.
<mgrwt>
<rscale>  0 0.82852433E+03</rscale>
<asrwt>0</asrwt>
<pdfrwt beam="1">  1        2 0.16870042E+00 0.82852433E+03</pdfrwt>
<pdfrwt beam="2">  1       -2 0.20760524E-01 0.82852433E+03</pdfrwt>
<totfact> 0.43907657E+02</totfact>
</mgrwt>
</event>
<event>
 4    1  0.9032007E-005  0.4533002E+03  0.7818608E-02  0.1026742E+00
          2   -1    0    0  501    0  0.00000000000E+00  0.00000000000E+00  0.22456254043E+04  0.22456254043E+04  0.25500000000E-02 0.  1.
         -2   -1    0    0    0  501 -0.00000000000E+00 -0.00000000000E+00 -0.22875701746E+02  0.22875701888E+02  0.25500000000E-02 0. -1.
    5000001    1    1    2    0    0 -0.12614253109E+03 -0.13834119351E+03  0.11805432190E+04  0.12020239248E+04  0.12700000000E+03 0.  0.
   -5000001    1    1    2    0    0  0.12614253109E+03  0.13834119351E+03  0.10422064836E+04  0.10664771814E+04  0.12700000000E+03 0.  0.
<mgrwt>
<rscale>  0 0.45330015E+03</rscale>
<asrwt>0</asrwt>
<pdfrwt beam="1">  1        2 0.32080354E+00 0.45330015E+03</pdfrwt>
<pdfrwt beam="2">  1       -2 0.32679584E-02 0.45330015E+03</pdfrwt>
<totfact> 0.24729759E+03</totfact>
</mgrwt>
</event>
<event>
 4    1  0.9032007E-005  0.6536895E+03  0.7818608E-02  0.9799881E-01
          2   -1    0    0  501    0  0.00000000000E+00  0.00000000000E+00  0.16536369278E+03  0.16536369280E+03  0.25500000000E-02 0.  1.
         -2   -1    0    0    0  501 -0.00000000000E+00 -0.00000000000E+00 -0.64601543805E+03  0.64601543805E+03  0.25500000000E-02 0. -1.
    5000001    1    1    2    0    0 -0.79563115460E+02  0.28586079710E+03 -0.30424396715E+03  0.44355391579E+03  0.12700000000E+03 0.  0.
   -5000001    1    1    2    0    0  0.79563115460E+02 -0.28586079710E+03 -0.17640777812E+03  0.36782521507E+03  0.12700000000E+03 0.  0.
<mgrwt>
<rscale>  0 0.65368952E+03</rscale>
<asrwt>0</asrwt>
<pdfrwt beam="1">  1        2 0.23623385E-01 0.65368952E+03</pdfrwt>
<pdfrwt beam="2">  1       -2 0.92287918E-01 0.65368952E+03</pdfrwt>
<totfact> 0.23575853E+02</totfact>
</mgrwt>
</event>
<event>
 4    1  0.9032007E-005  0.7808681E+03  0.7818608E-02  0.9588130E-01
          2   -1    0    0  501    0  0.00000000000E+00  0.00000000000E+00  0.18225447002E+03  0.18225447004E+03  0.25500000000E-02 0.  1.
         -2   -1    0    0    0  501 -0.00000000000E+00 -0.00000000000E+00 -0.83640601121E+03  0.83640601121E+03  0.25500000000E-02 0. -1.
    5000001    1    1    2    0    0  0.96572474994E+02 -0.22359967862E+03  0.34883394032E+02  0.27689151375E+03  0.12700000000E+03 0.  0.
   -5000001    1    1    2    0    0 -0.96572474994E+02  0.22359967862E+03 -0.68903493522E+03  0.74176896751E+03  0.12700000000E+03 0.  0.
<mgrwt>
<rscale>  0 0.78086807E+03</rscale>
<asrwt>0</asrwt>
<pdfrwt beam="1">  1        2 0.26036353E-01 0.78086807E+03</pdfrwt>
<pdfrwt beam="2">  1       -2 0.11948657E+00 0.78086807E+03</pdfrwt>
<totfact> 0.11316768E+02</totfact>
</mgrwt>
</event>
<event>
 4    1  0.9032007E-005  0.2996110E+03  0.7818608E-02  0.1085435E+00
          2   -1    0    0  501    0  0.00000000000E+00  0.00000000000E+00  0.19106730716E+03  0.19106730718E+03  0.25500000000E-02 0.  1.
         -2   -1    0    0    0  501 -0.00000000000E+00 -0.00000000000E+00 -0.11745434409E+03  0.11745434412E+03  0.25500000000E-02 0. -1.
    5000001    1    1    2    0    0  0.25467945614E+02 -0.48766963040E+02  0.95833648227E+02  0.16834464966E+03  0.12700000000E+03 0.  0.
   -5000001    1    1    2    0    0 -0.25467945614E+02  0.48766963040E+02 -0.22220685158E+02  0.14017700163E+03  0.12700000000E+03 0.  0.
<mgrwt>
<rscale>  0 0.29961098E+03</rscale>
<asrwt>0</asrwt>
<pdfrwt beam="1">  1        2 0.27295329E-01 0.29961098E+03</pdfrwt>
<pdfrwt beam="2">  1       -2 0.16779192E-01 0.29961098E+03</pdfrwt>
<totfact> 0.55101321E+03</totfact>
</mgrwt>
</event>
<event>
 4    1  0.9032007E-005  0.5825545E+03  0.7818608E-02  0.9942276E-01
          2   -1    0    0  501    0  0.00000000000E+00  0.00000000000E+00  0.22419316513E+03  0.22419316514E+03  0.25500000000E-02 0.  1.
         -2   -1    0    0    0  501 -0.00000000000E+00 -0.00000000000E+00 -0.37843454520E+03  0.37843454520E+03  0.25500000000E-02 0. -1.
    5000001    1    1    2    0    0 -0.25139862696E+03  0.47332309003E+02 -0.17949906046E+02  0.28616920911E+03  0.12700000000E+03 0.  0.
   -5000001    1    1    2    0    0  0.25139862696E+03 -0.47332309003E+02 -0.13629147402E+03  0.31645850124E+03  0.12700000000E+03 0.  0.
<mgrwt>
<rscale>  0 0.58255451E+03</rscale>
<asrwt>0</asrwt>
<pdfrwt beam="1">  1        2 0.32027595E-01 0.58255451E+03</pdfrwt>
<pdfrwt beam="2">  1       -2 0.54062077E-01 0.58255451E+03</pdfrwt>
<totfact> 0.53668567E+02</totfact>
</mgrwt>
</event>
<event>
 4    1  0.9032007E-005  0.4409811E+03  0.7818608E-02  0.1030446E+00
         -2   -1    0    0    0  501 -0.00000000000E+00  0.00000000000E+00  0.23891471333E+02  0.23891471469E+02  0.25500000000E-02 0. -1.
          2   -1    0    0  501    0  0.00000000000E+00 -0.00000000000E+00 -0.20348713961E+04  0.20348713961E+04  0.25500000000E-02 0.  1.
    5000001    1    1    2    0    0 -0.45780157978E+02  0.17427542995E+03 -0.10260123740E+04  0.10494275296E+04  0.12700000000E+03 0.  0.
   -5000001    1    1    2    0    0  0.45780157978E+02 -0.17427542995E+03 -0.98496755078E+03  0.10093353379E+04  0.12700000000E+03 0.  0.
<mgrwt>
<rscale>  0 0.44098105E+03</rscale>
<asrwt>0</asrwt>
<pdfrwt beam="1">  1        2 0.29069580E+00 0.44098105E+03</pdfrwt>
<pdfrwt beam="2">  1       -2 0.34130686E-02 0.44098105E+03</pdfrwt>
<totfact> 0.29495748E+03</totfact>
</mgrwt>
</event>
<event>
 4    1  0.9032007E-005  0.3468473E+03  0.7818608E-02  0.1063917E+00
          2   -1    0    0  501    0  0.00000000000E+00  0.00000000000E+00  0.10135936859E+03  0.10135936862E+03  0.25500000000E-02 0.  1.
         -2   -1    0    0    0  501 -0.00000000000E+00 -0.00000000000E+00 -0.29672409093E+03  0.29672409094E+03  0.25500000000E-02 0. -1.
    5000001    1    1    2    0    0 -0.45938282926E+02 -0.10845432293E+03 -0.87802601315E+02  0.19419310698E+03  0.12700000000E+03 0.  0.
   -5000001    1    1    2    0    0  0.45938282926E+02  0.10845432293E+03 -0.10756212103E+03  0.20389035259E+03  0.12700000000E+03 0.  0.
<mgrwt>
<rscale>  0 0.34684732E+03</rscale>
<asrwt>0</asrwt>
<pdfrwt beam="1">  1        2 0.14479910E-01 0.34684732E+03</pdfrwt>
<pdfrwt beam="2">  1       -2 0.42389156E-01 0.34684732E+03</pdfrwt>
<totfact> 0.21758789E+03</totfact>
</mgrwt>
</event>
<event>
 4    1  0.9032007E-005  0.5420325E+03  0.7818608E-02  0.1003355E+00
          2   -1    0    0  501    0  0.00000000000E+00  0.00000000000E+00  0.13942136311E+04  0.13942136311E+04  0.25500000000E-02 0.  1.
         -2   -1    0    0    0  501 -0.00000000000E+00 -0.00000000000E+00 -0.52681888940E+02  0.52681889002E+02  0.25500000000E-02 0. -1.
    5000001    1    1    2    0    0 -0.18499305800E+03 -0.13488117681E+03  0.85772687076E+03  0.89679415039E+03  0.12700000000E+03 0.  0.
   -5000001    1    1    2    0    0  0.18499305800E+03  0.13488117681E+03  0.48380487143E+03  0.55010136973E+03  0.12700000000E+03 0.  0.
<mgrwt>
<rscale>  0 0.54203250E+03</rscale>
<asrwt>0</asrwt>
<pdfrwt beam="1">  1        2 0.19917340E+00 0.54203250E+03</pdfrwt>
<pdfrwt beam="2">  1       -2 0.75259834E-02 0.54203250E+03</pdfrwt>
<totfact> 0.18294195E+03</totfact>
</mgrwt>
</event>
<event>
 4    1  0.9032007E-005  0.7355313E+03  0.7818608E-02  0.9658327E-01
         -2   -1    0    0    0  501 -0.00000000000E+00  0.00000000000E+00  0.56571138563E+02  0.56571138620E+02  0.25500000000E-02 0. -1.
          2   -1    0    0  501    0  0.00000000000E+00 -0.00000000000E+00 -0.23908227593E+04  0.23908227593E+04  0.25500000000E-02 0.  1.
    5000001    1    1    2    0    0  0.93360932165E+02  0.30911381813E+03 -0.76158149713E+03  0.83690082625E+03  0.12700000000E+03 0.  0.
   -5000001    1    1    2    0    0 -0.93360932165E+02 -0.30911381813E+03 -0.15726701236E+04  0.16104930717E+04  0.12700000000E+03 0.  0.
<mgrwt>
<rscale>  0 0.73553128E+03</rscale>
<asrwt>0</asrwt>
<pdfrwt beam="1">  1        2 0.34154605E+00 0.73553128E+03</pdfrwt>
<pdfrwt beam="2">  1       -2 0.80815927E-02 0.73553128E+03</pdfrwt>
<totfact> 0.50204095E+02</totfact>
</mgrwt>
</event>
<event>
 4    1  0.9032007E-005  0.4778991E+03  0.7818608E-02  0.1019714E+00
         -2   -1    0    0    0  501 -0.00000000000E+00  0.00000000000E+00  0.11247641525E+03  0.11247641528E+03  0.25500000000E-02 0. -1.
          2   -1    0    0  501    0  0.00000000000E+00 -0.00000000000E+00 -0.50763428206E+03  0.50763428207E+03  0.25500000000E-02 0.  1.
    5000001    1    1    2    0    0 -0.18653840945E+03 -0.73829822391E+02 -0.23240777233E+03  0.33224959521E+03  0.12700000000E+03 0.  0.
   -5000001    1    1    2    0    0  0.18653840945E+03  0.73829822391E+02 -0.16275009448E+03  0.28786110215E+03  0.12700000000E+03 0.  0.
<mgrwt>
<rscale>  0 0.47789909E+03</rscale>
<asrwt>0</asrwt>
<pdfrwt beam="1">  1        2 0.72519182E-01 0.47789909E+03</pdfrwt>
<pdfrwt beam="2">  1       -2 0.16068060E-01 0.47789909E+03</pdfrwt>
<totfact> 0.20446121E+03</totfact>
</mgrwt>
</event>
<event>
 4    1  0.9032007E-005  0.3608815E+03  0.7818608E-02  0.1058235E+00
         -2   -1    0    0    0  501 -0.00000000000E+00  0.00000000000E+00  0.61212059693E+02  0.61212059747E+02  0.25500000000E-02 0. -1.
          2   -1    0    0  501    0  0.00000000000E+00 -0.00000000000E+00 -0.53190281787E+03  0.53190281788E+03  0.25500000000E-02 0.  1.
    5000001    1    1    2    0    0  0.61437727570E+01 -0.11747774801E+03 -0.31900506955E+03  0.36294903447E+03  0.12700000000E+03 0.  0.
   -5000001    1    1    2    0    0 -0.61437727570E+01  0.11747774801E+03 -0.15168568863E+03  0.23016584316E+03  0.12700000000E+03 0.  0.
<mgrwt>
<rscale>  0 0.36088152E+03</rscale>
<asrwt>0</asrwt>
<pdfrwt beam="1">  1        2 0.75986114E-01 0.36088152E+03</pdfrwt>
<pdfrwt beam="2">  1       -2 0.87445803E-02 0.36088152E+03</pdfrwt>
<totfact> 0.52126627E+03</totfact>
</mgrwt>
</event>
<event>
 4    1  0.9032007E-005  0.3575473E+03  0.7818608E-02  0.1059559E+00
         -2   -1    0    0    0  501 -0.00000000000E+00  0.00000000000E+00  0.36327822577E+02  0.36327822666E+02  0.25500000000E-02 0. -1.
          2   -1    0    0  501    0  0.00000000000E+00 -0.00000000000E+00 -0.87976684760E+03  0.87976684760E+03  0.25500000000E-02 0.  1.
    5000001    1    1    2    0    0  0.91667987440E+02  0.79432179200E+02 -0.50740935320E+03  0.53694109801E+03  0.12700000000E+03 0.  0.
   -5000001    1    1    2    0    0 -0.91667987440E+02 -0.79432179200E+02 -0.33602967182E+03  0.37915357226E+03  0.12700000000E+03 0.  0.
<mgrwt>
<rscale>  0 0.35754728E+03</rscale>
<asrwt>0</asrwt>
<pdfrwt beam="1">  1        2 0.12568096E+00 0.35754728E+03</pdfrwt>
<pdfrwt beam="2">  1       -2 0.51896895E-02 0.35754728E+03</pdfrwt>
<totfact> 0.64224438E+03</totfact>
</mgrwt>
</event>
<event>
 4    1  0.9032007E-005  0.4009092E+03  0.7818608E-02  0.1043465E+00
          2   -1    0    0  501    0  0.00000000000E+00  0.00000000000E+00  0.58307642970E+03  0.58307642970E+03  0.25500000000E-02 0.  1.
         -2   -1    0    0    0  501 -0.00000000000E+00 -0.00000000000E+00 -0.68913849053E+02  0.68913849100E+02  0.25500000000E-02 0. -1.
    5000001    1    1    2    0    0 -0.73070107625E+02 -0.13643403835E+03  0.24085483426E+03  0.31319888032E+03  0.12700000000E+03 0.  0.
   -5000001    1    1    2    0    0  0.73070107625E+02  0.13643403835E+03  0.27330774639E+03  0.33879139848E+03  0.12700000000E+03 0.  0.
<mgrwt>
<rscale>  0 0.40090917E+03</rscale>
<asrwt>0</asrwt>
<pdfrwt beam="1">  1        2 0.83296637E-01 0.40090917E+03</pdfrwt>
<pdfrwt beam="2">  1       -2 0.98448351E-02 0.40090917E+03</pdfrwt>
<totfact> 0.38950218E+03</totfact>
</mgrwt>
</event>
<event>
 4    1  0.9032007E-005  0.3163062E+03  0.7818608E-02  0.1077362E+00
          2   -1    0    0  501    0  0.00000000000E+00  0.00000000000E+00  0.17026747506E+04  0.17026747506E+04  0.25500000000E-02 0.  1.
         -2   -1    0    0    0  501 -0.00000000000E+00 -0.00000000000E+00 -0.14690068373E+02  0.14690068595E+02  0.25500000000E-02 0. -1.
    5000001    1    1    2    0    0  0.82265517259E+02  0.36807276863E+02  0.69421290299E+03  0.71146535098E+03  0.12700000000E+03 0.  0.
   -5000001    1    1    2    0    0 -0.82265517259E+02 -0.36807276863E+02  0.99377177919E+03  0.10058994682E+04  0.12700000000E+03 0.  0.
<mgrwt>
<rscale>  0 0.31630624E+03</rscale>
<asrwt>0</asrwt>
<pdfrwt beam="1">  1        2 0.24323927E+00 0.31630624E+03</pdfrwt>
<pdfrwt beam="2">  1       -2 0.20985811E-02 0.31630624E+03</pdfrwt>
<totfact> 0.89194896E+03</totfact>
</mgrwt>
</event>
<event>
 4    1  0.9032007E-005  0.3063081E+03  0.7818608E-02  0.1082129E+00
          2   -1    0    0  501    0  0.00000000000E+00  0.00000000000E+00  0.19181376610E+04  0.19181376610E+04  0.25500000000E-02 0.  1.
         -2   -1    0    0    0  501 -0.00000000000E+00 -0.00000000000E+00 -0.12228612722E+02  0.12228612988E+02  0.25500000000E-02 0. -1.
    5000001    1    1    2    0    0  0.84550708084E+02 -0.54905999341E+01  0.87623666746E+03  0.88943727509E+03  0.12700000000E+03 0.  0.
   -5000001    1    1    2    0    0 -0.84550708084E+02  0.54905999341E+01  0.10296723809E+04  0.10409289989E+04  0.12700000000E+03 0.  0.
<mgrwt>
<rscale>  0 0.30630810E+03</rscale>
<asrwt>0</asrwt>
<pdfrwt beam="1">  1        2 0.27401936E+00 0.30630810E+03</pdfrwt>
<pdfrwt beam="2">  1       -2 0.17469466E-02 0.30630810E+03</pdfrwt>
<totfact> 0.91531875E+03</totfact>
</mgrwt>
</event>
<event>
 4    1  0.9032007E-005  0.3110288E+03  0.7818608E-02  0.1079854E+00
          2   -1    0    0  501    0  0.00000000000E+00  0.00000000000E+00  0.78700229545E+03  0.78700229546E+03  0.25500000000E-02 0.  1.
         -2   -1    0    0    0  501 -0.00000000000E+00 -0.00000000000E+00 -0.30730194327E+02  0.30730194432E+02  0.25500000000E-02 0. -1.
    5000001    1    1    2    0    0 -0.38048624845E+02 -0.75199502429E+02  0.29697024219E+03  0.33380082050E+03  0.12700000000E+03 0.  0.
   -5000001    1    1    2    0    0  0.38048624845E+02  0.75199502429E+02  0.45930185894E+03  0.48393166939E+03  0.12700000000E+03 0.  0.
<mgrwt>
<rscale>  0 0.31102883E+03</rscale>
<asrwt>0</asrwt>
<pdfrwt beam="1">  1        2 0.11242889E+00 0.31102883E+03</pdfrwt>
<pdfrwt beam="2">  1       -2 0.43900281E-02 0.31102883E+03</pdfrwt>
<totfact> 0.95101364E+03</totfact>
</mgrwt>
</event>
<event>
 4    1  0.9032007E-005  0.4141329E+03  0.7818608E-02  0.1038993E+00
          2   -1    0    0  501    0  0.00000000000E+00  0.00000000000E+00  0.27497739226E+04  0.27497739226E+04  0.25500000000E-02 0.  1.
         -2   -1    0    0    0  501 -0.00000000000E+00 -0.00000000000E+00 -0.15592741575E+02  0.15592741783E+02  0.25500000000E-02 0. -1.
    5000001    1    1    2    0    0  0.11544197622E+03 -0.86821184636E+02  0.18792475249E+04  0.18890645907E+04  0.12700000000E+03 0.  0.
   -5000001    1    1    2    0    0 -0.11544197622E+03  0.86821184636E+02  0.85493365610E+03  0.87630207366E+03  0.12700000000E+03 0.  0.
<mgrwt>
<rscale>  0 0.41413290E+03</rscale>
<asrwt>0</asrwt>
<pdfrwt beam="1">  1        2 0.39282490E+00 0.41413290E+03</pdfrwt>
<pdfrwt beam="2">  1       -2 0.22275342E-02 0.41413290E+03</pdfrwt>
<totfact> 0.24443515E+03</totfact>
</mgrwt>
</event>
<event>
 4    1  0.9032007E-005  0.3211497E+03  0.7818608E-02  0.1075121E+00
          2   -1    0    0  501    0  0.00000000000E+00  0.00000000000E+00  0.23362041434E+02  0.23362041573E+02  0.25500000000E-02 0.  1.
         -2   -1    0    0    0  501 -0.00000000000E+00 -0.00000000000E+00 -0.11036830468E+04  0.11036830468E+04  0.25500000000E-02 0. -1.
    5000001    1    1    2    0    0  0.92510617476E+02  0.19978225480E+00 -0.42392362544E+03  0.45210451719E+03  0.12700000000E+03 0.  0.
   -5000001    1    1    2    0    0 -0.92510617476E+02 -0.19978225480E+00 -0.65639737995E+03  0.67494057121E+03  0.12700000000E+03 0.  0.
<mgrwt>
<rscale>  0 0.32114974E+03</rscale>
<asrwt>0</asrwt>
<pdfrwt beam="1">  1        2 0.33374352E-02 0.32114974E+03</pdfrwt>
<pdfrwt beam="2">  1       -2 0.15766897E+00 0.32114974E+03</pdfrwt>
<totfact> 0.75747735E+02</totfact>
</mgrwt>
</event>
<event>
 4    1  0.9032007E-005  0.4956256E+03  0.7818608E-02  0.1014927E+00
         -2   -1    0    0    0  501 -0.00000000000E+00  0.00000000000E+00  0.13715023998E+03  0.13715024001E+03  0.25500000000E-02 0. -1.
          2   -1    0    0  501    0  0.00000000000E+00 -0.00000000000E+00 -0.44776584474E+03  0.44776584475E+03  0.25500000000E-02 0.  1.
    5000001    1    1    2    0    0  0.19518345174E+03 -0.13969063980E+02 -0.56635956404E+02  0.24005904719E+03  0.12700000000E+03 0.  0.
   -5000001    1    1    2    0    0 -0.19518345174E+03  0.13969063980E+02 -0.25397964835E+03  0.34485703757E+03  0.12700000000E+03 0.  0.
<mgrwt>
<rscale>  0 0.49562564E+03</rscale>
<asrwt>0</asrwt>
<pdfrwt beam="1">  1        2 0.63966549E-01 0.49562564E+03</pdfrwt>
<pdfrwt beam="2">  1       -2 0.19592892E-01 0.49562564E+03</pdfrwt>
<totfact> 0.16780378E+03</totfact>
</mgrwt>
</event>
<event>
 4    1  0.9032007E-005  0.4645551E+03  0.7818608E-02  0.1023468E+00
         -2   -1    0    0    0  501 -0.00000000000E+00  0.00000000000E+00  0.39580779339E+03  0.39580779339E+03  0.25500000000E-02 0. -1.
          2   -1    0    0  501    0  0.00000000000E+00 -0.00000000000E+00 -0.13631078147E+03  0.13631078150E+03  0.25500000000E-02 0.  1.
    5000001    1    1    2    0    0  0.18809865522E+03 -0.43233074345E+02  0.10231375535E+03  0.25268024724E+03  0.12700000000E+03 0.  0.
   -5000001    1    1    2    0    0 -0.18809865522E+03  0.43233074345E+02  0.15718325657E+03  0.27943832765E+03  0.12700000000E+03 0.  0.
<mgrwt>
<rscale>  0 0.46455514E+03</rscale>
<asrwt>0</asrwt>
<pdfrwt beam="1">  1        2 0.19472968E-01 0.46455514E+03</pdfrwt>
<pdfrwt beam="2">  1       -2 0.56543971E-01 0.46455514E+03</pdfrwt>
<totfact> 0.86332283E+02</totfact>
</mgrwt>
</event>
<event>
 4    1  0.9032007E-005  0.4351713E+03  0.7818608E-02  0.1032239E+00
          2   -1    0    0  501    0  0.00000000000E+00  0.00000000000E+00  0.20650709937E+04  0.20650709937E+04  0.25500000000E-02 0.  1.
         -2   -1    0    0    0  501 -0.00000000000E+00 -0.00000000000E+00 -0.22925851412E+02  0.22925851554E+02  0.25500000000E-02 0. -1.
    5000001    1    1    2    0    0  0.45390582161E+02 -0.15392381480E+03  0.66647794566E+03  0.69719057492E+03  0.12700000000E+03 0.  0.
   -5000001    1    1    2    0    0 -0.45390582161E+02  0.15392381480E+03  0.13756671966E+04  0.13908062703E+04  0.12700000000E+03 0.  0.
<mgrwt>
<rscale>  0 0.43517128E+03</rscale>
<asrwt>0</asrwt>
<pdfrwt beam="1">  1        2 0.29501018E+00 0.43517128E+03</pdfrwt>
<pdfrwt beam="2">  1       -2 0.32751212E-02 0.43517128E+03</pdfrwt>
<totfact> 0.30337114E+03</totfact>
</mgrwt>
</event>
<event>
 4    1  0.9032007E-005  0.4150398E+03  0.7818608E-02  0.1038693E+00
          2   -1    0    0  501    0  0.00000000000E+00  0.00000000000E+00  0.82951798198E+03  0.82951798199E+03  0.25500000000E-02 0.  1.
         -2   -1    0    0    0  501 -0.00000000000E+00 -0.00000000000E+00 -0.51915098350E+02  0.51915098413E+02  0.25500000000E-02 0. -1.
    5000001    1    1    2    0    0  0.13453059254E+03 -0.80866413852E+02  0.49059998994E+03  0.53052352196E+03  0.12700000000E+03 0.  0.
   -5000001    1    1    2    0    0 -0.13453059254E+03  0.80866413852E+02  0.28700289369E+03  0.35090955844E+03  0.12700000000E+03 0.  0.
<mgrwt>
<rscale>  0 0.41503979E+03</rscale>
<asrwt>0</asrwt>
<pdfrwt beam="1">  1        2 0.11850256E+00 0.41503979E+03</pdfrwt>
<pdfrwt beam="2">  1       -2 0.74164430E-02 0.41503979E+03</pdfrwt>
<totfact> 0.39908811E+03</totfact>
</mgrwt>
</event>
<event>
 4    1  0.9032007E-005  0.3393161E+03  0.7818608E-02  0.1067088E+00
         -2   -1    0    0    0  501 -0.00000000000E+00  0.00000000000E+00  0.44517578251E+02  0.44517578324E+02  0.25500000000E-02 0. -1.
          2   -1    0    0  501    0  0.00000000000E+00 -0.00000000000E+00 -0.64657267819E+03  0.64657267819E+03  0.25500000000E-02 0.  1.
    5000001    1    1    2    0    0 -0.10124940637E+03 -0.45271279960E+02 -0.33934372216E+03  0.37892491716E+03  0.12700000000E+03 0.  0.
   -5000001    1    1    2    0    0  0.10124940637E+03  0.45271279960E+02 -0.26271137778E+03  0.31216533936E+03  0.12700000000E+03 0.  0.
<mgrwt>
<rscale>  0 0.33931608E+03</rscale>
<asrwt>0</asrwt>
<pdfrwt beam="1">  1        2 0.92367520E-01 0.33931608E+03</pdfrwt>
<pdfrwt beam="2">  1       -2 0.63596544E-02 0.33931608E+03</pdfrwt>
<totfact> 0.68472160E+03</totfact>
</mgrwt>
</event>
<event>
 4    1  0.9032007E-005  0.9398090E+03  0.7818608E-02  0.9377142E-01
          2   -1    0    0  501    0  0.00000000000E+00  0.00000000000E+00  0.58277448648E+03  0.58277448649E+03  0.25500000000E-02 0. -1.
         -2   -1    0    0    0  501 -0.00000000000E+00 -0.00000000000E+00 -0.37889482265E+03  0.37889482266E+03  0.25500000000E-02 0.  1.
    5000001    1    1    2    0    0 -0.12697852938E+03 -0.43216843331E+03  0.58669901728E+02  0.47166116974E+03  0.12700000000E+03 0.  0.
   -5000001    1    1    2    0    0  0.12697852938E+03  0.43216843331E+03  0.14520976210E+03  0.49000813940E+03  0.12700000000E+03 0.  0.
<mgrwt>
<rscale>  0 0.93980899E+03</rscale>
<asrwt>0</asrwt>
<pdfrwt beam="1">  1        2 0.83253497E-01 0.93980899E+03</pdfrwt>
<pdfrwt beam="2">  1       -2 0.54127833E-01 0.93980899E+03</pdfrwt>
<totfact> 0.18078309E+02</totfact>
</mgrwt>
</event>
<event>
 4    1  0.9032007E-005  0.5949578E+03  0.7818608E-02  0.9915923E-01
          2   -1    0    0  501    0  0.00000000000E+00  0.00000000000E+00  0.23921149149E+03  0.23921149150E+03  0.25500000000E-02 0.  1.
         -2   -1    0    0    0  501 -0.00000000000E+00 -0.00000000000E+00 -0.36993909865E+03  0.36993909865E+03  0.25500000000E-02 0. -1.
    5000001    1    1    2    0    0  0.25873141076E+03  0.64946217243E+02 -0.29826595075E+02  0.29694878317E+03  0.12700000000E+03 0.  0.
   -5000001    1    1    2    0    0 -0.25873141076E+03 -0.64946217243E+02 -0.10090101208E+03  0.31220180699E+03  0.12700000000E+03 0.  0.
<mgrwt>
<rscale>  0 0.59495776E+03</rscale>
<asrwt>0</asrwt>
<pdfrwt beam="1">  1        2 0.34173070E-01 0.59495776E+03</pdfrwt>
<pdfrwt beam="2">  1       -2 0.52848443E-01 0.59495776E+03</pdfrwt>
<totfact> 0.52295753E+02</totfact>
</mgrwt>
</event>
<event>
 4    1  0.9032007E-005  0.3493367E+03  0.7818608E-02  0.1062888E+00
         -2   -1    0    0    0  501 -0.00000000000E+00  0.00000000000E+00  0.13640684813E+02  0.13640685051E+02  0.25500000000E-02 0. -1.
          2   -1    0    0  501    0  0.00000000000E+00 -0.00000000000E+00 -0.22366207160E+04  0.22366207160E+04  0.25500000000E-02 0.  1.
    5000001    1    1    2    0    0 -0.18149311011E+02 -0.10769932869E+03 -0.14304265527E+04  0.14402005644E+04  0.12700000000E+03 0.  0.
   -5000001    1    1    2    0    0  0.18149311011E+02  0.10769932869E+03 -0.79255347843E+03  0.81006083664E+03  0.12700000000E+03 0.  0.
<mgrwt>
<rscale>  0 0.34933673E+03</rscale>
<asrwt>0</asrwt>
<pdfrwt beam="1">  1        2 0.31951701E+00 0.34933673E+03</pdfrwt>
<pdfrwt beam="2">  1       -2 0.19486707E-02 0.34933673E+03</pdfrwt>
<totfact> 0.54352075E+03</totfact>
</mgrwt>
</event>
<event>
 4    1  0.9032007E-005  0.3842470E+03  0.7818608E-02  0.1049375E+00
         -2   -1    0    0    0  501 -0.00000000000E+00  0.00000000000E+00  0.84148412184E+02  0.84148412222E+02  0.25500000000E-02 0. -1.
          2   -1    0    0  501    0  0.00000000000E+00 -0.00000000000E+00 -0.43864698438E+03  0.43864698439E+03  0.25500000000E-02 0.  1.
    5000001    1    1    2    0    0  0.12275230291E+03  0.23627803382E+02 -0.79552646396E+02  0.19515128621E+03  0.12700000000E+03 0.  0.
   -5000001    1    1    2    0    0 -0.12275230291E+03 -0.23627803382E+02 -0.27494592581E+03  0.32764411040E+03  0.12700000000E+03 0.  0.
<mgrwt>
<rscale>  0 0.38424704E+03</rscale>
<asrwt>0</asrwt>
<pdfrwt beam="1">  1        2 0.62663854E-01 0.38424704E+03</pdfrwt>
<pdfrwt beam="2">  1       -2 0.12021202E-01 0.38424704E+03</pdfrwt>
<totfact> 0.38817983E+03</totfact>
</mgrwt>
</event>
<event>
 4    1  0.9032007E-005  0.1391344E+04  0.7818608E-02  0.8960108E-01
         -2   -1    0    0    0  501 -0.00000000000E+00  0.00000000000E+00  0.38088711637E+03  0.38088711638E+03  0.25500000000E-02 0.  1.
          2   -1    0    0  501    0  0.00000000000E+00 -0.00000000000E+00 -0.12706109700E+04  0.12706109700E+04  0.25500000000E-02 0. -1.
    5000001    1    1    2    0    0 -0.57267705990E+03 -0.37162628408E+03 -0.49473261126E+03  0.85261624814E+03  0.12700000000E+03 0.  0.
   -5000001    1    1    2    0    0  0.57267705990E+03  0.37162628408E+03 -0.39499124242E+03  0.79888183828E+03  0.12700000000E+03 0.  0.
<mgrwt>
<rscale>  0 0.13913437E+04</rscale>
<asrwt>0</asrwt>
<pdfrwt beam="1">  1        2 0.18151585E+00 0.13913437E+04</pdfrwt>
<pdfrwt beam="2">  1       -2 0.54412446E-01 0.13913437E+04</pdfrwt>
<totfact> 0.60417680E+01</totfact>
</mgrwt>
</event>
<event>
 4    1  0.9032007E-005  0.3166531E+03  0.7818608E-02  0.1077200E+00
          2   -1    0    0  501    0  0.00000000000E+00  0.00000000000E+00  0.14684560567E+04  0.14684560567E+04  0.25500000000E-02 0.  1.
         -2   -1    0    0    0  501 -0.00000000000E+00 -0.00000000000E+00 -0.17070512506E+02  0.17070512697E+02  0.25500000000E-02 0. -1.
    5000001    1    1    2    0    0  0.73879106824E+02  0.21169437180E+02  0.98401598031E+03  0.99514959529E+03  0.12700000000E+03 0.  0.
   -5000001    1    1    2    0    0 -0.73879106824E+02 -0.21169437180E+02  0.46736956392E+03  0.49037697415E+03  0.12700000000E+03 0.  0.
<mgrwt>
<rscale>  0 0.31665311E+03</rscale>
<asrwt>0</asrwt>
<pdfrwt beam="1">  1        2 0.20977944E+00 0.31665311E+03</pdfrwt>
<pdfrwt beam="2">  1       -2 0.24386447E-02 0.31665311E+03</pdfrwt>
<totfact> 0.93614762E+03</totfact>
</mgrwt>
</event>
<event>
 4    1  0.9032007E-005  0.3435974E+03  0.7818608E-02  0.1065274E+00
          2   -1    0    0  501    0  0.00000000000E+00  0.00000000000E+00  0.37360975044E+03  0.37360975045E+03  0.25500000000E-02 0.  1.
         -2   -1    0    0    0  501 -0.00000000000E+00 -0.00000000000E+00 -0.78998972658E+02  0.78998972699E+02  0.25500000000E-02 0. -1.
    5000001    1    1    2    0    0 -0.39288852573E+02  0.42256677837E+02  0.15207001043E+02  0.14031925612E+03  0.12700000000E+03 0.  0.
   -5000001    1    1    2    0    0  0.39288852573E+02 -0.42256677837E+02  0.27940377674E+03  0.31228946702E+03  0.12700000000E+03 0.  0.
<mgrwt>
<rscale>  0 0.34359736E+03</rscale>
<asrwt>0</asrwt>
<pdfrwt beam="1">  1        2 0.53372822E-01 0.34359736E+03</pdfrwt>
<pdfrwt beam="2">  1       -2 0.11285568E-01 0.34359736E+03</pdfrwt>
<totfact> 0.51127485E+03</totfact>
</mgrwt>
</event>
<event>
 4    1  0.9032007E-005  0.5721878E+03  0.7818608E-02  0.9964849E-01
          2   -1    0    0  501    0  0.00000000000E+00  0.00000000000E+00  0.14203068612E+04  0.14203068612E+04  0.25500000000E-02 0.  1.
         -2   -1    0    0    0  501 -0.00000000000E+00 -0.00000000000E+00 -0.57628184672E+02  0.57628184728E+02  0.25500000000E-02 0. -1.
    5000001    1    1    2    0    0 -0.17699482767E+03  0.12329485752E+03  0.10391686787E+04  0.10688916379E+04  0.12700000000E+03 0.  0.
   -5000001    1    1    2    0    0  0.17699482767E+03 -0.12329485752E+03  0.32350999786E+03  0.40904340800E+03  0.12700000000E+03 0.  0.
<mgrwt>
<rscale>  0 0.57218775E+03</rscale>
<asrwt>0</asrwt>
<pdfrwt beam="1">  1        2 0.20290098E+00 0.57218775E+03</pdfrwt>
<pdfrwt beam="2">  1       -2 0.82325979E-02 0.57218775E+03</pdfrwt>
<totfact> 0.15353689E+03</totfact>
</mgrwt>
</event>
<event>
 4    1  0.9032007E-005  0.4936972E+03  0.7818608E-02  0.1015437E+00
         -2   -1    0    0    0  501 -0.00000000000E+00  0.00000000000E+00  0.14816136659E+03  0.14816136661E+03  0.25500000000E-02 0. -1.
          2   -1    0    0  501    0  0.00000000000E+00 -0.00000000000E+00 -0.41126941783E+03  0.41126941784E+03  0.25500000000E-02 0.  1.
    5000001    1    1    2    0    0  0.16952124065E+03 -0.11270787627E+03 -0.19728352150E+03  0.31062888510E+03  0.12700000000E+03 0.  0.
   -5000001    1    1    2    0    0 -0.16952124065E+03  0.11270787627E+03 -0.65824529737E+02  0.24880189935E+03  0.12700000000E+03 0.  0.
<mgrwt>
<rscale>  0 0.49369723E+03</rscale>
<asrwt>0</asrwt>
<pdfrwt beam="1">  1        2 0.58752774E-01 0.49369723E+03</pdfrwt>
<pdfrwt beam="2">  1       -2 0.21165910E-01 0.49369723E+03</pdfrwt>
<totfact> 0.16124668E+03</totfact>
</mgrwt>
</event>
<event>
 4    1  0.9032007E-005  0.4049400E+03  0.7818608E-02  0.1042082E+00
         -2   -1    0    0    0  501 -0.00000000000E+00  0.00000000000E+00  0.19676794164E+03  0.19676794166E+03  0.25500000000E-02 0.  1.
          2   -1    0    0  501    0  0.00000000000E+00 -0.00000000000E+00 -0.20833726082E+03  0.20833726084E+03  0.25500000000E-02 0. -1.
    5000001    1    1    2    0    0 -0.13122336349E+03 -0.73531633108E+02  0.41548723099E+02  0.20120081656E+03  0.12700000000E+03 0.  0.
   -5000001    1    1    2    0    0  0.13122336349E+03  0.73531633108E+02 -0.53118042279E+02  0.20390438594E+03  0.12700000000E+03 0.  0.
<mgrwt>
<rscale>  0 0.40493997E+03</rscale>
<asrwt>0</asrwt>
<pdfrwt beam="1">  1        2 0.29762466E-01 0.40493997E+03</pdfrwt>
<pdfrwt beam="2">  1       -2 0.28109706E-01 0.40493997E+03</pdfrwt>
<totfact> 0.20530830E+03</totfact>
</mgrwt>
</event>
<event>
 4    1  0.9032007E-005  0.3534508E+03  0.7818608E-02  0.1061208E+00
         -2   -1    0    0    0  501 -0.00000000000E+00  0.00000000000E+00  0.18163044738E+03  0.18163044740E+03  0.25500000000E-02 0.  1.
          2   -1    0    0  501    0  0.00000000000E+00 -0.00000000000E+00 -0.17195284210E+03  0.17195284212E+03  0.25500000000E-02 0. -1.
    5000001    1    1    2    0    0  0.29847462118E+02  0.11910011583E+03  0.10052575061E+02  0.17693434616E+03  0.12700000000E+03 0.  0.
   -5000001    1    1    2    0    0 -0.29847462118E+02 -0.11910011583E+03 -0.37496977964E+00  0.17664894335E+03  0.12700000000E+03 0.  0.
<mgrwt>
<rscale>  0 0.35345083E+03</rscale>
<asrwt>0</asrwt>
<pdfrwt beam="1">  1        2 0.24564692E-01 0.35345083E+03</pdfrwt>
<pdfrwt beam="2">  1       -2 0.25947207E-01 0.35345083E+03</pdfrwt>
<totfact> 0.29324331E+03</totfact>
</mgrwt>
</event>
<event>
 4    1  0.9032007E-005  0.4761951E+03  0.7818608E-02  0.1020186E+00
          2   -1    0    0  501    0  0.00000000000E+00  0.00000000000E+00  0.20854716532E+04  0.20854716532E+04  0.25500000000E-02 0.  1.
         -2   -1    0    0    0  501 -0.00000000000E+00 -0.00000000000E+00 -0.27183509258E+02  0.27183509378E+02  0.25500000000E-02 0. -1.
    5000001    1    1    2    0    0 -0.18064804084E+03  0.26475128807E+02  0.14062961118E+04  0.14237739993E+04  0.12700000000E+03 0.  0.
   -5000001    1    1    2    0    0  0.18064804084E+03 -0.26475128807E+02  0.65199203219E+03  0.68888116330E+03  0.12700000000E+03 0.  0.
<mgrwt>
<rscale>  0 0.47619508E+03</rscale>
<asrwt>0</asrwt>
<pdfrwt beam="1">  1        2 0.29792452E+00 0.47619508E+03</pdfrwt>
<pdfrwt beam="2">  1       -2 0.38833584E-02 0.47619508E+03</pdfrwt>
<totfact> 0.22844121E+03</totfact>
</mgrwt>
</event>
<event>
 4    1  0.9032007E-005  0.4813850E+03  0.7818608E-02  0.1018755E+00
          2   -1    0    0  501    0  0.00000000000E+00  0.00000000000E+00  0.91988200902E+03  0.91988200902E+03  0.25500000000E-02 0.  1.
         -2   -1    0    0    0  501 -0.00000000000E+00 -0.00000000000E+00 -0.62978609356E+02  0.62978609407E+02  0.25500000000E-02 0. -1.
    5000001    1    1    2    0    0  0.15695968842E+03 -0.11883977285E+03  0.54111133446E+03  0.58965219552E+03  0.12700000000E+03 0.  0.
   -5000001    1    1    2    0    0 -0.15695968842E+03  0.11883977285E+03  0.31579206520E+03  0.39320842291E+03  0.12700000000E+03 0.  0.
<mgrwt>
<rscale>  0 0.48138504E+03</rscale>
<asrwt>0</asrwt>
<pdfrwt beam="1">  1        2 0.13141170E+00 0.48138504E+03</pdfrwt>
<pdfrwt beam="2">  1       -2 0.89969449E-02 0.48138504E+03</pdfrwt>
<totfact> 0.25696316E+03</totfact>
</mgrwt>
</event>
<event>
 4    1  0.9032007E-005  0.5926725E+03  0.7818608E-02  0.9920726E-01
         -2   -1    0    0    0  501 -0.00000000000E+00  0.00000000000E+00  0.16902019316E+03  0.16902019318E+03  0.25500000000E-02 0. -1.
          2   -1    0    0  501    0  0.00000000000E+00 -0.00000000000E+00 -0.51955425205E+03  0.51955425206E+03  0.25500000000E-02 0.  1.
    5000001    1    1    2    0    0 -0.17978899197E+03  0.19588019442E+03 -0.13865558437E+03  0.32564935632E+03  0.12700000000E+03 0.  0.
   -5000001    1    1    2    0    0  0.17978899197E+03 -0.19588019442E+03 -0.21187847452E+03  0.36292508892E+03  0.12700000000E+03 0.  0.
<mgrwt>
<rscale>  0 0.59267246E+03</rscale>
<asrwt>0</asrwt>
<pdfrwt beam="1">  1        2 0.74222035E-01 0.59267246E+03</pdfrwt>
<pdfrwt beam="2">  1       -2 0.24145742E-01 0.59267246E+03</pdfrwt>
<totfact> 0.98247420E+02</totfact>
</mgrwt>
</event>
<event>
 4    1  0.9032007E-005  0.4549864E+03  0.7818608E-02  0.1026245E+00
          2   -1    0    0  501    0  0.00000000000E+00  0.00000000000E+00  0.45368560433E+03  0.45368560434E+03  0.25500000000E-02 0.  1.
         -2   -1    0    0    0  501 -0.00000000000E+00 -0.00000000000E+00 -0.11407275545E+03  0.11407275547E+03  0.25500000000E-02 0. -1.
    5000001    1    1    2    0    0 -0.70815084063E+02 -0.17296499372E+03  0.13696851241E+03  0.26423670936E+03  0.12700000000E+03 0.  0.
   -5000001    1    1    2    0    0  0.70815084063E+02  0.17296499372E+03  0.20264433648E+03  0.30352165045E+03  0.12700000000E+03 0.  0.
<mgrwt>
<rscale>  0 0.45498645E+03</rscale>
<asrwt>0</asrwt>
<pdfrwt beam="1">  1        2 0.64812230E-01 0.45498645E+03</pdfrwt>
<pdfrwt beam="2">  1       -2 0.16296108E-01 0.45498645E+03</pdfrwt>
<totfact> 0.22639111E+03</totfact>
</mgrwt>
</event>
<event>
 4    1  0.9032007E-005  0.4612468E+03  0.7818608E-02  0.1024420E+00
         -2   -1    0    0    0  501 -0.00000000000E+00  0.00000000000E+00  0.24398005732E+02  0.24398005865E+02  0.25500000000E-02 0. -1.
          2   -1    0    0  501    0  0.00000000000E+00 -0.00000000000E+00 -0.21799797259E+04  0.21799797259E+04  0.25500000000E-02 0.  1.
    5000001    1    1    2    0    0 -0.43317658002E+02 -0.17500657289E+03 -0.14003207897E+04  0.14175792867E+04  0.12700000000E+03 0.  0.
   -5000001    1    1    2    0    0  0.43317658002E+02  0.17500657289E+03 -0.75526093052E+03  0.78679844511E+03  0.12700000000E+03 0.  0.
<mgrwt>
<rscale>  0 0.46124682E+03</rscale>
<asrwt>0</asrwt>
<pdfrwt beam="1">  1        2 0.31142555E+00 0.46124682E+03</pdfrwt>
<pdfrwt beam="2">  1       -2 0.34854308E-02 0.46124682E+03</pdfrwt>
<totfact> 0.24177553E+03</totfact>
</mgrwt>
</event>
<event>
 4    1  0.9032007E-005  0.5593000E+03  0.7818608E-02  0.9993640E-01
          2   -1    0    0  501    0  0.00000000000E+00  0.00000000000E+00  0.25842132386E+03  0.25842132387E+03  0.25500000000E-02 0.  1.
         -2   -1    0    0    0  501 -0.00000000000E+00 -0.00000000000E+00 -0.30262254070E+03  0.30262254071E+03  0.25500000000E-02 0. -1.
    5000001    1    1    2    0    0 -0.60738489284E+02 -0.23420403826E+03  0.37535763108E+02  0.27582354709E+03  0.12700000000E+03 0.  0.
   -5000001    1    1    2    0    0  0.60738489284E+02  0.23420403826E+03 -0.81736979950E+02  0.28522031749E+03  0.12700000000E+03 0.  0.
<mgrwt>
<rscale>  0 0.55929998E+03</rscale>
<asrwt>0</asrwt>
<pdfrwt beam="1">  1        2 0.36917332E-01 0.55929998E+03</pdfrwt>
<pdfrwt beam="2">  1       -2 0.43231791E-01 0.55929998E+03</pdfrwt>
<totfact> 0.71856086E+02</totfact>
</mgrwt>
</event>
<event>
 4    1  0.9032007E-005  0.5249520E+03  0.7818608E-02  0.1007464E+00
          2   -1    0    0  501    0  0.00000000000E+00  0.00000000000E+00  0.25463967154E+04  0.25463967154E+04  0.25500000000E-02 0.  1.
         -2   -1    0    0    0  501 -0.00000000000E+00 -0.00000000000E+00 -0.27055350207E+02  0.27055350327E+02  0.25500000000E-02 0. -1.
    5000001    1    1    2    0    0 -0.59102446319E+02 -0.16825887965E+03  0.19694075228E+04  0.19815395885E+04  0.12700000000E+03 0.  0.
   -5000001    1    1    2    0    0  0.59102446319E+02  0.16825887965E+03  0.54993384232E+03  0.59191247720E+03  0.12700000000E+03 0.  0.
<mgrwt>
<rscale>  0 0.52495202E+03</rscale>
<asrwt>0</asrwt>
<pdfrwt beam="1">  1        2 0.36377116E+00 0.52495202E+03</pdfrwt>
<pdfrwt beam="2">  1       -2 0.38650479E-02 0.52495202E+03</pdfrwt>
<totfact> 0.13438357E+03</totfact>
</mgrwt>
</event>
<event>
 4    1  0.9032007E-005  0.6500934E+03  0.7818608E-02  0.9806604E-01
          2   -1    0    0  501    0  0.00000000000E+00  0.00000000000E+00  0.28931966403E+03  0.28931966404E+03  0.25500000000E-02 0.  1.
         -2   -1    0    0    0  501 -0.00000000000E+00 -0.00000000000E+00 -0.36518553994E+03  0.36518553995E+03  0.25500000000E-02 0. -1.
    5000001    1    1    2    0    0 -0.18637057585E+03 -0.14107786744E+03  0.15012172464E+03  0.30545456034E+03  0.12700000000E+03 0.  0.
   -5000001    1    1    2    0    0  0.18637057585E+03  0.14107786744E+03 -0.22598760056E+03  0.34905064365E+03  0.12700000000E+03 0.  0.
<mgrwt>
<rscale>  0 0.65009340E+03</rscale>
<asrwt>0</asrwt>
<pdfrwt beam="1">  1        2 0.41331381E-01 0.65009340E+03</pdfrwt>
<pdfrwt beam="2">  1       -2 0.52169363E-01 0.65009340E+03</pdfrwt>
<totfact> 0.43432167E+02</totfact>
</mgrwt>
</event>
<event>
 4    1  0.9032007E-005  0.3138769E+03  0.7818608E-02  0.1078502E+00
         -2   -1    0    0    0  501 -0.00000000000E+00  0.00000000000E+00  0.27691745665E+02  0.27691745783E+02  0.25500000000E-02 0. -1.
          2   -1    0    0  501    0  0.00000000000E+00 -0.00000000000E+00 -0.88942321147E+03  0.88942321148E+03  0.25500000000E-02 0.  1.
    5000001    1    1    2    0    0  0.82987611755E+02  0.56579675094E+01 -0.54707209054E+03  0.56774627128E+03  0.12700000000E+03 0.  0.
   -5000001    1    1    2    0    0 -0.82987611755E+02 -0.56579675094E+01 -0.31465937527E+03  0.34936868598E+03  0.12700000000E+03 0.  0.
<mgrwt>
<rscale>  0 0.31387693E+03</rscale>
<asrwt>0</asrwt>
<pdfrwt beam="1">  1        2 0.12706044E+00 0.31387693E+03</pdfrwt>
<pdfrwt beam="2">  1       -2 0.39559642E-02 0.31387693E+03</pdfrwt>
<totfact> 0.95370719E+03</totfact>
</mgrwt>
</event>
<event>
 4    1  0.9032007E-005  0.3661179E+03  0.7818608E-02  0.1056187E+00
         -2   -1    0    0    0  501 -0.00000000000E+00  0.00000000000E+00  0.24091812674E+02  0.24091812809E+02  0.25500000000E-02 0. -1.
          2   -1    0    0  501    0  0.00000000000E+00 -0.00000000000E+00 -0.13909528822E+04  0.13909528822E+04  0.25500000000E-02 0.  1.
    5000001    1    1    2    0    0 -0.73969187595E+02  0.10421223021E+03 -0.55819347980E+03  0.58654973407E+03  0.12700000000E+03 0.  0.
   -5000001    1    1    2    0    0  0.73969187595E+02 -0.10421223021E+03 -0.80866758968E+03  0.82849496090E+03  0.12700000000E+03 0.  0.
<mgrwt>
<rscale>  0 0.36611788E+03</rscale>
<asrwt>0</asrwt>
<pdfrwt beam="1">  1        2 0.19870750E+00 0.36611788E+03</pdfrwt>
<pdfrwt beam="2">  1       -2 0.34416884E-02 0.36611788E+03</pdfrwt>
<totfact> 0.61440925E+03</totfact>
</mgrwt>
</event>
<event>
 4    1  0.9032007E-005  0.3406374E+03  0.7818608E-02  0.1066525E+00
         -2   -1    0    0    0  501 -0.00000000000E+00  0.00000000000E+00  0.10651672001E+03  0.10651672004E+03  0.25500000000E-02 0. -1.
          2   -1    0    0  501    0  0.00000000000E+00 -0.00000000000E+00 -0.27233721318E+03  0.27233721319E+03  0.25500000000E-02 0.  1.
    5000001    1    1    2    0    0 -0.47109463577E+02  0.10078373245E+03 -0.10784924200E+03  0.20034250993E+03  0.12700000000E+03 0.  0.
   -5000001    1    1    2    0    0  0.47109463577E+02 -0.10078373245E+03 -0.57971251172E+02  0.17851142330E+03  0.12700000000E+03 0.  0.
<mgrwt>
<rscale>  0 0.34063744E+03</rscale>
<asrwt>0</asrwt>
<pdfrwt beam="1">  1        2 0.38905316E-01 0.34063744E+03</pdfrwt>
<pdfrwt beam="2">  1       -2 0.15216674E-01 0.34063744E+03</pdfrwt>
<totfact> 0.44144557E+03</totfact>
</mgrwt>
</event>
<event>
 4    1  0.9032007E-005  0.2871015E+03  0.7818608E-02  0.1091872E+00
         -2   -1    0    0    0  501 -0.00000000000E+00  0.00000000000E+00  0.11397274689E+02  0.11397274974E+02  0.25500000000E-02 0. -1.
          2   -1    0    0  501    0  0.00000000000E+00 -0.00000000000E+00 -0.18080478912E+04  0.18080478912E+04  0.25500000000E-02 0.  1.
    5000001    1    1    2    0    0 -0.62956160847E+02 -0.21151768568E+02 -0.95017627026E+03  0.96092394084E+03  0.12700000000E+03 0.  0.
   -5000001    1    1    2    0    0  0.62956160847E+02  0.21151768568E+02 -0.84647434622E+03  0.85852122531E+03  0.12700000000E+03 0.  0.
<mgrwt>
<rscale>  0 0.28710151E+03</rscale>
<asrwt>0</asrwt>
<pdfrwt beam="1">  1        2 0.25829237E+00 0.28710151E+03</pdfrwt>
<pdfrwt beam="2">  1       -2 0.16281833E-02 0.28710151E+03</pdfrwt>
<totfact> 0.11481348E+04</totfact>
</mgrwt>
</event>
<event>
 4    1  0.9032007E-005  0.3641459E+03  0.7818608E-02  0.1056954E+00
         -2   -1    0    0    0  501 -0.00000000000E+00  0.00000000000E+00  0.11381069231E+04  0.11381069231E+04  0.25500000000E-02 0. -1.
          2   -1    0    0  501    0  0.00000000000E+00 -0.00000000000E+00 -0.29127805350E+02  0.29127805461E+02  0.25500000000E-02 0.  1.
    5000001    1    1    2    0    0 -0.77721595597E+02 -0.60465620930E+02  0.28015454160E+03  0.32297415518E+03  0.12700000000E+03 0.  0.
   -5000001    1    1    2    0    0  0.77721595597E+02  0.60465620930E+02  0.82882457615E+03  0.84426057338E+03  0.12700000000E+03 0.  0.
<mgrwt>
<rscale>  0 0.36414589E+03</rscale>
<asrwt>0</asrwt>
<pdfrwt beam="1">  1        2 0.41611148E-02 0.36414589E+03</pdfrwt>
<pdfrwt beam="2">  1       -2 0.16258671E+00 0.36414589E+03</pdfrwt>
<totfact> 0.51824375E+02</totfact>
</mgrwt>
</event>
<event>
 4    1  0.9032007E-005  0.3844289E+03  0.7818608E-02  0.1049309E+00
         -2   -1    0    0    0  501 -0.00000000000E+00  0.00000000000E+00  0.93636168336E+02  0.93636168371E+02  0.25500000000E-02 0. -1.
          2   -1    0    0  501    0  0.00000000000E+00 -0.00000000000E+00 -0.39457400763E+03  0.39457400764E+03  0.25500000000E-02 0.  1.
    5000001    1    1    2    0    0  0.55494594905E+02 -0.13172451890E+03 -0.17543261792E+03  0.25949297172E+03  0.12700000000E+03 0.  0.
   -5000001    1    1    2    0    0 -0.55494594905E+02  0.13172451890E+03 -0.12550522137E+03  0.22871720428E+03  0.12700000000E+03 0.  0.
<mgrwt>
<rscale>  0 0.38442892E+03</rscale>
<asrwt>0</asrwt>
<pdfrwt beam="1">  1        2 0.56367714E-01 0.38442892E+03</pdfrwt>
<pdfrwt beam="2">  1       -2 0.13376596E-01 0.38442892E+03</pdfrwt>
<totfact> 0.36606688E+03</totfact>
</mgrwt>
</event>
<event>
 4    1  0.9032007E-005  0.3142546E+03  0.7818608E-02  0.1078324E+00
         -2   -1    0    0    0  501 -0.00000000000E+00  0.00000000000E+00  0.10297799356E+03  0.10297799359E+03  0.25500000000E-02 0. -1.
          2   -1    0    0  501    0  0.00000000000E+00 -0.00000000000E+00 -0.23975015461E+03  0.23975015463E+03  0.25500000000E-02 0.  1.
    5000001    1    1    2    0    0  0.52364319815E+02  0.52587857411E+02 -0.12864133122E+03  0.19541007353E+03  0.12700000000E+03 0.  0.
   -5000001    1    1    2    0    0 -0.52364319815E+02 -0.52587857411E+02 -0.81308298299E+01  0.14731807469E+03  0.12700000000E+03 0.  0.
<mgrwt>
<rscale>  0 0.31425461E+03</rscale>
<asrwt>0</asrwt>
<pdfrwt beam="1">  1        2 0.34250022E-01 0.31425461E+03</pdfrwt>
<pdfrwt beam="2">  1       -2 0.14711142E-01 0.31425461E+03</pdfrwt>
<totfact> 0.53518736E+03</totfact>
</mgrwt>
</event>
<event>
 4    1  0.9032007E-005  0.4036793E+03  0.7818608E-02  0.1042513E+00
          2   -1    0    0  501    0  0.00000000000E+00  0.00000000000E+00  0.17335039166E+04  0.17335039166E+04  0.25500000000E-02 0.  1.
         -2   -1    0    0    0  501 -0.00000000000E+00 -0.00000000000E+00 -0.23501100426E+02  0.23501100565E+02  0.25500000000E-02 0. -1.
    5000001    1    1    2    0    0  0.91148922048E+01 -0.15086115950E+03  0.67198613603E+03  0.70038313638E+03  0.12700000000E+03 0.  0.
   -5000001    1    1    2    0    0 -0.91148922048E+01  0.15086115950E+03  0.10380166801E+04  0.10566218808E+04  0.12700000000E+03 0.  0.
<mgrwt>
<rscale>  0 0.40367933E+03</rscale>
<asrwt>0</asrwt>
<pdfrwt beam="1">  1        2 0.24764336E+00 0.40367933E+03</pdfrwt>
<pdfrwt beam="2">  1       -2 0.33573009E-02 0.40367933E+03</pdfrwt>
<totfact> 0.42727791E+03</totfact>
</mgrwt>
</event>
<event>
 4    1  0.9032007E-005  0.3970301E+03  0.7818608E-02  0.1044813E+00
         -2   -1    0    0    0  501 -0.00000000000E+00  0.00000000000E+00  0.80298236759E+02  0.80298236799E+02  0.25500000000E-02 0. -1.
          2   -1    0    0  501    0  0.00000000000E+00 -0.00000000000E+00 -0.49077315905E+03  0.49077315906E+03  0.25500000000E-02 0.  1.
    5000001    1    1    2    0    0 -0.78033703648E+02  0.12892532624E+03 -0.17095077401E+03  0.26089109948E+03  0.12700000000E+03 0.  0.
   -5000001    1    1    2    0    0  0.78033703648E+02 -0.12892532624E+03 -0.23952414828E+03  0.31018029638E+03  0.12700000000E+03 0.  0.
<mgrwt>
<rscale>  0 0.39703007E+03</rscale>
<asrwt>0</asrwt>
<pdfrwt beam="1">  1        2 0.70110449E-01 0.39703007E+03</pdfrwt>
<pdfrwt beam="2">  1       -2 0.11471177E-01 0.39703007E+03</pdfrwt>
<totfact> 0.37003632E+03</totfact>
</mgrwt>
</event>
<event>
 4    1  0.9032007E-005  0.4291055E+03  0.7818608E-02  0.1034143E+00
          2   -1    0    0  501    0  0.00000000000E+00  0.00000000000E+00  0.18256922043E+04  0.18256922043E+04  0.25500000000E-02 0.  1.
         -2   -1    0    0    0  501 -0.00000000000E+00 -0.00000000000E+00 -0.25213932376E+02  0.25213932505E+02  0.25500000000E-02 0. -1.
    5000001    1    1    2    0    0  0.34091251398E+02  0.13762983702E+03  0.47324039557E+03  0.51008789190E+03  0.12700000000E+03 0.  0.
   -5000001    1    1    2    0    0 -0.34091251398E+02 -0.13762983702E+03  0.13272378764E+04  0.13408182450E+04  0.12700000000E+03 0.  0.
<mgrwt>
<rscale>  0 0.42910549E+03</rscale>
<asrwt>0</asrwt>
<pdfrwt beam="1">  1        2 0.26081320E+00 0.42910549E+03</pdfrwt>
<pdfrwt beam="2">  1       -2 0.36019899E-02 0.42910549E+03</pdfrwt>
<totfact> 0.34541883E+03</totfact>
</mgrwt>
</event>
<event>
 4    1  0.9032007E-005  0.4722760E+03  0.7818608E-02  0.1021280E+00
          2   -1    0    0  501    0  0.00000000000E+00  0.00000000000E+00  0.18365046648E+04  0.18365046648E+04  0.25500000000E-02 0.  1.
         -2   -1    0    0    0  501 -0.00000000000E+00 -0.00000000000E+00 -0.30362650275E+02  0.30362650382E+02  0.25500000000E-02 0. -1.
    5000001    1    1    2    0    0 -0.10471963373E+03 -0.16246923638E+03  0.10913931137E+04  0.11156300386E+04  0.12700000000E+03 0.  0.
   -5000001    1    1    2    0    0  0.10471963373E+03  0.16246923638E+03  0.71474890091E+03  0.75123727664E+03  0.12700000000E+03 0.  0.
<mgrwt>
<rscale>  0 0.47227597E+03</rscale>
<asrwt>0</asrwt>
<pdfrwt beam="1">  1        2 0.26235782E+00 0.47227597E+03</pdfrwt>
<pdfrwt beam="2">  1       -2 0.43375213E-02 0.47227597E+03</pdfrwt>
<totfact> 0.25672127E+03</totfact>
</mgrwt>
</event>
<event>
 4    1  0.9032007E-005  0.2814688E+03  0.7818608E-02  0.1094889E+00
         -2   -1    0    0    0  501 -0.00000000000E+00  0.00000000000E+00  0.22071668754E+04  0.22071668754E+04  0.25500000000E-02 0. -1.
          2   -1    0    0  501    0  0.00000000000E+00 -0.00000000000E+00 -0.89735706685E+01  0.89735710308E+01  0.25500000000E-02 0.  1.
    5000001    1    1    2    0    0 -0.31149864600E+02  0.50676950130E+02  0.10063695169E+04  0.10160940271E+04  0.12700000000E+03 0.  0.
   -5000001    1    1    2    0    0  0.31149864600E+02 -0.50676950130E+02  0.11918237878E+04  0.12000464194E+04  0.12700000000E+03 0.  0.
<mgrwt>
<rscale>  0 0.28146878E+03</rscale>
<asrwt>0</asrwt>
<pdfrwt beam="1">  1        2 0.12819372E-02 0.28146878E+03</pdfrwt>
<pdfrwt beam="2">  1       -2 0.31530992E+00 0.28146878E+03</pdfrwt>
<totfact> 0.30306547E+02</totfact>
</mgrwt>
</event>
<event>
 4    1  0.9032007E-005  0.3267320E+03  0.7818608E-02  0.1072592E+00
          2   -1    0    0  501    0  0.00000000000E+00  0.00000000000E+00  0.65466279940E+03  0.65466279940E+03  0.25500000000E-02 0.  1.
         -2   -1    0    0    0  501 -0.00000000000E+00 -0.00000000000E+00 -0.40766710834E+02  0.40766710914E+02  0.25500000000E-02 0. -1.
    5000001    1    1    2    0    0 -0.61290401435E+02 -0.80649003294E+02  0.34373214814E+03  0.38018622372E+03  0.12700000000E+03 0.  0.
   -5000001    1    1    2    0    0  0.61290401435E+02  0.80649003294E+02  0.27016394042E+03  0.31524328660E+03  0.12700000000E+03 0.  0.
<mgrwt>
<rscale>  0 0.32673199E+03</rscale>
<asrwt>0</asrwt>
<pdfrwt beam="1">  1        2 0.93523256E-01 0.32673199E+03</pdfrwt>
<pdfrwt beam="2">  1       -2 0.58238159E-02 0.32673199E+03</pdfrwt>
<totfact> 0.77214787E+03</totfact>
</mgrwt>
</event>
<event>
 4    1  0.9032007E-005  0.3682664E+03  0.7818608E-02  0.1055358E+00
         -2   -1    0    0    0  501 -0.00000000000E+00  0.00000000000E+00  0.43895216168E+02  0.43895216242E+02  0.25500000000E-02 0. -1.
          2   -1    0    0  501    0  0.00000000000E+00 -0.00000000000E+00 -0.77240823505E+03  0.77240823505E+03  0.25500000000E-02 0.  1.
    5000001    1    1    2    0    0 -0.48736459598E+02 -0.10899082220E+03 -0.49580049373E+03  0.52554863847E+03  0.12700000000E+03 0.  0.
   -5000001    1    1    2    0    0  0.48736459598E+02  0.10899082220E+03 -0.23271252515E+03  0.29075481283E+03  0.12700000000E+03 0.  0.
<mgrwt>
<rscale>  0 0.36826635E+03</rscale>
<asrwt>0</asrwt>
<pdfrwt beam="1">  1        2 0.11034403E+00 0.36826635E+03</pdfrwt>
<pdfrwt beam="2">  1       -2 0.62707457E-02 0.36826635E+03</pdfrwt>
<totfact> 0.56609670E+03</totfact>
</mgrwt>
</event>
<event>
 4    1  0.9032007E-005  0.3480065E+03  0.7818608E-02  0.1063436E+00
          2   -1    0    0  501    0  0.00000000000E+00  0.00000000000E+00  0.10458867700E+04  0.10458867700E+04  0.25500000000E-02 0.  1.
         -2   -1    0    0    0  501 -0.00000000000E+00 -0.00000000000E+00 -0.28948763251E+02  0.28948763363E+02  0.25500000000E-02 0. -1.
    5000001    1    1    2    0    0  0.11814816629E+02 -0.11377241939E+03  0.40770577801E+03  0.44208229407E+03  0.12700000000E+03 0.  0.
   -5000001    1    1    2    0    0 -0.11814816629E+02  0.11377241939E+03  0.60923222876E+03  0.63275323932E+03  0.12700000000E+03 0.  0.
<mgrwt>
<rscale>  0 0.34800649E+03</rscale>
<asrwt>0</asrwt>
<pdfrwt beam="1">  1        2 0.14941235E+00 0.34800649E+03</pdfrwt>
<pdfrwt beam="2">  1       -2 0.41355388E-02 0.34800649E+03</pdfrwt>
<totfact> 0.71868355E+03</totfact>
</mgrwt>
</event>
<event>
 4    1  0.9032007E-005  0.4980952E+03  0.7818608E-02  0.1014277E+00
         -2   -1    0    0    0  501 -0.00000000000E+00  0.00000000000E+00  0.35337389330E+02  0.35337389422E+02  0.25500000000E-02 0. -1.
          2   -1    0    0  501    0  0.00000000000E+00 -0.00000000000E+00 -0.17552145540E+04  0.17552145540E+04  0.25500000000E-02 0.  1.
    5000001    1    1    2    0    0 -0.14113868372E+03  0.59083149725E+02 -0.13989756828E+04  0.14130367679E+04  0.12700000000E+03 0.  0.
   -5000001    1    1    2    0    0  0.14113868372E+03 -0.59083149725E+02 -0.32090148193E+03  0.37751517550E+03  0.12700000000E+03 0.  0.
<mgrwt>
<rscale>  0 0.49809517E+03</rscale>
<asrwt>0</asrwt>
<pdfrwt beam="1">  1        2 0.25074488E+00 0.49809517E+03</pdfrwt>
<pdfrwt beam="2">  1       -2 0.50481996E-02 0.49809517E+03</pdfrwt>
<totfact> 0.22308197E+03</totfact>
</mgrwt>
</event>
<event>
 4    1  0.9032007E-005  0.6092220E+03  0.7818608E-02  0.9886456E-01
          2   -1    0    0  501    0  0.00000000000E+00  0.00000000000E+00  0.39861361661E+03  0.39861361662E+03  0.25500000000E-02 0.  1.
         -2   -1    0    0    0  501 -0.00000000000E+00 -0.00000000000E+00 -0.23277643899E+03  0.23277643900E+03  0.25500000000E-02 0. -1.
    5000001    1    1    2    0    0 -0.17351529121E+03  0.16573404295E+03 -0.60251241633E+02  0.27809088693E+03  0.12700000000E+03 0.  0.
   -5000001    1    1    2    0    0  0.17351529121E+03 -0.16573404295E+03  0.22608841926E+03  0.35329916869E+03  0.12700000000E+03 0.  0.
<mgrwt>
<rscale>  0 0.60922199E+03</rscale>
<asrwt>0</asrwt>
<pdfrwt beam="1">  1        2 0.56944803E-01 0.60922199E+03</pdfrwt>
<pdfrwt beam="2">  1       -2 0.33253777E-01 0.60922199E+03</pdfrwt>
<totfact> 0.73655700E+02</totfact>
</mgrwt>
</event>
<event>
 4    1  0.9032007E-005  0.5877708E+03  0.7818608E-02  0.9931108E-01
          2   -1    0    0  501    0  0.00000000000E+00  0.00000000000E+00  0.13613522145E+03  0.13613522147E+03  0.25500000000E-02 0.  1.
         -2   -1    0    0    0  501 -0.00000000000E+00 -0.00000000000E+00 -0.63443263694E+03  0.63443263695E+03  0.25500000000E-02 0. -1.
    5000001    1    1    2    0    0  0.18690247819E+03 -0.18764123691E+03 -0.23617991049E+03  0.37689749304E+03  0.12700000000E+03 0.  0.
   -5000001    1    1    2    0    0 -0.18690247819E+03  0.18764123691E+03 -0.26211750500E+03  0.39367036537E+03  0.12700000000E+03 0.  0.
<mgrwt>
<rscale>  0 0.58777080E+03</rscale>
<asrwt>0</asrwt>
<pdfrwt beam="1">  1        2 0.19447889E-01 0.58777080E+03</pdfrwt>
<pdfrwt beam="2">  1       -2 0.90633232E-01 0.58777080E+03</pdfrwt>
<totfact> 0.30873147E+02</totfact>
</mgrwt>
</event>
<event>
 4    1  0.9032007E-005  0.2891058E+03  0.7818608E-02  0.1090817E+00
          2   -1    0    0  501    0  0.00000000000E+00  0.00000000000E+00  0.15603623077E+04  0.15603623077E+04  0.25500000000E-02 0.  1.
         -2   -1    0    0    0  501 -0.00000000000E+00 -0.00000000000E+00 -0.13391470541E+02  0.13391470784E+02  0.25500000000E-02 0. -1.
    5000001    1    1    2    0    0  0.67311258421E+02  0.88856094096E+01  0.84164615383E+03  0.85387763047E+03  0.12700000000E+03 0.  0.
   -5000001    1    1    2    0    0 -0.67311258421E+02 -0.88856094096E+01  0.70532468334E+03  0.71987614803E+03  0.12700000000E+03 0.  0.
<mgrwt>
<rscale>  0 0.28910584E+03</rscale>
<asrwt>0</asrwt>
<pdfrwt beam="1">  1        2 0.22290892E+00 0.28910584E+03</pdfrwt>
<pdfrwt beam="2">  1       -2 0.19130671E-02 0.28910584E+03</pdfrwt>
<totfact> 0.12017911E+04</totfact>
</mgrwt>
</event>
<event>
 4    1  0.9032007E-005  0.4939120E+03  0.7818608E-02  0.1015380E+00
          2   -1    0    0  501    0  0.00000000000E+00  0.00000000000E+00  0.29312693311E+04  0.29312693311E+04  0.25500000000E-02 0.  1.
         -2   -1    0    0    0  501 -0.00000000000E+00 -0.00000000000E+00 -0.20805749702E+02  0.20805749859E+02  0.25500000000E-02 0. -1.
    5000001    1    1    2    0    0  0.15504916878E+03  0.13856737993E+03  0.16955824498E+04  0.17130002941E+04  0.12700000000E+03 0.  0.
   -5000001    1    1    2    0    0 -0.15504916878E+03 -0.13856737993E+03  0.12148811316E+04  0.12390747869E+04  0.12700000000E+03 0.  0.
<mgrwt>
<rscale>  0 0.49391196E+03</rscale>
<asrwt>0</asrwt>
<pdfrwt beam="1">  1        2 0.41875247E+00 0.49391196E+03</pdfrwt>
<pdfrwt beam="2">  1       -2 0.29722520E-02 0.49391196E+03</pdfrwt>
<totfact> 0.12631869E+03</totfact>
</mgrwt>
</event>
<event>
 4    1  0.9032007E-005  0.3321973E+03  0.7818608E-02  0.1070169E+00
         -2   -1    0    0    0  501 -0.00000000000E+00  0.00000000000E+00  0.10006421282E+02  0.10006421607E+02  0.25500000000E-02 0. -1.
          2   -1    0    0  501    0  0.00000000000E+00 -0.00000000000E+00 -0.27571064375E+04  0.27571064375E+04  0.25500000000E-02 0.  1.
    5000001    1    1    2    0    0 -0.57487816538E+02  0.89439175633E+02 -0.14774393567E+04  0.14866944097E+04  0.12700000000E+03 0.  0.
   -5000001    1    1    2    0    0  0.57487816538E+02 -0.89439175633E+02 -0.12696606595E+04  0.12804184493E+04  0.12700000000E+03 0.  0.
<mgrwt>
<rscale>  0 0.33219734E+03</rscale>
<asrwt>0</asrwt>
<pdfrwt beam="1">  1        2 0.39387186E+00 0.33219734E+03</pdfrwt>
<pdfrwt beam="2">  1       -2 0.14294905E-02 0.33219734E+03</pdfrwt>
<totfact> 0.46950697E+03</totfact>
</mgrwt>
</event>
<event>
 4    1  0.9032007E-005  0.4078772E+03  0.7818608E-02  0.1041086E+00
          2   -1    0    0  501    0  0.00000000000E+00  0.00000000000E+00  0.29085744786E+04  0.29085744786E+04  0.25500000000E-02 0.  1.
         -2   -1    0    0    0  501 -0.00000000000E+00 -0.00000000000E+00 -0.14299430813E+02  0.14299431041E+02  0.25500000000E-02 0. -1.
    5000001    1    1    2    0    0  0.85905357181E+02  0.13020421330E+03  0.12063437037E+04  0.12229991819E+04  0.12700000000E+03 0.  0.
   -5000001    1    1    2    0    0 -0.85905357181E+02 -0.13020421330E+03  0.16879313441E+04  0.16998747277E+04  0.12700000000E+03 0.  0.
<mgrwt>
<rscale>  0 0.40787724E+03</rscale>
<asrwt>0</asrwt>
<pdfrwt beam="1">  1        2 0.41551114E+00 0.40787724E+03</pdfrwt>
<pdfrwt beam="2">  1       -2 0.20427734E-02 0.40787724E+03</pdfrwt>
<totfact> 0.22964737E+03</totfact>
</mgrwt>
</event>
<event>
 4    1  0.9032007E-005  0.8225824E+03  0.7818608E-02  0.9527893E-01
         -2   -1    0    0    0  501 -0.00000000000E+00  0.00000000000E+00  0.55833436479E+02  0.55833436537E+02  0.25500000000E-02 0. -1.
          2   -1    0    0  501    0  0.00000000000E+00 -0.00000000000E+00 -0.30297338637E+04  0.30297338637E+04  0.25500000000E-02 0.  1.
    5000001    1    1    2    0    0 -0.33726299728E+03 -0.12883397931E+03 -0.92195668852E+03  0.99823727594E+03  0.12700000000E+03 0.  0.
   -5000001    1    1    2    0    0  0.33726299728E+03  0.12883397931E+03 -0.20519437387E+04  0.20873300243E+04  0.12700000000E+03 0.  0.
<mgrwt>
<rscale>  0 0.82258241E+03</rscale>
<asrwt>0</asrwt>
<pdfrwt beam="1">  1        2 0.43281902E+00 0.82258241E+03</pdfrwt>
<pdfrwt beam="2">  1       -2 0.79762071E-02 0.82258241E+03</pdfrwt>
<totfact> 0.23358824E+02</totfact>
</mgrwt>
</event>
<event>
 4    1  0.9032007E-005  0.4120456E+03  0.7818608E-02  0.1039687E+00
          2   -1    0    0  501    0  0.00000000000E+00  0.00000000000E+00  0.16126742157E+04  0.16126742157E+04  0.25500000000E-02 0.  1.
         -2   -1    0    0    0  501 -0.00000000000E+00 -0.00000000000E+00 -0.26319885205E+02  0.26319885328E+02  0.25500000000E-02 0. -1.
    5000001    1    1    2    0    0  0.49382570406E+01  0.78752799124E+02  0.13569733862E+04  0.13651857604E+04  0.12700000000E+03 0.  0.
   -5000001    1    1    2    0    0 -0.49382570406E+01 -0.78752799124E+02  0.22938094431E+03  0.27380834057E+03  0.12700000000E+03 0.  0.
<mgrwt>
<rscale>  0 0.41204563E+03</rscale>
<asrwt>0</asrwt>
<pdfrwt beam="1">  1        2 0.23038203E+00 0.41204563E+03</pdfrwt>
<pdfrwt beam="2">  1       -2 0.37599836E-02 0.41204563E+03</pdfrwt>
<totfact> 0.41392202E+03</totfact>
</mgrwt>
</event>
<event>
 4    1  0.9032007E-005  0.4432753E+03  0.7818608E-02  0.1029747E+00
          2   -1    0    0  501    0  0.00000000000E+00  0.00000000000E+00  0.54914932516E+03  0.54914932516E+03  0.25500000000E-02 0.  1.
         -2   -1    0    0    0  501 -0.00000000000E+00 -0.00000000000E+00 -0.89453339581E+02  0.89453339617E+02  0.25500000000E-02 0. -1.
    5000001    1    1    2    0    0 -0.56232221258E+02 -0.17137920015E+03  0.26079164736E+03  0.34157601831E+03  0.12700000000E+03 0.  0.
   -5000001    1    1    2    0    0  0.56232221258E+02  0.17137920015E+03  0.19890433821E+03  0.29702664647E+03  0.12700000000E+03 0.  0.
<mgrwt>
<rscale>  0 0.44327527E+03</rscale>
<asrwt>0</asrwt>
<pdfrwt beam="1">  1        2 0.78449904E-01 0.44327527E+03</pdfrwt>
<pdfrwt beam="2">  1       -2 0.12779048E-01 0.44327527E+03</pdfrwt>
<totfact> 0.27361401E+03</totfact>
</mgrwt>
</event>
<event>
 4    1  0.9032007E-005  0.4981520E+03  0.7818608E-02  0.1014262E+00
          2   -1    0    0  501    0  0.00000000000E+00  0.00000000000E+00  0.14913201494E+03  0.14913201496E+03  0.25500000000E-02 0.  1.
         -2   -1    0    0    0  501 -0.00000000000E+00 -0.00000000000E+00 -0.41599949904E+03  0.41599949905E+03  0.25500000000E-02 0. -1.
    5000001    1    1    2    0    0  0.95732267704E+02 -0.18310704021E+03 -0.69089095195E+02  0.25218080484E+03  0.12700000000E+03 0.  0.
   -5000001    1    1    2    0    0 -0.95732267704E+02  0.18310704021E+03 -0.19777838890E+03  0.31295070917E+03  0.12700000000E+03 0.  0.
<mgrwt>
<rscale>  0 0.49815196E+03</rscale>
<asrwt>0</asrwt>
<pdfrwt beam="1">  1        2 0.21304574E-01 0.49815196E+03</pdfrwt>
<pdfrwt beam="2">  1       -2 0.59428499E-01 0.49815196E+03</pdfrwt>
<totfact> 0.70131425E+02</totfact>
</mgrwt>
</event>
<event>
 4    1  0.9032007E-005  0.3873943E+03  0.7818608E-02  0.1048234E+00
          2   -1    0    0  501    0  0.00000000000E+00  0.00000000000E+00  0.37506311338E+03  0.37506311339E+03  0.25500000000E-02 0.  1.
         -2   -1    0    0    0  501 -0.00000000000E+00 -0.00000000000E+00 -0.10003274624E+03  0.10003274628E+03  0.25500000000E-02 0. -1.
    5000001    1    1    2    0    0 -0.13979365609E+03  0.41038907427E+02  0.15317914539E+03  0.24661571075E+03  0.12700000000E+03 0.  0.
   -5000001    1    1    2    0    0  0.13979365609E+03 -0.41038907427E+02  0.12185122174E+03  0.22848014891E+03  0.12700000000E+03 0.  0.
<mgrwt>
<rscale>  0 0.38739434E+03</rscale>
<asrwt>0</asrwt>
<pdfrwt beam="1">  1        2 0.53580445E-01 0.38739434E+03</pdfrwt>
<pdfrwt beam="2">  1       -2 0.14290392E-01 0.38739434E+03</pdfrwt>
<totfact> 0.34698421E+03</totfact>
</mgrwt>
</event>
<event>
 4    1  0.9032007E-005  0.2834511E+03  0.7818608E-02  0.1093819E+00
          2   -1    0    0  501    0  0.00000000000E+00  0.00000000000E+00  0.26106676629E+03  0.26106676631E+03  0.25500000000E-02 0.  1.
         -2   -1    0    0    0  501 -0.00000000000E+00 -0.00000000000E+00 -0.76938697090E+02  0.76938697132E+02  0.25500000000E-02 0. -1.
    5000001    1    1    2    0    0 -0.50263847878E+02 -0.21740298785E+02  0.12897350042E+03  0.18910911878E+03  0.12700000000E+03 0.  0.
   -5000001    1    1    2    0    0  0.50263847878E+02  0.21740298785E+02  0.55154568782E+02  0.14889634466E+03  0.12700000000E+03 0.  0.
<mgrwt>
<rscale>  0 0.28345114E+03</rscale>
<asrwt>0</asrwt>
<pdfrwt beam="1">  1        2 0.37295252E-01 0.28345114E+03</pdfrwt>
<pdfrwt beam="2">  1       -2 0.10991243E-01 0.28345114E+03</pdfrwt>
<totfact> 0.78125392E+03</totfact>
</mgrwt>
</event>
<event>
 4    1  0.9032007E-005  0.3798570E+03  0.7818608E-02  0.1050987E+00
         -2   -1    0    0    0  501 -0.00000000000E+00  0.00000000000E+00  0.77437903824E+02  0.77437903866E+02  0.25500000000E-02 0. -1.
          2   -1    0    0  501    0  0.00000000000E+00 -0.00000000000E+00 -0.46582929283E+03  0.46582929284E+03  0.25500000000E-02 0.  1.
    5000001    1    1    2    0    0  0.83610281087E+02 -0.68207617412E+02 -0.32449902461E+03  0.36478976843E+03  0.12700000000E+03 0.  0.
   -5000001    1    1    2    0    0 -0.83610281087E+02  0.68207617412E+02 -0.63892364401E+02  0.17847742828E+03  0.12700000000E+03 0.  0.
<mgrwt>
<rscale>  0 0.37985705E+03</rscale>
<asrwt>0</asrwt>
<pdfrwt beam="1">  1        2 0.66547040E-01 0.37985705E+03</pdfrwt>
<pdfrwt beam="2">  1       -2 0.11062558E-01 0.37985705E+03</pdfrwt>
<totfact> 0.41554146E+03</totfact>
</mgrwt>
</event>
<event>
 4    1  0.9032007E-005  0.3448178E+03  0.7818608E-02  0.1064762E+00
         -2   -1    0    0    0  501 -0.00000000000E+00  0.00000000000E+00  0.12470502624E+02  0.12470502884E+02  0.25500000000E-02 0. -1.
          2   -1    0    0  501    0  0.00000000000E+00 -0.00000000000E+00 -0.23836114999E+04  0.23836114999E+04  0.25500000000E-02 0.  1.
    5000001    1    1    2    0    0 -0.41825818480E+02  0.93770347240E+02 -0.15695561145E+04  0.15780296808E+04  0.12700000000E+03 0.  0.
   -5000001    1    1    2    0    0  0.41825818480E+02 -0.93770347240E+02 -0.80158488283E+03  0.81805232198E+03  0.12700000000E+03 0.  0.
<mgrwt>
<rscale>  0 0.34481783E+03</rscale>
<asrwt>0</asrwt>
<pdfrwt beam="1">  1        2 0.34051564E+00 0.34481783E+03</pdfrwt>
<pdfrwt beam="2">  1       -2 0.17815019E-02 0.34481783E+03</pdfrwt>
<totfact> 0.52464439E+03</totfact>
</mgrwt>
</event>
<event>
 4    1  0.9032007E-005  0.4489527E+03  0.7818608E-02  0.1028035E+00
         -2   -1    0    0    0  501 -0.00000000000E+00  0.00000000000E+00  0.56083812993E+02  0.56083813051E+02  0.25500000000E-02 0. -1.
          2   -1    0    0  501    0  0.00000000000E+00 -0.00000000000E+00 -0.89846997310E+03  0.89846997310E+03  0.25500000000E-02 0.  1.
    5000001    1    1    2    0    0 -0.16615828293E+03 -0.21799991805E+02 -0.25409098807E+03  0.32981061967E+03  0.12700000000E+03 0.  0.
   -5000001    1    1    2    0    0  0.16615828293E+03  0.21799991805E+02 -0.58829517203E+03  0.62474316648E+03  0.12700000000E+03 0.  0.
<mgrwt>
<rscale>  0 0.44895266E+03</rscale>
<asrwt>0</asrwt>
<pdfrwt beam="1">  1        2 0.12835284E+00 0.44895266E+03</pdfrwt>
<pdfrwt beam="2">  1       -2 0.80119739E-02 0.44895266E+03</pdfrwt>
<totfact> 0.31874336E+03</totfact>
</mgrwt>
</event>
<event>
 4    1  0.9032007E-005  0.5201637E+03  0.7818608E-02  0.1008646E+00
         -2   -1    0    0    0  501 -0.00000000000E+00  0.00000000000E+00  0.75053811756E+02  0.75053811799E+02  0.25500000000E-02 0. -1.
          2   -1    0    0  501    0  0.00000000000E+00 -0.00000000000E+00 -0.90125425653E+03  0.90125425654E+03  0.25500000000E-02 0.  1.
    5000001    1    1    2    0    0 -0.13904522308E+03 -0.10084850031E+03 -0.69155370406E+03  0.72379521943E+03  0.12700000000E+03 0.  0.
   -5000001    1    1    2    0    0  0.13904522308E+03  0.10084850031E+03 -0.13464674072E+03  0.25251284891E+03  0.12700000000E+03 0.  0.
<mgrwt>
<rscale>  0 0.52016369E+03</rscale>
<asrwt>0</asrwt>
<pdfrwt beam="1">  1        2 0.12875060E+00 0.52016369E+03</pdfrwt>
<pdfrwt beam="2">  1       -2 0.10721974E-01 0.52016369E+03</pdfrwt>
<totfact> 0.19904000E+03</totfact>
</mgrwt>
</event>
<event>
 4    1  0.9032007E-005  0.3749689E+03  0.7818608E-02  0.1052809E+00
          2   -1    0    0  501    0  0.00000000000E+00  0.00000000000E+00  0.75154196188E+03  0.75154196188E+03  0.25500000000E-02 0.  1.
         -2   -1    0    0    0  501 -0.00000000000E+00 -0.00000000000E+00 -0.46771071409E+02  0.46771071479E+02  0.25500000000E-02 0. -1.
    5000001    1    1    2    0    0 -0.13514766912E+03  0.24114802727E+02  0.32422074184E+03  0.37429200581E+03  0.12700000000E+03 0.  0.
   -5000001    1    1    2    0    0  0.13514766912E+03 -0.24114802727E+02  0.38055014863E+03  0.42402102755E+03  0.12700000000E+03 0.  0.
<mgrwt>
<rscale>  0 0.37496892E+03</rscale>
<asrwt>0</asrwt>
<pdfrwt beam="1">  1        2 0.10736312E+00 0.37496892E+03</pdfrwt>
<pdfrwt beam="2">  1       -2 0.66815824E-02 0.37496892E+03</pdfrwt>
<totfact> 0.53075154E+03</totfact>
</mgrwt>
</event>
<event>
 4    1  0.9032007E-005  0.6167763E+03  0.7818608E-02  0.9871199E-01
          2   -1    0    0  501    0  0.00000000000E+00  0.00000000000E+00  0.15522206140E+04  0.15522206140E+04  0.25500000000E-02 0.  1.
         -2   -1    0    0    0  501 -0.00000000000E+00 -0.00000000000E+00 -0.61269157551E+02  0.61269157605E+02  0.25500000000E-02 0. -1.
    5000001    1    1    2    0    0  0.26641070882E+03  0.56891058976E+02  0.92601780137E+03  0.97357548593E+03  0.12700000000E+03 0.  0.
   -5000001    1    1    2    0    0 -0.26641070882E+03 -0.56891058976E+02  0.56493365508E+03  0.63991428567E+03  0.12700000000E+03 0.  0.
<mgrwt>
<rscale>  0 0.61677629E+03</rscale>
<asrwt>0</asrwt>
<pdfrwt beam="1">  1        2 0.22174576E+00 0.61677629E+03</pdfrwt>
<pdfrwt beam="2">  1       -2 0.87527386E-02 0.61677629E+03</pdfrwt>
<totfact> 0.11858943E+03</totfact>
</mgrwt>
</event>
<event>
 4    1  0.9032007E-005  0.4804381E+03  0.7818608E-02  0.1019015E+00
         -2   -1    0    0    0  501 -0.00000000000E+00  0.00000000000E+00  0.26054311060E+03  0.26054311062E+03  0.25500000000E-02 0. -1.
          2   -1    0    0  501    0  0.00000000000E+00 -0.00000000000E+00 -0.22148038919E+03  0.22148038920E+03  0.25500000000E-02 0.  1.
    5000001    1    1    2    0    0  0.19091152690E+03  0.68743764205E+02  0.39679295038E+02  0.24264451916E+03  0.12700000000E+03 0.  0.
   -5000001    1    1    2    0    0 -0.19091152690E+03 -0.68743764205E+02 -0.61657362323E+00  0.23937898067E+03  0.12700000000E+03 0.  0.
<mgrwt>
<rscale>  0 0.48043809E+03</rscale>
<asrwt>0</asrwt>
<pdfrwt beam="1">  1        2 0.31640056E-01 0.48043809E+03</pdfrwt>
<pdfrwt beam="2">  1       -2 0.37220444E-01 0.48043809E+03</pdfrwt>
<totfact> 0.11397748E+03</totfact>
</mgrwt>
</event>
<event>
 4    1  0.9032007E-005  0.2717488E+03  0.7818608E-02  0.1100283E+00
          2   -1    0    0  501    0  0.00000000000E+00  0.00000000000E+00  0.19562948966E+04  0.19562948966E+04  0.25500000000E-02 0.  1.
         -2   -1    0    0    0  501 -0.00000000000E+00 -0.00000000000E+00 -0.94371541506E+01  0.94371544951E+01  0.25500000000E-02 0. -1.
    5000001    1    1    2    0    0 -0.27635739920E+02 -0.26266602786E+02  0.11879141965E+04  0.11952919337E+04  0.12700000000E+03 0.  0.
   -5000001    1    1    2    0    0  0.27635739920E+02  0.26266602786E+02  0.75894354595E+03  0.77044011739E+03  0.12700000000E+03 0.  0.
<mgrwt>
<rscale>  0 0.27174883E+03</rscale>
<asrwt>0</asrwt>
<pdfrwt beam="1">  1        2 0.27947069E+00 0.27174883E+03</pdfrwt>
<pdfrwt beam="2">  1       -2 0.13481649E-02 0.27174883E+03</pdfrwt>
<totfact> 0.12792688E+04</totfact>
</mgrwt>
</event>
<event>
 4    1  0.9032007E-005  0.7304757E+03  0.7818608E-02  0.9666489E-01
         -2   -1    0    0    0  501 -0.00000000000E+00  0.00000000000E+00  0.26068876662E+03  0.26068876663E+03  0.25500000000E-02 0. -1.
          2   -1    0    0  501    0  0.00000000000E+00 -0.00000000000E+00 -0.51171632073E+03  0.51171632074E+03  0.25500000000E-02 0.  1.
    5000001    1    1    2    0    0  0.24210941726E+03  0.23809537583E+03 -0.17236648831E+03  0.40142942618E+03  0.12700000000E+03 0.  0.
   -5000001    1    1    2    0    0 -0.24210941726E+03 -0.23809537583E+03 -0.78661065813E+02  0.37097566118E+03  0.12700000000E+03 0.  0.
<mgrwt>
<rscale>  0 0.73047573E+03</rscale>
<asrwt>0</asrwt>
<pdfrwt beam="1">  1        2 0.73102331E-01 0.73047573E+03</pdfrwt>
<pdfrwt beam="2">  1       -2 0.37241252E-01 0.73047573E+03</pdfrwt>
<totfact> 0.44692512E+02</totfact>
</mgrwt>
</event>
<event>
 4    1  0.9032007E-005  0.3174723E+03  0.7818608E-02  0.1076819E+00
         -2   -1    0    0    0  501 -0.00000000000E+00  0.00000000000E+00  0.27062261576E+02  0.27062261696E+02  0.25500000000E-02 0. -1.
          2   -1    0    0  501    0  0.00000000000E+00 -0.00000000000E+00 -0.93108106964E+03  0.93108106964E+03  0.25500000000E-02 0.  1.
    5000001    1    1    2    0    0 -0.50364488855E+01 -0.92987659440E+02 -0.51207434058E+03  0.53574359624E+03  0.12700000000E+03 0.  0.
   -5000001    1    1    2    0    0  0.50364488855E+01  0.92987659440E+02 -0.39194446748E+03  0.42239973510E+03  0.12700000000E+03 0.  0.
<mgrwt>
<rscale>  0 0.31747226E+03</rscale>
<asrwt>0</asrwt>
<pdfrwt beam="1">  1        2 0.13301156E+00 0.31747226E+03</pdfrwt>
<pdfrwt beam="2">  1       -2 0.38660380E-02 0.31747226E+03</pdfrwt>
<totfact> 0.93022558E+03</totfact>
</mgrwt>
</event>
<event>
 4    1  0.9032007E-005  0.2757296E+03  0.7818608E-02  0.1098044E+00
          2   -1    0    0  501    0  0.00000000000E+00  0.00000000000E+00  0.34269160951E+03  0.34269160952E+03  0.25500000000E-02 0.  1.
         -2   -1    0    0    0  501 -0.00000000000E+00 -0.00000000000E+00 -0.55462992009E+02  0.55462992067E+02  0.25500000000E-02 0. -1.
    5000001    1    1    2    0    0  0.27299635864E+02 -0.45338155312E+02  0.15627580775E+03  0.20821130261E+03  0.12700000000E+03 0.  0.
   -5000001    1    1    2    0    0 -0.27299635864E+02  0.45338155312E+02  0.13095280975E+03  0.18994329898E+03  0.12700000000E+03 0.  0.
<mgrwt>
<rscale>  0 0.27572959E+03</rscale>
<asrwt>0</asrwt>
<pdfrwt beam="1">  1        2 0.48955944E-01 0.27572959E+03</pdfrwt>
<pdfrwt beam="2">  1       -2 0.79232847E-02 0.27572959E+03</pdfrwt>
<totfact> 0.97671567E+03</totfact>
</mgrwt>
</event>
<event>
 4    1  0.9032007E-005  0.4255148E+03  0.7818608E-02  0.1035286E+00
          2   -1    0    0  501    0  0.00000000000E+00  0.00000000000E+00  0.53306493640E+03  0.53306493641E+03  0.25500000000E-02 0.  1.
         -2   -1    0    0    0  501 -0.00000000000E+00 -0.00000000000E+00 -0.84915927377E+02  0.84915927415E+02  0.25500000000E-02 0. -1.
    5000001    1    1    2    0    0  0.15788307305E+03 -0.26703200347E+02  0.13819649080E+03  0.24671318517E+03  0.12700000000E+03 0.  0.
   -5000001    1    1    2    0    0 -0.15788307305E+03  0.26703200347E+02  0.30995251822E+03  0.37126767866E+03  0.12700000000E+03 0.  0.
<mgrwt>
<rscale>  0 0.42551476E+03</rscale>
<asrwt>0</asrwt>
<pdfrwt beam="1">  1        2 0.76152132E-01 0.42551476E+03</pdfrwt>
<pdfrwt beam="2">  1       -2 0.12130847E-01 0.42551476E+03</pdfrwt>
<totfact> 0.30810680E+03</totfact>
</mgrwt>
</event>
<event>
 4    1  0.9032007E-005  0.3924055E+03  0.7818608E-02  0.1046442E+00
         -2   -1    0    0    0  501 -0.00000000000E+00  0.00000000000E+00  0.10206600517E+02  0.10206600835E+02  0.25500000000E-02 0. -1.
          2   -1    0    0  501    0  0.00000000000E+00 -0.00000000000E+00 -0.37716305667E+04  0.37716305667E+04  0.25500000000E-02 0.  1.
    5000001    1    1    2    0    0 -0.14668201214E+03  0.19985236750E+02 -0.16759266527E+04  0.16872386221E+04  0.12700000000E+03 0.  0.
   -5000001    1    1    2    0    0  0.14668201214E+03 -0.19985236750E+02 -0.20854973134E+04  0.20945985455E+04  0.12700000000E+03 0.  0.
<mgrwt>
<rscale>  0 0.39240554E+03</rscale>
<asrwt>0</asrwt>
<pdfrwt beam="1">  1        2 0.53880348E+00 0.39240554E+03</pdfrwt>
<pdfrwt beam="2">  1       -2 0.14580882E-02 0.39240554E+03</pdfrwt>
<totfact> 0.12189670E+03</totfact>
</mgrwt>
</event>
<event>
 4    1  0.9032007E-005  0.3936510E+03  0.7818608E-02  0.1046001E+00
          2   -1    0    0  501    0  0.00000000000E+00  0.00000000000E+00  0.63268717092E+02  0.63268717143E+02  0.25500000000E-02 0.  1.
         -2   -1    0    0    0  501 -0.00000000000E+00 -0.00000000000E+00 -0.61231318933E+03  0.61231318934E+03  0.25500000000E-02 0. -1.
    5000001    1    1    2    0    0  0.13366002092E+02 -0.14962172550E+03 -0.28615687703E+03  0.34724640966E+03  0.12700000000E+03 0.  0.
   -5000001    1    1    2    0    0 -0.13366002092E+02  0.14962172550E+03 -0.26288759521E+03  0.32833549682E+03  0.12700000000E+03 0.  0.
<mgrwt>
<rscale>  0 0.39365096E+03</rscale>
<asrwt>0</asrwt>
<pdfrwt beam="1">  1        2 0.90383885E-02 0.39365096E+03</pdfrwt>
<pdfrwt beam="2">  1       -2 0.87473309E-01 0.39365096E+03</pdfrwt>
<totfact> 0.85515780E+02</totfact>
</mgrwt>
</event>
<event>
 4    1  0.9032007E-005  0.3060537E+03  0.7818608E-02  0.1082253E+00
         -2   -1    0    0    0  501 -0.00000000000E+00  0.00000000000E+00  0.91830264441E+01  0.91830267982E+01  0.25500000000E-02 0. -1.
          2   -1    0    0  501    0  0.00000000000E+00 -0.00000000000E+00 -0.25500550319E+04  0.25500550319E+04  0.25500000000E-02 0.  1.
    5000001    1    1    2    0    0  0.79321442679E+02  0.31130764947E+02 -0.12268188888E+04  0.12363149282E+04  0.12700000000E+03 0.  0.
   -5000001    1    1    2    0    0 -0.79321442679E+02 -0.31130764947E+02 -0.13140531167E+04  0.13229231305E+04  0.12700000000E+03 0.  0.
<mgrwt>
<rscale>  0 0.30605374E+03</rscale>
<asrwt>0</asrwt>
<pdfrwt beam="1">  1        2 0.36429312E+00 0.30605374E+03</pdfrwt>
<pdfrwt beam="2">  1       -2 0.13118626E-02 0.30605374E+03</pdfrwt>
<totfact> 0.67944832E+03</totfact>
</mgrwt>
</event>
<event>
 4    1  0.9032007E-005  0.4753237E+03  0.7818608E-02  0.1020428E+00
         -2   -1    0    0    0  501 -0.00000000000E+00  0.00000000000E+00  0.73488256269E+03  0.73488256270E+03  0.25500000000E-02 0. -1.
          2   -1    0    0  501    0  0.00000000000E+00 -0.00000000000E+00 -0.76860105708E+02  0.76860105751E+02  0.25500000000E-02 0.  1.
    5000001    1    1    2    0    0 -0.95536348058E+02 -0.96217676752E+02  0.58213632933E+03  0.61106197807E+03  0.12700000000E+03 0.  0.
   -5000001    1    1    2    0    0  0.95536348058E+02  0.96217676752E+02  0.75886127656E+02  0.20068069038E+03  0.12700000000E+03 0.  0.
<mgrwt>
<rscale>  0 0.47532369E+03</rscale>
<asrwt>0</asrwt>
<pdfrwt beam="1">  1        2 0.10980014E-01 0.47532369E+03</pdfrwt>
<pdfrwt beam="2">  1       -2 0.10498323E+00 0.47532369E+03</pdfrwt>
<totfact> 0.43848853E+02</totfact>
</mgrwt>
</event>
<event>
 4    1  0.9032007E-005  0.7399192E+03  0.7818608E-02  0.9651300E-01
         -2   -1    0    0    0  501 -0.00000000000E+00  0.00000000000E+00  0.54121612153E+03  0.54121612153E+03  0.25500000000E-02 0. -1.
          2   -1    0    0  501    0  0.00000000000E+00 -0.00000000000E+00 -0.25289360896E+03  0.25289360898E+03  0.25500000000E-02 0.  1.
    5000001    1    1    2    0    0  0.10939287637E+03  0.23385399682E+03 -0.10543673926E+03  0.30643172032E+03  0.12700000000E+03 0.  0.
   -5000001    1    1    2    0    0 -0.10939287637E+03 -0.23385399682E+03  0.39375925182E+03  0.48767801019E+03  0.12700000000E+03 0.  0.
<mgrwt>
<rscale>  0 0.73991918E+03</rscale>
<asrwt>0</asrwt>
<pdfrwt beam="1">  1        2 0.36127658E-01 0.73991918E+03</pdfrwt>
<pdfrwt beam="2">  1       -2 0.77316589E-01 0.73991918E+03</pdfrwt>
<totfact> 0.21727930E+02</totfact>
</mgrwt>
</event>
<event>
 4    1  0.9032007E-005  0.4708882E+03  0.7818608E-02  0.1021670E+00
          2   -1    0    0  501    0  0.00000000000E+00  0.00000000000E+00  0.15323103655E+04  0.15323103655E+04  0.25500000000E-02 0.  1.
         -2   -1    0    0    0  501 -0.00000000000E+00 -0.00000000000E+00 -0.36176690738E+02  0.36176690828E+02  0.25500000000E-02 0. -1.
    5000001    1    1    2    0    0 -0.18126986760E+03  0.65631917716E+02  0.59402864317E+03  0.63731102488E+03  0.12700000000E+03 0.  0.
   -5000001    1    1    2    0    0  0.18126986760E+03 -0.65631917716E+02  0.90210503155E+03  0.93117603141E+03  0.12700000000E+03 0.  0.
<mgrwt>
<rscale>  0 0.47088817E+03</rscale>
<asrwt>0</asrwt>
<pdfrwt beam="1">  1        2 0.21890147E+00 0.47088817E+03</pdfrwt>
<pdfrwt beam="2">  1       -2 0.51680989E-02 0.47088817E+03</pdfrwt>
<totfact> 0.27935390E+03</totfact>
</mgrwt>
</event>
<event>
 4    1  0.9032007E-005  0.6095679E+03  0.7818608E-02  0.9885752E-01
         -2   -1    0    0    0  501 -0.00000000000E+00  0.00000000000E+00  0.64742467520E+02  0.64742467570E+02  0.25500000000E-02 0. -1.
          2   -1    0    0  501    0  0.00000000000E+00 -0.00000000000E+00 -0.14348115896E+04  0.14348115896E+04  0.25500000000E-02 0.  1.
    5000001    1    1    2    0    0 -0.13805801658E+03  0.21650396195E+03 -0.94104609743E+03  0.98368223475E+03  0.12700000000E+03 0.  0.
   -5000001    1    1    2    0    0  0.13805801658E+03 -0.21650396195E+03 -0.42902302464E+03  0.51587182241E+03  0.12700000000E+03 0.  0.
<mgrwt>
<rscale>  0 0.60956786E+03</rscale>
<asrwt>0</asrwt>
<pdfrwt beam="1">  1        2 0.20497307E+00 0.60956786E+03</pdfrwt>
<pdfrwt beam="2">  1       -2 0.92489248E-02 0.60956786E+03</pdfrwt>
<totfact> 0.12501985E+03</totfact>
</mgrwt>
</event>
<event>
 4    1  0.9032007E-005  0.5840612E+03  0.7818608E-02  0.9939037E-01
         -2   -1    0    0    0  501 -0.00000000000E+00  0.00000000000E+00  0.59874944751E+02  0.59874944805E+02  0.25500000000E-02 0. -1.
          2   -1    0    0  501    0  0.00000000000E+00 -0.00000000000E+00 -0.14243331138E+04  0.14243331138E+04  0.25500000000E-02 0.  1.
    5000001    1    1    2    0    0  0.99465144737E+02 -0.10191091583E+03 -0.12043892865E+03  0.22564061097E+03  0.12700000000E+03 0.  0.
   -5000001    1    1    2    0    0 -0.99465144737E+02  0.10191091583E+03 -0.12440192404E+04  0.12585674476E+04  0.12700000000E+03 0.  0.
<mgrwt>
<rscale>  0 0.58406118E+03</rscale>
<asrwt>0</asrwt>
<pdfrwt beam="1">  1        2 0.20347614E+00 0.58406118E+03</pdfrwt>
<pdfrwt beam="2">  1       -2 0.85535645E-02 0.58406118E+03</pdfrwt>
<totfact> 0.14367793E+03</totfact>
</mgrwt>
</event>
<event>
 4    1  0.9032007E-005  0.3756385E+03  0.7818608E-02  0.1052558E+00
         -2   -1    0    0    0  501 -0.00000000000E+00  0.00000000000E+00  0.43345778273E+02  0.43345778348E+02  0.25500000000E-02 0. -1.
          2   -1    0    0  501    0  0.00000000000E+00 -0.00000000000E+00 -0.81382953080E+03  0.81382953081E+03  0.25500000000E-02 0.  1.
    5000001    1    1    2    0    0 -0.31934801376E+02  0.91290305905E+02 -0.61106300291E+03  0.63157006342E+03  0.12700000000E+03 0.  0.
   -5000001    1    1    2    0    0  0.31934801376E+02 -0.91290305905E+02 -0.15942074962E+03  0.22560524573E+03  0.12700000000E+03 0.  0.
<mgrwt>
<rscale>  0 0.37563852E+03</rscale>
<asrwt>0</asrwt>
<pdfrwt beam="1">  1        2 0.11626135E+00 0.37563852E+03</pdfrwt>
<pdfrwt beam="2">  1       -2 0.61922545E-02 0.37563852E+03</pdfrwt>
<totfact> 0.54098265E+03</totfact>
</mgrwt>
</event>
<event>
 4    1  0.9032007E-005  0.3178006E+03  0.7818608E-02  0.1076666E+00
         -2   -1    0    0    0  501 -0.00000000000E+00  0.00000000000E+00  0.61622365128E+02  0.61622365180E+02  0.25500000000E-02 0. -1.
          2   -1    0    0  501    0  0.00000000000E+00 -0.00000000000E+00 -0.40974254992E+03  0.40974254993E+03  0.25500000000E-02 0.  1.
    5000001    1    1    2    0    0 -0.85869815820E+02 -0.32081841230E+02 -0.21378783538E+03  0.26502284499E+03  0.12700000000E+03 0.  0.
   -5000001    1    1    2    0    0  0.85869815820E+02  0.32081841230E+02 -0.13433234941E+03  0.20634207012E+03  0.12700000000E+03 0.  0.
<mgrwt>
<rscale>  0 0.31780060E+03</rscale>
<asrwt>0</asrwt>
<pdfrwt beam="1">  1        2 0.58534649E-01 0.31780060E+03</pdfrwt>
<pdfrwt beam="2">  1       -2 0.88031952E-02 0.31780060E+03</pdfrwt>
<totfact> 0.68588826E+03</totfact>
</mgrwt>
</event>
<event>
 4    1  0.9032007E-005  0.7098895E+03  0.7818608E-02  0.9700468E-01
         -2   -1    0    0    0  501 -0.00000000000E+00  0.00000000000E+00  0.32607305908E+02  0.32607306008E+02  0.25500000000E-02 0. -1.
          2   -1    0    0  501    0  0.00000000000E+00 -0.00000000000E+00 -0.38637287309E+04  0.38637287309E+04  0.25500000000E-02 0.  1.
    5000001    1    1    2    0    0  0.29609901140E+03 -0.74836997138E+02 -0.12087898341E+04  0.12532266610E+04  0.12700000000E+03 0.  0.
   -5000001    1    1    2    0    0 -0.29609901140E+03  0.74836997138E+02 -0.26223315909E+04  0.26431093759E+04  0.12700000000E+03 0.  0.
<mgrwt>
<rscale>  0 0.70988953E+03</rscale>
<asrwt>0</asrwt>
<pdfrwt beam="1">  1        2 0.55196095E+00 0.70988953E+03</pdfrwt>
<pdfrwt beam="2">  1       -2 0.46581890E-02 0.70988953E+03</pdfrwt>
<totfact> 0.17640806E+02</totfact>
</mgrwt>
</event>
<event>
 4    1  0.9032007E-005  0.9657514E+03  0.7818608E-02  0.9346927E-01
          2   -1    0    0  501    0  0.00000000000E+00  0.00000000000E+00  0.73146499361E+03  0.73146499362E+03  0.25500000000E-02 0.  1.
         -2   -1    0    0    0  501 -0.00000000000E+00 -0.00000000000E+00 -0.31876976546E+03  0.31876976547E+03  0.25500000000E-02 0. -1.
    5000001    1    1    2    0    0  0.24411547118E+03  0.32058432590E+03 -0.47930222382E+02  0.42519757702E+03  0.12700000000E+03 0.  0.
   -5000001    1    1    2    0    0 -0.24411547118E+03 -0.32058432590E+03  0.46062545054E+03  0.62503718207E+03  0.12700000000E+03 0.  0.
<mgrwt>
<rscale>  0 0.96575136E+03</rscale>
<asrwt>0</asrwt>
<pdfrwt beam="1">  1        2 0.10449500E+00 0.96575136E+03</pdfrwt>
<pdfrwt beam="2">  1       -2 0.45538538E-01 0.96575136E+03</pdfrwt>
<totfact> 0.19469423E+02</totfact>
</mgrwt>
</event>
<event>
 4    1  0.9032007E-005  0.3008514E+03  0.7818608E-02  0.1084816E+00
         -2   -1    0    0    0  501 -0.00000000000E+00  0.00000000000E+00  0.46942178335E+03  0.46942178336E+03  0.25500000000E-02 0. -1.
          2   -1    0    0  501    0  0.00000000000E+00 -0.00000000000E+00 -0.48203763034E+02  0.48203763101E+02  0.25500000000E-02 0.  1.
    5000001    1    1    2    0    0 -0.30720845550E+02  0.69977494937E+02  0.25475260708E+03  0.29473464500E+03  0.12700000000E+03 0.  0.
   -5000001    1    1    2    0    0  0.30720845550E+02 -0.69977494937E+02  0.16646541323E+03  0.22289090146E+03  0.12700000000E+03 0.  0.
<mgrwt>
<rscale>  0 0.30085143E+03</rscale>
<asrwt>0</asrwt>
<pdfrwt beam="1">  1        2 0.68862513E-02 0.30085143E+03</pdfrwt>
<pdfrwt beam="2">  1       -2 0.67060261E-01 0.30085143E+03</pdfrwt>
<totfact> 0.21608664E+03</totfact>
</mgrwt>
</event>
<event>
 4    1  0.9032007E-005  0.3959904E+03  0.7818608E-02  0.1045177E+00
         -2   -1    0    0    0  501 -0.00000000000E+00  0.00000000000E+00  0.24178145814E+02  0.24178145948E+02  0.25500000000E-02 0. -1.
          2   -1    0    0  501    0  0.00000000000E+00 -0.00000000000E+00 -0.16213852804E+04  0.16213852804E+04  0.25500000000E-02 0.  1.
    5000001    1    1    2    0    0 -0.29642412109E+02  0.10814699013E+03 -0.37281238616E+03  0.40950277086E+03  0.12700000000E+03 0.  0.
   -5000001    1    1    2    0    0  0.29642412109E+02 -0.10814699013E+03 -0.12243947484E+04  0.12360606555E+04  0.12700000000E+03 0.  0.
<mgrwt>
<rscale>  0 0.39599035E+03</rscale>
<asrwt>0</asrwt>
<pdfrwt beam="1">  1        2 0.23162640E+00 0.39599035E+03</pdfrwt>
<pdfrwt beam="2">  1       -2 0.34540219E-02 0.39599035E+03</pdfrwt>
<totfact> 0.46595258E+03</totfact>
</mgrwt>
</event>
<event>
 4    1  0.9032007E-005  0.8850269E+03  0.7818608E-02  0.9444495E-01
         -2   -1    0    0    0  501 -0.00000000000E+00  0.00000000000E+00  0.35488922729E+03  0.35488922730E+03  0.25500000000E-02 0. -1.
          2   -1    0    0  501    0  0.00000000000E+00 -0.00000000000E+00 -0.55177254964E+03  0.55177254964E+03  0.25500000000E-02 0.  1.
    5000001    1    1    2    0    0  0.19763493733E+03 -0.23592560073E+03 -0.39706124371E+03  0.51817669649E+03  0.12700000000E+03 0.  0.
   -5000001    1    1    2    0    0 -0.19763493733E+03  0.23592560073E+03  0.20017792136E+03  0.38848508045E+03  0.12700000000E+03 0.  0.
<mgrwt>
<rscale>  0 0.88502686E+03</rscale>
<asrwt>0</asrwt>
<pdfrwt beam="1">  1        2 0.78824650E-01 0.88502686E+03</pdfrwt>
<pdfrwt beam="2">  1       -2 0.50698461E-01 0.88502686E+03</pdfrwt>
<totfact> 0.22108239E+02</totfact>
</mgrwt>
</event>
<event>
 4    1  0.9032007E-005  0.4600629E+03  0.7818608E-02  0.1024763E+00
          2   -1    0    0  501    0  0.00000000000E+00  0.00000000000E+00  0.32175188802E+03  0.32175188803E+03  0.25500000000E-02 0.  1.
         -2   -1    0    0    0  501 -0.00000000000E+00 -0.00000000000E+00 -0.16445736698E+03  0.16445736700E+03  0.25500000000E-02 0. -1.
    5000001    1    1    2    0    0  0.15337119187E+03  0.59322562872E+02  0.18296670626E+03  0.27685321844E+03  0.12700000000E+03 0.  0.
   -5000001    1    1    2    0    0 -0.15337119187E+03 -0.59322562872E+02 -0.25672185218E+02  0.20935603659E+03  0.12700000000E+03 0.  0.
<mgrwt>
<rscale>  0 0.46006290E+03</rscale>
<asrwt>0</asrwt>
<pdfrwt beam="1">  1        2 0.45964554E-01 0.46006290E+03</pdfrwt>
<pdfrwt beam="2">  1       -2 0.23493910E-01 0.46006290E+03</pdfrwt>
<totfact> 0.17572093E+03</totfact>
</mgrwt>
</event>
<event>
 4    1  0.9032007E-005  0.1005933E+04  0.7818608E-02  0.9302061E-01
          2   -1    0    0  501    0  0.00000000000E+00  0.00000000000E+00  0.52828858264E+03  0.52828858265E+03  0.25500000000E-02 0.  1.
         -2   -1    0    0    0  501 -0.00000000000E+00 -0.00000000000E+00 -0.47885858263E+03  0.47885858264E+03  0.25500000000E-02 0. -1.
    5000001    1    1    2    0    0 -0.41293803866E+03 -0.13755770983E+03  0.24270821521E+03  0.51427252020E+03  0.12700000000E+03 0.  0.
   -5000001    1    1    2    0    0  0.41293803866E+03  0.13755770983E+03 -0.19327821520E+03  0.49287464509E+03  0.12700000000E+03 0.  0.
<mgrwt>
<rscale>  0 0.10059334E+04</rscale>
<asrwt>0</asrwt>
<pdfrwt beam="1">  1        2 0.75469798E-01 0.10059334E+04</pdfrwt>
<pdfrwt beam="2">  1       -2 0.68408368E-01 0.10059334E+04</pdfrwt>
<totfact> 0.12302612E+02</totfact>
</mgrwt>
</event>
<event>
 4    1  0.9032007E-005  0.5797449E+03  0.7818608E-02  0.9948343E-01
         -2   -1    0    0    0  501 -0.00000000000E+00  0.00000000000E+00  0.49623154515E+02  0.49623154580E+02  0.25500000000E-02 0. -1.
          2   -1    0    0  501    0  0.00000000000E+00 -0.00000000000E+00 -0.16932830283E+04  0.16932830283E+04  0.25500000000E-02 0.  1.
    5000001    1    1    2    0    0  0.81471643945E+02  0.20938044515E+03 -0.12186117218E+04  0.12456409306E+04  0.12700000000E+03 0.  0.
   -5000001    1    1    2    0    0 -0.81471643945E+02 -0.20938044515E+03 -0.42504815198E+03  0.49726525224E+03  0.12700000000E+03 0.  0.
<mgrwt>
<rscale>  0 0.57974493E+03</rscale>
<asrwt>0</asrwt>
<pdfrwt beam="1">  1        2 0.24189754E+00 0.57974493E+03</pdfrwt>
<pdfrwt beam="2">  1       -2 0.70890232E-02 0.57974493E+03</pdfrwt>
<totfact> 0.14065639E+03</totfact>
</mgrwt>
</event>
<event>
 4    1  0.9032007E-005  0.3598779E+03  0.7818608E-02  0.1058632E+00
          2   -1    0    0  501    0  0.00000000000E+00  0.00000000000E+00  0.82201153120E+03  0.82201153121E+03  0.25500000000E-02 0.  1.
         -2   -1    0    0    0  501 -0.00000000000E+00 -0.00000000000E+00 -0.39388778759E+02  0.39388778842E+02  0.25500000000E-02 0. -1.
    5000001    1    1    2    0    0  0.12154998628E+03 -0.25186188934E+02  0.46069606793E+03  0.49373941536E+03  0.12700000000E+03 0.  0.
   -5000001    1    1    2    0    0 -0.12154998628E+03  0.25186188934E+02  0.32192668452E+03  0.36766089469E+03  0.12700000000E+03 0.  0.
<mgrwt>
<rscale>  0 0.35987793E+03</rscale>
<asrwt>0</asrwt>
<pdfrwt beam="1">  1        2 0.11743021E+00 0.35987793E+03</pdfrwt>
<pdfrwt beam="2">  1       -2 0.56269688E-02 0.35987793E+03</pdfrwt>
<totfact> 0.61880151E+03</totfact>
</mgrwt>
</event>
<event>
 4    1  0.9032007E-005  0.4963264E+03  0.7818608E-02  0.1014742E+00
         -2   -1    0    0    0  501 -0.00000000000E+00  0.00000000000E+00  0.57461040199E+02  0.57461040256E+02  0.25500000000E-02 0. -1.
          2   -1    0    0  501    0  0.00000000000E+00 -0.00000000000E+00 -0.10717693533E+04  0.10717693533E+04  0.25500000000E-02 0.  1.
    5000001    1    1    2    0    0  0.19592821801E+03  0.15591321599E+02 -0.31919334597E+03  0.39578320838E+03  0.12700000000E+03 0.  0.
   -5000001    1    1    2    0    0 -0.19592821801E+03 -0.15591321599E+02 -0.69511496711E+03  0.73344718516E+03  0.12700000000E+03 0.  0.
<mgrwt>
<rscale>  0 0.49632643E+03</rscale>
<asrwt>0</asrwt>
<pdfrwt beam="1">  1        2 0.15310990E+00 0.49632643E+03</pdfrwt>
<pdfrwt beam="2">  1       -2 0.82087207E-02 0.49632643E+03</pdfrwt>
<totfact> 0.24054405E+03</totfact>
</mgrwt>
</event>
<event>
 4    1  0.9032007E-005  0.4499058E+03  0.7818608E-02  0.1027750E+00
         -2   -1    0    0    0  501 -0.00000000000E+00  0.00000000000E+00  0.39514428601E+02  0.39514428684E+02  0.25500000000E-02 0.  1.
          2   -1    0    0  501    0  0.00000000000E+00 -0.00000000000E+00 -0.12806412719E+04  0.12806412719E+04  0.25500000000E-02 0. -1.
    5000001    1    1    2    0    0  0.15725369974E+02 -0.18168960205E+03 -0.51822388567E+03  0.56386469515E+03  0.12700000000E+03 0.  0.
   -5000001    1    1    2    0    0 -0.15725369974E+02  0.18168960205E+03 -0.72290295759E+03  0.75629100540E+03  0.12700000000E+03 0.  0.
<mgrwt>
<rscale>  0 0.44990580E+03</rscale>
<asrwt>0</asrwt>
<pdfrwt beam="1">  1        2 0.18294873E+00 0.44990580E+03</pdfrwt>
<pdfrwt beam="2">  1       -2 0.56449192E-02 0.44990580E+03</pdfrwt>
<totfact> 0.33054344E+03</totfact>
</mgrwt>
</event>
<event>
 4    1  0.9032007E-005  0.2943907E+03  0.7818608E-02  0.1088079E+00
         -2   -1    0    0    0  501 -0.00000000000E+00  0.00000000000E+00  0.44847829477E+01  0.44847836727E+01  0.25500000000E-02 0. -1.
          2   -1    0    0  501    0  0.00000000000E+00 -0.00000000000E+00 -0.48311090304E+04  0.48311090304E+04  0.25500000000E-02 0.  1.
    5000001    1    1    2    0    0 -0.48293715412E+02  0.14988771854E+02 -0.33100643882E+04  0.33128857814E+04  0.12700000000E+03 0.  0.
   -5000001    1    1    2    0    0  0.48293715412E+02 -0.14988771854E+02 -0.15165598592E+04  0.15227080327E+04  0.12700000000E+03 0.  0.
<mgrwt>
<rscale>  0 0.29439074E+03</rscale>
<asrwt>0</asrwt>
<pdfrwt beam="1">  1        2 0.69015510E+00 0.29439074E+03</pdfrwt>
<pdfrwt beam="2">  1       -2 0.64068643E-03 0.29439074E+03</pdfrwt>
<totfact> 0.70710304E+02</totfact>
</mgrwt>
</event>
<event>
 4    1  0.9032007E-005  0.3866891E+03  0.7818608E-02  0.1048489E+00
         -2   -1    0    0    0  501 -0.00000000000E+00  0.00000000000E+00  0.10264790598E+02  0.10264790915E+02  0.25500000000E-02 0. -1.
          2   -1    0    0  501    0  0.00000000000E+00 -0.00000000000E+00 -0.36417801709E+04  0.36417801709E+04  0.25500000000E-02 0.  1.
    5000001    1    1    2    0    0 -0.11092225940E+03 -0.43415587394E+02 -0.10219534731E+04  0.10366805496E+04  0.12700000000E+03 0.  0.
   -5000001    1    1    2    0    0  0.11092225940E+03  0.43415587394E+02 -0.26095619072E+04  0.26153644122E+04  0.12700000000E+03 0.  0.
<mgrwt>
<rscale>  0 0.38668908E+03</rscale>
<asrwt>0</asrwt>
<pdfrwt beam="1">  1        2 0.52025348E+00 0.38668908E+03</pdfrwt>
<pdfrwt beam="2">  1       -2 0.14664010E-02 0.38668908E+03</pdfrwt>
<totfact> 0.14530649E+03</totfact>
</mgrwt>
</event>
<event>
 4    1  0.9032007E-005  0.4853416E+03  0.7818608E-02  0.1017677E+00
         -2   -1    0    0    0  501 -0.00000000000E+00  0.00000000000E+00  0.76639486336E+02  0.76639486378E+02  0.25500000000E-02 0. -1.
          2   -1    0    0  501    0  0.00000000000E+00 -0.00000000000E+00 -0.76839129280E+03  0.76839129280E+03  0.25500000000E-02 0.  1.
    5000001    1    1    2    0    0  0.88510898629E+02  0.78042801276E+02 -0.64153206035E+03  0.66454288234E+03  0.12700000000E+03 0.  0.
   -5000001    1    1    2    0    0 -0.88510898629E+02 -0.78042801276E+02 -0.50219746111E+02  0.18048789684E+03  0.12700000000E+03 0.  0.
<mgrwt>
<rscale>  0 0.48534159E+03</rscale>
<asrwt>0</asrwt>
<pdfrwt beam="1">  1        2 0.10977018E+00 0.48534159E+03</pdfrwt>
<pdfrwt beam="2">  1       -2 0.10948498E-01 0.48534159E+03</pdfrwt>
<totfact> 0.23628593E+03</totfact>
</mgrwt>
</event>
<event>
 4    1  0.9032007E-005  0.4103387E+03  0.7818608E-02  0.1040257E+00
         -2   -1    0    0    0  501 -0.00000000000E+00  0.00000000000E+00  0.21060435924E+02  0.21060436079E+02  0.25500000000E-02 0. -1.
          2   -1    0    0  501    0  0.00000000000E+00 -0.00000000000E+00 -0.19987458845E+04  0.19987458845E+04  0.25500000000E-02 0.  1.
    5000001    1    1    2    0    0  0.16780829631E+02 -0.79031097675E+02 -0.30257672614E+03  0.33794849585E+03  0.12700000000E+03 0.  0.
   -5000001    1    1    2    0    0 -0.16780829631E+02  0.79031097675E+02 -0.16751087225E+04  0.16818578248E+04  0.12700000000E+03 0.  0.
<mgrwt>
<rscale>  0 0.41033869E+03</rscale>
<asrwt>0</asrwt>
<pdfrwt beam="1">  1        2 0.28553501E+00 0.41033869E+03</pdfrwt>
<pdfrwt beam="2">  1       -2 0.30086350E-02 0.41033869E+03</pdfrwt>
<totfact> 0.37219538E+03</totfact>
</mgrwt>
</event>
<event>
 4    1  0.9032007E-005  0.3606818E+03  0.7818608E-02  0.1058314E+00
          2   -1    0    0  501    0  0.00000000000E+00  0.00000000000E+00  0.38410187490E+03  0.38410187490E+03  0.25500000000E-02 0.  1.
         -2   -1    0    0    0  501 -0.00000000000E+00 -0.00000000000E+00 -0.84672439829E+02  0.84672439868E+02  0.25500000000E-02 0. -1.
    5000001    1    1    2    0    0  0.15737948248E+02  0.12667240143E+03  0.16272866494E+03  0.24269981189E+03  0.12700000000E+03 0.  0.
   -5000001    1    1    2    0    0 -0.15737948248E+02 -0.12667240143E+03  0.13670077012E+03  0.22607450288E+03  0.12700000000E+03 0.  0.
<mgrwt>
<rscale>  0 0.36068181E+03</rscale>
<asrwt>0</asrwt>
<pdfrwt beam="1">  1        2 0.54871695E-01 0.36068181E+03</pdfrwt>
<pdfrwt beam="2">  1       -2 0.12096063E-01 0.36068181E+03</pdfrwt>
<totfact> 0.44385851E+03</totfact>
</mgrwt>
</event>
<event>
 4    1  0.9032007E-005  0.3363491E+03  0.7818608E-02  0.1068362E+00
          2   -1    0    0  501    0  0.00000000000E+00  0.00000000000E+00  0.20883414327E+04  0.20883414327E+04  0.25500000000E-02 0.  1.
         -2   -1    0    0    0  501 -0.00000000000E+00 -0.00000000000E+00 -0.13543125869E+02  0.13543126109E+02  0.25500000000E-02 0. -1.
    5000001    1    1    2    0    0  0.33420554203E+02 -0.80565768027E+02  0.61606337581E+03  0.63503610877E+03  0.12700000000E+03 0.  0.
   -5000001    1    1    2    0    0 -0.33420554203E+02  0.80565768027E+02  0.14587349310E+04  0.14668484500E+04  0.12700000000E+03 0.  0.
<mgrwt>
<rscale>  0 0.33634905E+03</rscale>
<asrwt>0</asrwt>
<pdfrwt beam="1">  1        2 0.29833427E+00 0.33634905E+03</pdfrwt>
<pdfrwt beam="2">  1       -2 0.19347337E-02 0.33634905E+03</pdfrwt>
<totfact> 0.65005503E+03</totfact>
</mgrwt>
</event>
<event>
 4    1  0.9032007E-005  0.5025875E+03  0.7818608E-02  0.1013106E+00
          2   -1    0    0  501    0  0.00000000000E+00  0.00000000000E+00  0.27039790139E+03  0.27039790140E+03  0.25500000000E-02 0.  1.
         -2   -1    0    0    0  501 -0.00000000000E+00 -0.00000000000E+00 -0.23353939126E+03  0.23353939127E+03  0.25500000000E-02 0. -1.
    5000001    1    1    2    0    0  0.48848396967E+02 -0.19426599543E+03  0.10168306982E+03  0.25805791899E+03  0.12700000000E+03 0.  0.
   -5000001    1    1    2    0    0 -0.48848396967E+02  0.19426599543E+03 -0.64824559691E+02  0.24587937369E+03  0.12700000000E+03 0.  0.
<mgrwt>
<rscale>  0 0.50258755E+03</rscale>
<asrwt>0</asrwt>
<pdfrwt beam="1">  1        2 0.38628272E-01 0.50258755E+03</pdfrwt>
<pdfrwt beam="2">  1       -2 0.33362770E-01 0.50258755E+03</pdfrwt>
<totfact> 0.11239960E+03</totfact>
</mgrwt>
</event>
<event>
 4    1  0.9032007E-005  0.3837302E+03  0.7818608E-02  0.1049564E+00
         -2   -1    0    0    0  501 -0.00000000000E+00  0.00000000000E+00  0.13908091890E+02  0.13908092124E+02  0.25500000000E-02 0. -1.
          2   -1    0    0  501    0  0.00000000000E+00 -0.00000000000E+00 -0.26468206185E+04  0.26468206185E+04  0.25500000000E-02 0.  1.
    5000001    1    1    2    0    0 -0.56932285596E+02 -0.12241456437E+03 -0.97278515182E+03  0.99028610124E+03  0.12700000000E+03 0.  0.
   -5000001    1    1    2    0    0  0.56932285596E+02  0.12241456437E+03 -0.16601273748E+04  0.16704426094E+04  0.12700000000E+03 0.  0.
<mgrwt>
<rscale>  0 0.38373024E+03</rscale>
<asrwt>0</asrwt>
<pdfrwt beam="1">  1        2 0.37811691E+00 0.38373024E+03</pdfrwt>
<pdfrwt beam="2">  1       -2 0.19868720E-02 0.38373024E+03</pdfrwt>
<totfact> 0.32815437E+03</totfact>
</mgrwt>
</event>
<event>
 4    1  0.9032007E-005  0.3113328E+03  0.7818608E-02  0.1079709E+00
          2   -1    0    0  501    0  0.00000000000E+00  0.00000000000E+00  0.17977741769E+02  0.17977741949E+02  0.25500000000E-02 0.  1.
         -2   -1    0    0    0  501 -0.00000000000E+00 -0.00000000000E+00 -0.13478901320E+04  0.13478901320E+04  0.25500000000E-02 0. -1.
    5000001    1    1    2    0    0  0.82877263903E+01  0.87848443569E+02 -0.74306563269E+03  0.75898720011E+03  0.12700000000E+03 0.  0.
   -5000001    1    1    2    0    0 -0.82877263903E+01 -0.87848443569E+02 -0.58684675756E+03  0.60688067386E+03  0.12700000000E+03 0.  0.
<mgrwt>
<rscale>  0 0.31133275E+03</rscale>
<asrwt>0</asrwt>
<pdfrwt beam="1">  1        2 0.25682497E-02 0.31133275E+03</pdfrwt>
<pdfrwt beam="2">  1       -2 0.19255567E+00 0.31133275E+03</pdfrwt>
<totfact> 0.62582604E+02</totfact>
</mgrwt>
</event>
<event>
 4    1  0.9032007E-005  0.4443553E+03  0.7818608E-02  0.1029419E+00
          2   -1    0    0  501    0  0.00000000000E+00  0.00000000000E+00  0.33939280493E+04  0.33939280493E+04  0.25500000000E-02 0.  1.
         -2   -1    0    0    0  501 -0.00000000000E+00 -0.00000000000E+00 -0.14544473835E+02  0.14544474058E+02  0.25500000000E-02 0. -1.
    5000001    1    1    2    0    0  0.12146807864E+02  0.18161977365E+03  0.16127517938E+04  0.16279528972E+04  0.12700000000E+03 0.  0.
   -5000001    1    1    2    0    0 -0.12146807864E+02 -0.18161977365E+03  0.17666317818E+04  0.17805196262E+04  0.12700000000E+03 0.  0.
<mgrwt>
<rscale>  0 0.44435525E+03</rscale>
<asrwt>0</asrwt>
<pdfrwt beam="1">  1        2 0.48484630E+00 0.44435525E+03</pdfrwt>
<pdfrwt beam="2">  1       -2 0.20777844E-02 0.44435525E+03</pdfrwt>
<totfact> 0.12043517E+03</totfact>
</mgrwt>
</event>
<event>
 4    1  0.9032007E-005  0.3698796E+03  0.7818608E-02  0.1054739E+00
         -2   -1    0    0    0  501 -0.00000000000E+00  0.00000000000E+00  0.24906501490E+03  0.24906501492E+03  0.25500000000E-02 0. -1.
          2   -1    0    0  501    0  0.00000000000E+00 -0.00000000000E+00 -0.13732450841E+03  0.13732450843E+03  0.25500000000E-02 0.  1.
    5000001    1    1    2    0    0  0.60607367211E+02  0.11473447797E+03  0.19137114635E+02  0.18257185586E+03  0.12700000000E+03 0.  0.
   -5000001    1    1    2    0    0 -0.60607367211E+02 -0.11473447797E+03  0.92603391861E+02  0.20381766749E+03  0.12700000000E+03 0.  0.
<mgrwt>
<rscale>  0 0.36987961E+03</rscale>
<asrwt>0</asrwt>
<pdfrwt beam="1">  1        2 0.19617787E-01 0.36987961E+03</pdfrwt>
<pdfrwt beam="2">  1       -2 0.35580716E-01 0.36987961E+03</pdfrwt>
<totfact> 0.21281725E+03</totfact>
</mgrwt>
</event>
<event>
 4    1  0.9032007E-005  0.3767382E+03  0.7818608E-02  0.1052146E+00
         -2   -1    0    0    0  501 -0.00000000000E+00  0.00000000000E+00  0.12228995148E+02  0.12228995414E+02  0.25500000000E-02 0. -1.
          2   -1    0    0  501    0  0.00000000000E+00 -0.00000000000E+00 -0.29015398345E+04  0.29015398345E+04  0.25500000000E-02 0.  1.
    5000001    1    1    2    0    0  0.12586049585E+03  0.22889292609E+01 -0.98658349202E+03  0.10026575140E+04  0.12700000000E+03 0.  0.
   -5000001    1    1    2    0    0 -0.12586049585E+03 -0.22889292609E+01 -0.19027273473E+04  0.19111113160E+04  0.12700000000E+03 0.  0.
<mgrwt>
<rscale>  0 0.37673820E+03</rscale>
<asrwt>0</asrwt>
<pdfrwt beam="1">  1        2 0.41450525E+00 0.37673820E+03</pdfrwt>
<pdfrwt beam="2">  1       -2 0.17470012E-02 0.37673820E+03</pdfrwt>
<totfact> 0.29285847E+03</totfact>
</mgrwt>
</event>
<event>
 4    1  0.9032007E-005  0.4437495E+03  0.7818608E-02  0.1029603E+00
         -2   -1    0    0    0  501 -0.00000000000E+00  0.00000000000E+00  0.27221995563E+03  0.27221995565E+03  0.25500000000E-02 0.  1.
          2   -1    0    0  501    0  0.00000000000E+00 -0.00000000000E+00 -0.18084055422E+03  0.18084055424E+03  0.25500000000E-02 0. -1.
    5000001    1    1    2    0    0  0.14937012144E+03 -0.55572682693E+02  0.13527852793E+03  0.24459974726E+03  0.12700000000E+03 0.  0.
   -5000001    1    1    2    0    0 -0.14937012144E+03  0.55572682693E+02 -0.43899126518E+02  0.20846076262E+03  0.12700000000E+03 0.  0.
<mgrwt>
<rscale>  0 0.44374951E+03</rscale>
<asrwt>0</asrwt>
<pdfrwt beam="1">  1        2 0.25834365E-01 0.44374951E+03</pdfrwt>
<pdfrwt beam="2">  1       -2 0.38888565E-01 0.44374951E+03</pdfrwt>
<totfact> 0.13148071E+03</totfact>
</mgrwt>
</event>
<event>
 4    1  0.9032007E-005  0.4009042E+03  0.7818608E-02  0.1043467E+00
         -2   -1    0    0    0  501 -0.00000000000E+00  0.00000000000E+00  0.15428675998E+03  0.15428676000E+03  0.25500000000E-02 0. -1.
          2   -1    0    0  501    0  0.00000000000E+00 -0.00000000000E+00 -0.26043092200E+03  0.26043092202E+03  0.25500000000E-02 0.  1.
    5000001    1    1    2    0    0 -0.37505979698E+02  0.13460181108E+03  0.16534553453E+02  0.18954349769E+03  0.12700000000E+03 0.  0.
   -5000001    1    1    2    0    0  0.37505979698E+02 -0.13460181108E+03 -0.12267871548E+03  0.22517418433E+03  0.12700000000E+03 0.  0.
<mgrwt>
<rscale>  0 0.40090419E+03</rscale>
<asrwt>0</asrwt>
<pdfrwt beam="1">  1        2 0.37204417E-01 0.40090419E+03</pdfrwt>
<pdfrwt beam="2">  1       -2 0.22040966E-01 0.40090419E+03</pdfrwt>
<totfact> 0.24737628E+03</totfact>
</mgrwt>
</event>
<event>
 4    1  0.9032007E-005  0.4024324E+03  0.7818608E-02  0.1042941E+00
         -2   -1    0    0    0  501 -0.00000000000E+00  0.00000000000E+00  0.10769087940E+02  0.10769088242E+02  0.25500000000E-02 0. -1.
          2   -1    0    0  501    0  0.00000000000E+00 -0.00000000000E+00 -0.37596450917E+04  0.37596450917E+04  0.25500000000E-02 0.  1.
    5000001    1    1    2    0    0  0.15087352627E+03 -0.29427916592E+02 -0.16212780080E+04  0.16334932514E+04  0.12700000000E+03 0.  0.
   -5000001    1    1    2    0    0 -0.15087352627E+03  0.29427916592E+02 -0.21275979957E+04  0.21369209285E+04  0.12700000000E+03 0.  0.
<mgrwt>
<rscale>  0 0.40243235E+03</rscale>
<asrwt>0</asrwt>
<pdfrwt beam="1">  1        2 0.53709132E+00 0.40243235E+03</pdfrwt>
<pdfrwt beam="2">  1       -2 0.15384436E-02 0.40243235E+03</pdfrwt>
<totfact> 0.11438905E+03</totfact>
</mgrwt>
</event>
<event>
 4    1  0.9032007E-005  0.3913226E+03  0.7818608E-02  0.1046826E+00
         -2   -1    0    0    0  501 -0.00000000000E+00  0.00000000000E+00  0.12302497843E+03  0.12302497845E+03  0.25500000000E-02 0. -1.
          2   -1    0    0  501    0  0.00000000000E+00 -0.00000000000E+00 -0.31118352228E+03  0.31118352229E+03  0.25500000000E-02 0.  1.
    5000001    1    1    2    0    0  0.31429694395E+02 -0.14112312651E+03 -0.54836970445E+02  0.20009911507E+03  0.12700000000E+03 0.  0.
   -5000001    1    1    2    0    0 -0.31429694395E+02  0.14112312651E+03 -0.13332157341E+03  0.23410938567E+03  0.12700000000E+03 0.  0.
<mgrwt>
<rscale>  0 0.39132261E+03</rscale>
<asrwt>0</asrwt>
<pdfrwt beam="1">  1        2 0.44454789E-01 0.39132261E+03</pdfrwt>
<pdfrwt beam="2">  1       -2 0.17574997E-01 0.39132261E+03</pdfrwt>
<totfact> 0.30068494E+03</totfact>
</mgrwt>
</event>
<event>
 4    1  0.9032007E-005  0.5311967E+03  0.7818608E-02  0.1005942E+00
         -2   -1    0    0    0  501 -0.00000000000E+00  0.00000000000E+00  0.18994046444E+03  0.18994046446E+03  0.25500000000E-02 0. -1.
          2   -1    0    0  501    0  0.00000000000E+00 -0.00000000000E+00 -0.37139255810E+03  0.37139255811E+03  0.25500000000E-02 0.  1.
    5000001    1    1    2    0    0 -0.22472507215E+03  0.26179096785E+02 -0.15075342538E+03  0.30007048909E+03  0.12700000000E+03 0.  0.
   -5000001    1    1    2    0    0  0.22472507215E+03 -0.26179096785E+02 -0.30698668279E+02  0.26126253347E+03  0.12700000000E+03 0.  0.
<mgrwt>
<rscale>  0 0.53119667E+03</rscale>
<asrwt>0</asrwt>
<pdfrwt beam="1">  1        2 0.53056079E-01 0.53119667E+03</pdfrwt>
<pdfrwt beam="2">  1       -2 0.27134352E-01 0.53119667E+03</pdfrwt>
<totfact> 0.11602522E+03</totfact>
</mgrwt>
</event>
<event>
 4    1  0.9032007E-005  0.3003707E+03  0.7818608E-02  0.1085055E+00
          2   -1    0    0  501    0  0.00000000000E+00  0.00000000000E+00  0.22136857647E+04  0.22136857647E+04  0.25500000000E-02 0.  1.
         -2   -1    0    0    0  501 -0.00000000000E+00 -0.00000000000E+00 -0.10189180402E+02  0.10189180721E+02  0.25500000000E-02 0. -1.
    5000001    1    1    2    0    0 -0.77268490262E+02  0.16480367610E+02  0.10011491414E+04  0.10122601570E+04  0.12700000000E+03 0.  0.
   -5000001    1    1    2    0    0  0.77268490262E+02 -0.16480367610E+02  0.12023474430E+04  0.12116147885E+04  0.12700000000E+03 0.  0.
<mgrwt>
<rscale>  0 0.30037073E+03</rscale>
<asrwt>0</asrwt>
<pdfrwt beam="1">  1        2 0.31624072E+00 0.30037073E+03</pdfrwt>
<pdfrwt beam="2">  1       -2 0.14555977E-02 0.30037073E+03</pdfrwt>
<totfact> 0.85716507E+03</totfact>
</mgrwt>
</event>
<event>
 4    1  0.9032007E-005  0.4847515E+03  0.7818608E-02  0.1017837E+00
          2   -1    0    0  501    0  0.00000000000E+00  0.00000000000E+00  0.23459961660E+03  0.23459961661E+03  0.25500000000E-02 0.  1.
         -2   -1    0    0    0  501 -0.00000000000E+00 -0.00000000000E+00 -0.25040958833E+03  0.25040958834E+03  0.25500000000E-02 0. -1.
    5000001    1    1    2    0    0 -0.17556544699E+03  0.85462433777E+02 -0.74947626471E+02  0.24469000895E+03  0.12700000000E+03 0.  0.
   -5000001    1    1    2    0    0  0.17556544699E+03 -0.85462433777E+02  0.59137654739E+02  0.24031919601E+03  0.12700000000E+03 0.  0.
<mgrwt>
<rscale>  0 0.48475146E+03</rscale>
<asrwt>0</asrwt>
<pdfrwt beam="1">  1        2 0.33514231E-01 0.48475146E+03</pdfrwt>
<pdfrwt beam="2">  1       -2 0.35772798E-01 0.48475146E+03</pdfrwt>
<totfact> 0.11529981E+03</totfact>
</mgrwt>
</event>
<event>
 4    1  0.9032007E-005  0.4619617E+03  0.7818608E-02  0.1024214E+00
          2   -1    0    0  501    0  0.00000000000E+00  0.00000000000E+00  0.19646947344E+03  0.19646947345E+03  0.25500000000E-02 0.  1.
         -2   -1    0    0    0  501 -0.00000000000E+00 -0.00000000000E+00 -0.27155442818E+03  0.27155442819E+03  0.25500000000E-02 0. -1.
    5000001    1    1    2    0    0 -0.12305496747E+03  0.14469800371E+03 -0.32887665869E+01  0.22851663677E+03  0.12700000000E+03 0.  0.
   -5000001    1    1    2    0    0  0.12305496747E+03 -0.14469800371E+03 -0.71796188159E+02  0.23950726488E+03  0.12700000000E+03 0.  0.
<mgrwt>
<rscale>  0 0.46196171E+03</rscale>
<asrwt>0</asrwt>
<pdfrwt beam="1">  1        2 0.28067068E-01 0.46196171E+03</pdfrwt>
<pdfrwt beam="2">  1       -2 0.38793490E-01 0.46196171E+03</pdfrwt>
<totfact> 0.12035556E+03</totfact>
</mgrwt>
</event>
<event>
 4    1  0.9032007E-005  0.3493295E+03  0.7818608E-02  0.1062891E+00
         -2   -1    0    0    0  501 -0.00000000000E+00  0.00000000000E+00  0.38241728466E+02  0.38241728551E+02  0.25500000000E-02 0. -1.
          2   -1    0    0  501    0  0.00000000000E+00 -0.00000000000E+00 -0.79776136710E+03  0.79776136711E+03  0.25500000000E-02 0.  1.
    5000001    1    1    2    0    0 -0.98574408312E+02 -0.40723498114E+02 -0.51091434900E+03  0.53715713649E+03  0.12700000000E+03 0.  0.
   -5000001    1    1    2    0    0  0.98574408312E+02  0.40723498114E+02 -0.24860528964E+03  0.29884595917E+03  0.12700000000E+03 0.  0.
<mgrwt>
<rscale>  0 0.34932949E+03</rscale>
<asrwt>0</asrwt>
<pdfrwt beam="1">  1        2 0.11396590E+00 0.34932949E+03</pdfrwt>
<pdfrwt beam="2">  1       -2 0.54631045E-02 0.34932949E+03</pdfrwt>
<totfact> 0.67197575E+03</totfact>
</mgrwt>
</event>
<event>
 4    1  0.9032007E-005  0.4234326E+03  0.7818608E-02  0.1035955E+00
          2   -1    0    0  501    0  0.00000000000E+00  0.00000000000E+00  0.69208998095E+03  0.69208998095E+03  0.25500000000E-02 0.  1.
         -2   -1    0    0    0  501 -0.00000000000E+00 -0.00000000000E+00 -0.64765842724E+02  0.64765842775E+02  0.25500000000E-02 0. -1.
    5000001    1    1    2    0    0  0.36851519262E+01  0.92758200097E+02  0.56692967856E+03  0.58835017163E+03  0.12700000000E+03 0.  0.
   -5000001    1    1    2    0    0 -0.36851519262E+01 -0.92758200097E+02  0.60394459667E+02  0.16850565210E+03  0.12700000000E+03 0.  0.
<mgrwt>
<rscale>  0 0.42343260E+03</rscale>
<asrwt>0</asrwt>
<pdfrwt beam="1">  1        2 0.98869995E-01 0.42343260E+03</pdfrwt>
<pdfrwt beam="2">  1       -2 0.92522635E-02 0.42343260E+03</pdfrwt>
<totfact> 0.35190366E+03</totfact>
</mgrwt>
</event>
<event>
 4    1  0.9032007E-005  0.8161185E+03  0.7818608E-02  0.9536975E-01
         -2   -1    0    0    0  501 -0.00000000000E+00  0.00000000000E+00  0.10401197662E+03  0.10401197665E+03  0.25500000000E-02 0. -1.
          2   -1    0    0  501    0  0.00000000000E+00 -0.00000000000E+00 -0.16008958439E+04  0.16008958439E+04  0.25500000000E-02 0.  1.
    5000001    1    1    2    0    0 -0.34380243690E+03 -0.15273474958E+03 -0.55185716456E+03  0.67985538861E+03  0.12700000000E+03 0.  0.
   -5000001    1    1    2    0    0  0.34380243690E+03  0.15273474958E+03 -0.94502670268E+03  0.10250524319E+04  0.12700000000E+03 0.  0.
<mgrwt>
<rscale>  0 0.81611847E+03</rscale>
<asrwt>0</asrwt>
<pdfrwt beam="1">  1        2 0.22869939E+00 0.81611847E+03</pdfrwt>
<pdfrwt beam="2">  1       -2 0.14858855E-01 0.81611847E+03</pdfrwt>
<totfact> 0.46386972E+02</totfact>
</mgrwt>
</event>
<event>
 4    1  0.9032007E-005  0.3061818E+03  0.7818608E-02  0.1082191E+00
          2   -1    0    0  501    0  0.00000000000E+00  0.00000000000E+00  0.14503811651E+03  0.14503811654E+03  0.25500000000E-02 0.  1.
         -2   -1    0    0    0  501 -0.00000000000E+00 -0.00000000000E+00 -0.16159076984E+03  0.16159076986E+03  0.25500000000E-02 0. -1.
    5000001    1    1    2    0    0  0.50945204932E+02 -0.35343012480E+02  0.50659234909E+02  0.15013294282E+03  0.12700000000E+03 0.  0.
   -5000001    1    1    2    0    0 -0.50945204932E+02  0.35343012480E+02 -0.67211888232E+02  0.15649594358E+03  0.12700000000E+03 0.  0.
<mgrwt>
<rscale>  0 0.30618178E+03</rscale>
<asrwt>0</asrwt>
<pdfrwt beam="1">  1        2 0.20719731E-01 0.30618178E+03</pdfrwt>
<pdfrwt beam="2">  1       -2 0.23084396E-01 0.30618178E+03</pdfrwt>
<totfact> 0.43577786E+03</totfact>
</mgrwt>
</event>
<event>
 4    1  0.9032007E-005  0.4695240E+03  0.7818608E-02  0.1022055E+00
         -2   -1    0    0    0  501 -0.00000000000E+00  0.00000000000E+00  0.53685770370E+02  0.53685770430E+02  0.25500000000E-02 0. -1.
          2   -1    0    0  501    0  0.00000000000E+00 -0.00000000000E+00 -0.10265887482E+04  0.10265887482E+04  0.25500000000E-02 0.  1.
    5000001    1    1    2    0    0 -0.25371400663E+02 -0.12502889999E+03 -0.13973990274E+03  0.22788631864E+03  0.12700000000E+03 0.  0.
   -5000001    1    1    2    0    0  0.25371400663E+02  0.12502889999E+03 -0.83316307507E+03  0.85238819998E+03  0.12700000000E+03 0.  0.
<mgrwt>
<rscale>  0 0.46952405E+03</rscale>
<asrwt>0</asrwt>
<pdfrwt beam="1">  1        2 0.14665552E+00 0.46952405E+03</pdfrwt>
<pdfrwt beam="2">  1       -2 0.76693964E-02 0.46952405E+03</pdfrwt>
<totfact> 0.28484998E+03</totfact>
</mgrwt>
</event>
<event>
 4    1  0.9032007E-005  0.4609025E+03  0.7818608E-02  0.1024520E+00
          2   -1    0    0  501    0  0.00000000000E+00  0.00000000000E+00  0.29986536133E+03  0.29986536135E+03  0.25500000000E-02 0.  1.
         -2   -1    0    0    0  501 -0.00000000000E+00 -0.00000000000E+00 -0.17710539425E+03  0.17710539426E+03  0.25500000000E-02 0. -1.
    5000001    1    1    2    0    0 -0.91257865308E+02 -0.13248439208E+03 -0.47642984909E+02  0.21042567842E+03  0.12700000000E+03 0.  0.
   -5000001    1    1    2    0    0  0.91257865308E+02  0.13248439208E+03  0.17040295200E+03  0.26654507719E+03  0.12700000000E+03 0.  0.
<mgrwt>
<rscale>  0 0.46090248E+03</rscale>
<asrwt>0</asrwt>
<pdfrwt beam="1">  1        2 0.42837908E-01 0.46090248E+03</pdfrwt>
<pdfrwt beam="2">  1       -2 0.25300771E-01 0.46090248E+03</pdfrwt>
<totfact> 0.16637080E+03</totfact>
</mgrwt>
</event>
<event>
 4    1  0.9032007E-005  0.3376734E+03  0.7818608E-02  0.1067791E+00
         -2   -1    0    0    0  501 -0.00000000000E+00  0.00000000000E+00  0.17068938262E+03  0.17068938264E+03  0.25500000000E-02 0. -1.
          2   -1    0    0  501    0  0.00000000000E+00 -0.00000000000E+00 -0.16700414218E+03  0.16700414220E+03  0.25500000000E-02 0.  1.
    5000001    1    1    2    0    0 -0.51007573068E+02  0.88843071215E+02  0.45226883193E+02  0.16932021373E+03  0.12700000000E+03 0.  0.
   -5000001    1    1    2    0    0  0.51007573068E+02 -0.88843071215E+02 -0.41541642751E+02  0.16837331111E+03  0.12700000000E+03 0.  0.
<mgrwt>
<rscale>  0 0.33767342E+03</rscale>
<asrwt>0</asrwt>
<pdfrwt beam="1">  1        2 0.23857735E-01 0.33767342E+03</pdfrwt>
<pdfrwt beam="2">  1       -2 0.24384198E-01 0.33767342E+03</pdfrwt>
<totfact> 0.33807469E+03</totfact>
</mgrwt>
</event>
<event>
 4    1  0.9032007E-005  0.3504221E+03  0.7818608E-02  0.1062442E+00
         -2   -1    0    0    0  501 -0.00000000000E+00  0.00000000000E+00  0.11902138225E+03  0.11902138228E+03  0.25500000000E-02 0. -1.
          2   -1    0    0  501    0  0.00000000000E+00 -0.00000000000E+00 -0.25792770734E+03  0.25792770735E+03  0.25500000000E-02 0.  1.
    5000001    1    1    2    0    0 -0.25830277888E+02  0.11335322273E+03 -0.10437211594E+03  0.20134223338E+03  0.12700000000E+03 0.  0.
   -5000001    1    1    2    0    0  0.25830277888E+02 -0.11335322273E+03 -0.34534209148E+02  0.17560685624E+03  0.12700000000E+03 0.  0.
<mgrwt>
<rscale>  0 0.35042210E+03</rscale>
<asrwt>0</asrwt>
<pdfrwt beam="1">  1        2 0.36846815E-01 0.35042210E+03</pdfrwt>
<pdfrwt beam="2">  1       -2 0.17003055E-01 0.35042210E+03</pdfrwt>
<totfact> 0.38921967E+03</totfact>
</mgrwt>
</event>
<event>
 4    1  0.9032007E-005  0.3337433E+03  0.7818608E-02  0.1069492E+00
         -2   -1    0    0    0  501 -0.00000000000E+00  0.00000000000E+00  0.90544505999E+02  0.90544506035E+02  0.25500000000E-02 0. -1.
          2   -1    0    0  501    0  0.00000000000E+00 -0.00000000000E+00 -0.30754108388E+03  0.30754108389E+03  0.25500000000E-02 0.  1.
    5000001    1    1    2    0    0  0.76499157156E+02 -0.62466583812E+02 -0.55651377976E+02  0.17023592749E+03  0.12700000000E+03 0.  0.
   -5000001    1    1    2    0    0 -0.76499157156E+02  0.62466583812E+02 -0.16134519991E+03  0.22784966244E+03  0.12700000000E+03 0.  0.
<mgrwt>
<rscale>  0 0.33374335E+03</rscale>
<asrwt>0</asrwt>
<pdfrwt beam="1">  1        2 0.43934440E-01 0.33374335E+03</pdfrwt>
<pdfrwt beam="2">  1       -2 0.12934930E-01 0.33374335E+03</pdfrwt>
<totfact> 0.50548927E+03</totfact>
</mgrwt>
</event>
<event>
 4    1  0.9032007E-005  0.3983494E+03  0.7818608E-02  0.1044353E+00
          2   -1    0    0  501    0  0.00000000000E+00  0.00000000000E+00  0.11773348924E+03  0.11773348927E+03  0.25500000000E-02 0.  1.
         -2   -1    0    0    0  501 -0.00000000000E+00 -0.00000000000E+00 -0.33695225912E+03  0.33695225913E+03  0.25500000000E-02 0. -1.
    5000001    1    1    2    0    0 -0.60614931106E+01  0.14584568327E+03 -0.55661410496E+02  0.20133280321E+03  0.12700000000E+03 0.  0.
   -5000001    1    1    2    0    0  0.60614931106E+01 -0.14584568327E+03 -0.16355735938E+03  0.25335294519E+03  0.12700000000E+03 0.  0.
<mgrwt>
<rscale>  0 0.39834942E+03</rscale>
<asrwt>0</asrwt>
<pdfrwt beam="1">  1        2 0.16819070E-01 0.39834942E+03</pdfrwt>
<pdfrwt beam="2">  1       -2 0.48136036E-01 0.39834942E+03</pdfrwt>
<totfact> 0.14206238E+03</totfact>
</mgrwt>
</event>
<event>
 4    1  0.9032007E-005  0.3314356E+03  0.7818608E-02  0.1070503E+00
          2   -1    0    0  501    0  0.00000000000E+00  0.00000000000E+00  0.23307440739E+03  0.23307440741E+03  0.25500000000E-02 0.  1.
         -2   -1    0    0    0  501 -0.00000000000E+00 -0.00000000000E+00 -0.11782672213E+03  0.11782672216E+03  0.25500000000E-02 0. -1.
    5000001    1    1    2    0    0 -0.50071822668E+01 -0.39645125903E+02 -0.46845514074E+02  0.14113932858E+03  0.12700000000E+03 0.  0.
   -5000001    1    1    2    0    0  0.50071822668E+01  0.39645125903E+02  0.16209319934E+03  0.20976180099E+03  0.12700000000E+03 0.  0.
<mgrwt>
<rscale>  0 0.33143563E+03</rscale>
<asrwt>0</asrwt>
<pdfrwt beam="1">  1        2 0.33296344E-01 0.33143563E+03</pdfrwt>
<pdfrwt beam="2">  1       -2 0.16832389E-01 0.33143563E+03</pdfrwt>
<totfact> 0.44164438E+03</totfact>
</mgrwt>
</event>
<event>
 4    1  0.9032007E-005  0.3195218E+03  0.7818608E-02  0.1075870E+00
         -2   -1    0    0    0  501 -0.00000000000E+00  0.00000000000E+00  0.15481338491E+04  0.15481338491E+04  0.25500000000E-02 0. -1.
          2   -1    0    0  501    0  0.00000000000E+00 -0.00000000000E+00 -0.16486651195E+02  0.16486651392E+02  0.25500000000E-02 0.  1.
    5000001    1    1    2    0    0 -0.90065043222E+02  0.33121840096E+02  0.69908121107E+03  0.71697441236E+03  0.12700000000E+03 0.  0.
   -5000001    1    1    2    0    0  0.90065043222E+02 -0.33121840096E+02  0.83256598681E+03  0.84764608811E+03  0.12700000000E+03 0.  0.
<mgrwt>
<rscale>  0 0.31952179E+03</rscale>
<asrwt>0</asrwt>
<pdfrwt beam="1">  1        2 0.23552365E-02 0.31952179E+03</pdfrwt>
<pdfrwt beam="2">  1       -2 0.22116192E+00 0.31952179E+03</pdfrwt>
<totfact> 0.46672217E+02</totfact>
</mgrwt>
</event>
<event>
 4    1  0.9032007E-005  0.4267036E+03  0.7818608E-02  0.1034906E+00
         -2   -1    0    0    0  501 -0.00000000000E+00  0.00000000000E+00  0.17611914584E+03  0.17611914585E+03  0.25500000000E-02 0.  1.
          2   -1    0    0  501    0  0.00000000000E+00 -0.00000000000E+00 -0.25845570086E+03  0.25845570087E+03  0.25500000000E-02 0. -1.
    5000001    1    1    2    0    0  0.56060224487E+02  0.16128015509E+03 -0.56812627256E+02  0.22025147403E+03  0.12700000000E+03 0.  0.
   -5000001    1    1    2    0    0 -0.56060224487E+02 -0.16128015509E+03 -0.25523927771E+02  0.21432337270E+03  0.12700000000E+03 0.  0.
<mgrwt>
<rscale>  0 0.42670363E+03</rscale>
<asrwt>0</asrwt>
<pdfrwt beam="1">  1        2 0.36922243E-01 0.42670363E+03</pdfrwt>
<pdfrwt beam="2">  1       -2 0.25159878E-01 0.42670363E+03</pdfrwt>
<totfact> 0.19762749E+03</totfact>
</mgrwt>
</event>
<event>
 4    1  0.9032007E-005  0.4871313E+03  0.7818608E-02  0.1017194E+00
          2   -1    0    0  501    0  0.00000000000E+00  0.00000000000E+00  0.94924077249E+03  0.94924077250E+03  0.25500000000E-02 0.  1.
         -2   -1    0    0    0  501 -0.00000000000E+00 -0.00000000000E+00 -0.62496490197E+02  0.62496490249E+02  0.25500000000E-02 0. -1.
    5000001    1    1    2    0    0 -0.20752887704E+02 -0.18847881096E+03  0.62009762877E+03  0.66076093538E+03  0.12700000000E+03 0.  0.
   -5000001    1    1    2    0    0  0.20752887704E+02  0.18847881096E+03  0.26664665353E+03  0.35097632736E+03  0.12700000000E+03 0.  0.
<mgrwt>
<rscale>  0 0.48713126E+03</rscale>
<asrwt>0</asrwt>
<pdfrwt beam="1">  1        2 0.13560582E+00 0.48713126E+03</pdfrwt>
<pdfrwt beam="2">  1       -2 0.89280700E-02 0.48713126E+03</pdfrwt>
<totfact> 0.24935440E+03</totfact>
</mgrwt>
</event>
<event>
 4    1  0.9032007E-005  0.3169364E+03  0.7818608E-02  0.1077068E+00
          2   -1    0    0  501    0  0.00000000000E+00  0.00000000000E+00  0.38655321085E+02  0.38655321169E+02  0.25500000000E-02 0.  1.
         -2   -1    0    0    0  501 -0.00000000000E+00 -0.00000000000E+00 -0.64964334812E+03  0.64964334813E+03  0.25500000000E-02 0. -1.
    5000001    1    1    2    0    0 -0.81167887111E+02  0.44867602906E+02 -0.26305667940E+03  0.30647861959E+03  0.12700000000E+03 0.  0.
   -5000001    1    1    2    0    0  0.81167887111E+02 -0.44867602906E+02 -0.34793134764E+03  0.38182004971E+03  0.12700000000E+03 0.  0.
<mgrwt>
<rscale>  0 0.31693641E+03</rscale>
<asrwt>0</asrwt>
<pdfrwt beam="1">  1        2 0.55221891E-02 0.31693641E+03</pdfrwt>
<pdfrwt beam="2">  1       -2 0.92806186E-01 0.31693641E+03</pdfrwt>
<totfact> 0.14102572E+03</totfact>
</mgrwt>
</event>
<event>
 4    1  0.9032007E-005  0.2952447E+03  0.7818608E-02  0.1087642E+00
          2   -1    0    0  501    0  0.00000000000E+00  0.00000000000E+00  0.21931312737E+04  0.21931312737E+04  0.25500000000E-02 0.  1.
         -2   -1    0    0    0  501 -0.00000000000E+00 -0.00000000000E+00 -0.99366424045E+01  0.99366427317E+01  0.25500000000E-02 0. -1.
    5000001    1    1    2    0    0  0.60999822620E+02 -0.11546478650E+02  0.77422249147E+03  0.78702208726E+03  0.12700000000E+03 0.  0.
   -5000001    1    1    2    0    0 -0.60999822620E+02  0.11546478650E+02  0.14089721398E+04  0.14160458292E+04  0.12700000000E+03 0.  0.
<mgrwt>
<rscale>  0 0.29524472E+03</rscale>
<asrwt>0</asrwt>
<pdfrwt beam="1">  1        2 0.31330464E+00 0.29524472E+03</pdfrwt>
<pdfrwt beam="2">  1       -2 0.14195196E-02 0.29524472E+03</pdfrwt>
<totfact> 0.91004162E+03</totfact>
</mgrwt>
</event>
<event>
 4    1  0.9032007E-005  0.4206997E+03  0.7818608E-02  0.1036839E+00
          2   -1    0    0  501    0  0.00000000000E+00  0.00000000000E+00  0.15774708255E+03  0.15774708257E+03  0.25500000000E-02 0.  1.
         -2   -1    0    0    0  501 -0.00000000000E+00 -0.00000000000E+00 -0.28049365331E+03  0.28049365332E+03  0.25500000000E-02 0. -1.
    5000001    1    1    2    0    0  0.10052456465E+03  0.38220073947E+01 -0.20112457282E+03  0.25826321773E+03  0.12700000000E+03 0.  0.
   -5000001    1    1    2    0    0 -0.10052456465E+03 -0.38220073947E+01  0.78378002057E+02  0.17997751816E+03  0.12700000000E+03 0.  0.
<mgrwt>
<rscale>  0 0.42069968E+03</rscale>
<asrwt>0</asrwt>
<pdfrwt beam="1">  1        2 0.22535297E-01 0.42069968E+03</pdfrwt>
<pdfrwt beam="2">  1       -2 0.40070522E-01 0.42069968E+03</pdfrwt>
<totfact> 0.14492638E+03</totfact>
</mgrwt>
</event>
<event>
 4    1  0.9032007E-005  0.2673494E+03  0.7818608E-02  0.1102806E+00
         -2   -1    0    0    0  501 -0.00000000000E+00  0.00000000000E+00  0.44378709969E+02  0.44378710042E+02  0.25500000000E-02 0. -1.
          2   -1    0    0  501    0  0.00000000000E+00 -0.00000000000E+00 -0.40264620595E+03  0.40264620595E+03  0.25500000000E-02 0.  1.
    5000001    1    1    2    0    0  0.40952437797E+02 -0.77334492840E+01 -0.17623243593E+03  0.22118720549E+03  0.12700000000E+03 0.  0.
   -5000001    1    1    2    0    0 -0.40952437797E+02  0.77334492840E+01 -0.18203506004E+03  0.22583771050E+03  0.12700000000E+03 0.  0.
<mgrwt>
<rscale>  0 0.26734935E+03</rscale>
<asrwt>0</asrwt>
<pdfrwt beam="1">  1        2 0.57520885E-01 0.26734935E+03</pdfrwt>
<pdfrwt beam="2">  1       -2 0.63398159E-02 0.26734935E+03</pdfrwt>
<totfact> 0.11579322E+04</totfact>
</mgrwt>
</event>
<event>
 4    1  0.9032007E-005  0.4136678E+03  0.7818608E-02  0.1039147E+00
         -2   -1    0    0    0  501 -0.00000000000E+00  0.00000000000E+00  0.10950313196E+03  0.10950313199E+03  0.25500000000E-02 0. -1.
          2   -1    0    0  501    0  0.00000000000E+00 -0.00000000000E+00 -0.39067617682E+03  0.39067617683E+03  0.25500000000E-02 0.  1.
    5000001    1    1    2    0    0  0.12260784914E+03  0.38805561928E+02 -0.18993756143E+02  0.18173695023E+03  0.12700000000E+03 0.  0.
   -5000001    1    1    2    0    0 -0.12260784914E+03 -0.38805561928E+02 -0.26217928872E+03  0.31844235858E+03  0.12700000000E+03 0.  0.
<mgrwt>
<rscale>  0 0.41366781E+03</rscale>
<asrwt>0</asrwt>
<pdfrwt beam="1">  1        2 0.55810881E-01 0.41366781E+03</pdfrwt>
<pdfrwt beam="2">  1       -2 0.15643305E-01 0.41366781E+03</pdfrwt>
<totfact> 0.28571325E+03</totfact>
</mgrwt>
</event>
<event>
 4    1  0.9032007E-005  0.4353661E+03  0.7818608E-02  0.1032178E+00
         -2   -1    0    0    0  501 -0.00000000000E+00  0.00000000000E+00  0.27403366200E+02  0.27403366319E+02  0.25500000000E-02 0. -1.
          2   -1    0    0  501    0  0.00000000000E+00 -0.00000000000E+00 -0.17292004683E+04  0.17292004683E+04  0.25500000000E-02 0.  1.
    5000001    1    1    2    0    0 -0.45073669217E+02 -0.16261743105E+03 -0.10636673405E+04  0.10844322366E+04  0.12700000000E+03 0.  0.
   -5000001    1    1    2    0    0  0.45073669217E+02  0.16261743105E+03 -0.63812976158E+03  0.67217159799E+03  0.12700000000E+03 0.  0.
<mgrwt>
<rscale>  0 0.43536612E+03</rscale>
<asrwt>0</asrwt>
<pdfrwt beam="1">  1        2 0.24702857E+00 0.43536612E+03</pdfrwt>
<pdfrwt beam="2">  1       -2 0.39147677E-02 0.43536612E+03</pdfrwt>
<totfact> 0.34005062E+03</totfact>
</mgrwt>
</event>
<event>
 4    1  0.9032007E-005  0.3196954E+03  0.7818608E-02  0.1075790E+00
          2   -1    0    0  501    0  0.00000000000E+00  0.00000000000E+00  0.21125969906E+03  0.21125969908E+03  0.25500000000E-02 0.  1.
         -2   -1    0    0    0  501 -0.00000000000E+00 -0.00000000000E+00 -0.12094730000E+03  0.12094730003E+03  0.25500000000E-02 0. -1.
    5000001    1    1    2    0    0 -0.88427434697E+02 -0.30945713796E+02  0.18760473521E+02  0.15892766838E+03  0.12700000000E+03 0.  0.
   -5000001    1    1    2    0    0  0.88427434697E+02  0.30945713796E+02  0.71551925539E+02  0.17327933073E+03  0.12700000000E+03 0.  0.
<mgrwt>
<rscale>  0 0.31969542E+03</rscale>
<asrwt>0</asrwt>
<pdfrwt beam="1">  1        2 0.30179957E-01 0.31969542E+03</pdfrwt>
<pdfrwt beam="2">  1       -2 0.17278186E-01 0.31969542E+03</pdfrwt>
<totfact> 0.47033807E+03</totfact>
</mgrwt>
</event>
<event>
 4    1  0.9032007E-005  0.5197102E+03  0.7818608E-02  0.1008759E+00
         -2   -1    0    0    0  501 -0.00000000000E+00  0.00000000000E+00  0.23074783809E+04  0.23074783809E+04  0.25500000000E-02 0. -1.
          2   -1    0    0  501    0  0.00000000000E+00 -0.00000000000E+00 -0.29263404751E+02  0.29263404862E+02  0.25500000000E-02 0.  1.
    5000001    1    1    2    0    0  0.16710887603E+03 -0.59442281381E+02  0.17739681748E+04  0.17873306483E+04  0.12700000000E+03 0.  0.
   -5000001    1    1    2    0    0 -0.16710887603E+03  0.59442281381E+02  0.50424680135E+03  0.54941113743E+03  0.12700000000E+03 0.  0.
<mgrwt>
<rscale>  0 0.51971020E+03</rscale>
<asrwt>0</asrwt>
<pdfrwt beam="1">  1        2 0.41804875E-02 0.51971020E+03</pdfrwt>
<pdfrwt beam="2">  1       -2 0.32963968E+00 0.51971020E+03</pdfrwt>
<totfact> 0.47322269E+01</totfact>
</mgrwt>
</event>
<event>
 4    1  0.9032007E-005  0.3441520E+03  0.7818608E-02  0.1065041E+00
         -2   -1    0    0    0  501 -0.00000000000E+00  0.00000000000E+00  0.35673378897E+02  0.35673378988E+02  0.25500000000E-02 0. -1.
          2   -1    0    0  501    0  0.00000000000E+00 -0.00000000000E+00 -0.83003494339E+03  0.83003494339E+03  0.25500000000E-02 0.  1.
    5000001    1    1    2    0    0 -0.17737511890E+01 -0.11593340671E+03 -0.41257464891E+03  0.44697935289E+03  0.12700000000E+03 0.  0.
   -5000001    1    1    2    0    0  0.17737511890E+01  0.11593340671E+03 -0.38178691558E+03  0.41872896949E+03  0.12700000000E+03 0.  0.
<mgrwt>
<rscale>  0 0.34415201E+03</rscale>
<asrwt>0</asrwt>
<pdfrwt beam="1">  1        2 0.11857641E+00 0.34415201E+03</pdfrwt>
<pdfrwt beam="2">  1       -2 0.50961975E-02 0.34415201E+03</pdfrwt>
<totfact> 0.71094169E+03</totfact>
</mgrwt>
</event>
<event>
 4    1  0.9032007E-005  0.3627858E+03  0.7818608E-02  0.1057486E+00
         -2   -1    0    0    0  501 -0.00000000000E+00  0.00000000000E+00  0.24057076160E+03  0.24057076162E+03  0.25500000000E-02 0. -1.
          2   -1    0    0  501    0  0.00000000000E+00 -0.00000000000E+00 -0.13677213365E+03  0.13677213367E+03  0.25500000000E-02 0.  1.
    5000001    1    1    2    0    0 -0.11790662388E+03  0.10428936334E+02  0.10657910139E+03  0.20371263957E+03  0.12700000000E+03 0.  0.
   -5000001    1    1    2    0    0  0.11790662388E+03 -0.10428936334E+02 -0.27804734344E+01  0.17363025572E+03  0.12700000000E+03 0.  0.
<mgrwt>
<rscale>  0 0.36278576E+03</rscale>
<asrwt>0</asrwt>
<pdfrwt beam="1">  1        2 0.19538876E-01 0.36278576E+03</pdfrwt>
<pdfrwt beam="2">  1       -2 0.34367252E-01 0.36278576E+03</pdfrwt>
<totfact> 0.22811540E+03</totfact>
</mgrwt>
</event>
<event>
 4    1  0.9032007E-005  0.6341576E+03  0.7818608E-02  0.9836969E-01
         -2   -1    0    0    0  501 -0.00000000000E+00  0.00000000000E+00  0.49339433656E+02  0.49339433722E+02  0.25500000000E-02 0. -1.
          2   -1    0    0  501    0  0.00000000000E+00 -0.00000000000E+00 -0.20376997647E+04  0.20376997647E+04  0.25500000000E-02 0.  1.
    5000001    1    1    2    0    0 -0.61143963591E+02 -0.25573020350E+03 -0.58745435032E+03  0.65602449267E+03  0.12700000000E+03 0.  0.
   -5000001    1    1    2    0    0  0.61143963591E+02  0.25573020350E+03 -0.14009059807E+04  0.14310147058E+04  0.12700000000E+03 0.  0.
<mgrwt>
<rscale>  0 0.63415756E+03</rscale>
<asrwt>0</asrwt>
<pdfrwt beam="1">  1        2 0.29109991E+00 0.63415756E+03</pdfrwt>
<pdfrwt beam="2">  1       -2 0.70484918E-02 0.63415756E+03</pdfrwt>
<totfact> 0.94886985E+02</totfact>
</mgrwt>
</event>
<event>
 4    1  0.9032007E-005  0.3741895E+03  0.7818608E-02  0.1053103E+00
          2   -1    0    0  501    0  0.00000000000E+00  0.00000000000E+00  0.13446735926E+04  0.13446735926E+04  0.25500000000E-02 0.  1.
         -2   -1    0    0    0  501 -0.00000000000E+00 -0.00000000000E+00 -0.26031920910E+02  0.26031921035E+02  0.25500000000E-02 0. -1.
    5000001    1    1    2    0    0 -0.86726324056E+02  0.91224645459E+02  0.45761406681E+03  0.49130746521E+03  0.12700000000E+03 0.  0.
   -5000001    1    1    2    0    0  0.86726324056E+02 -0.91224645459E+02  0.86102760491E+03  0.87939804847E+03  0.12700000000E+03 0.  0.
<mgrwt>
<rscale>  0 0.37418945E+03</rscale>
<asrwt>0</asrwt>
<pdfrwt beam="1">  1        2 0.19209630E+00 0.37418945E+03</pdfrwt>
<pdfrwt beam="2">  1       -2 0.37188444E-02 0.37418945E+03</pdfrwt>
<totfact> 0.57814099E+03</totfact>
</mgrwt>
</event>
<event>
 4    1  0.9032007E-005  0.2898816E+03  0.7818608E-02  0.1090411E+00
          2   -1    0    0  501    0  0.00000000000E+00  0.00000000000E+00  0.14273552882E+03  0.14273552884E+03  0.25500000000E-02 0.  1.
         -2   -1    0    0    0  501 -0.00000000000E+00 -0.00000000000E+00 -0.14718018303E+03  0.14718018305E+03  0.25500000000E-02 0. -1.
    5000001    1    1    2    0    0  0.64497749243E+02 -0.62586859099E+01 -0.28296648743E+02  0.14535759745E+03  0.12700000000E+03 0.  0.
   -5000001    1    1    2    0    0 -0.64497749243E+02  0.62586859099E+01  0.23851994533E+02  0.14455811444E+03  0.12700000000E+03 0.  0.
<mgrwt>
<rscale>  0 0.28988164E+03</rscale>
<asrwt>0</asrwt>
<pdfrwt beam="1">  1        2 0.20390790E-01 0.28988164E+03</pdfrwt>
<pdfrwt beam="2">  1       -2 0.21025740E-01 0.28988164E+03</pdfrwt>
<totfact> 0.52106797E+03</totfact>
</mgrwt>
</event>
<event>
 4    1  0.9032007E-005  0.5921940E+03  0.7818608E-02  0.9921735E-01
         -2   -1    0    0    0  501 -0.00000000000E+00  0.00000000000E+00  0.43341380233E+02  0.43341380308E+02  0.25500000000E-02 0. -1.
          2   -1    0    0  501    0  0.00000000000E+00 -0.00000000000E+00 -0.20228572286E+04  0.20228572286E+04  0.25500000000E-02 0.  1.
    5000001    1    1    2    0    0  0.67453730523E+02  0.18632025517E+03 -0.16166161638E+04  0.16336591028E+04  0.12700000000E+03 0.  0.
   -5000001    1    1    2    0    0 -0.67453730523E+02 -0.18632025517E+03 -0.36289968455E+03  0.43253950605E+03  0.12700000000E+03 0.  0.
<mgrwt>
<rscale>  0 0.59219397E+03</rscale>
<asrwt>0</asrwt>
<pdfrwt beam="1">  1        2 0.28897954E+00 0.59219397E+03</pdfrwt>
<pdfrwt beam="2">  1       -2 0.61916270E-02 0.59219397E+03</pdfrwt>
<totfact> 0.11868060E+03</totfact>
</mgrwt>
</event>
<event>
 4    1  0.9032007E-005  0.3052340E+03  0.7818608E-02  0.1082653E+00
          2   -1    0    0  501    0  0.00000000000E+00  0.00000000000E+00  0.20066416560E+04  0.20066416560E+04  0.25500000000E-02 0.  1.
         -2   -1    0    0    0  501 -0.00000000000E+00 -0.00000000000E+00 -0.11607428911E+02  0.11607429192E+02  0.25500000000E-02 0. -1.
    5000001    1    1    2    0    0 -0.35418349122E+02 -0.69138101000E+02  0.12196312029E+04  0.12286837704E+04  0.12700000000E+03 0.  0.
   -5000001    1    1    2    0    0  0.35418349122E+02  0.69138101000E+02  0.77540302423E+03  0.78956531487E+03  0.12700000000E+03 0.  0.
<mgrwt>
<rscale>  0 0.30523401E+03</rscale>
<asrwt>0</asrwt>
<pdfrwt beam="1">  1        2 0.28666285E+00 0.30523401E+03</pdfrwt>
<pdfrwt beam="2">  1       -2 0.16582056E-02 0.30523401E+03</pdfrwt>
<totfact> 0.89437972E+03</totfact>
</mgrwt>
</event>
<event>
 4    1  0.9032007E-005  0.6597062E+03  0.7818608E-02  0.9788735E-01
         -2   -1    0    0    0  501 -0.00000000000E+00  0.00000000000E+00  0.19197576766E+03  0.19197576768E+03  0.25500000000E-02 0. -1.
          2   -1    0    0  501    0  0.00000000000E+00 -0.00000000000E+00 -0.56675416748E+03  0.56675416749E+03  0.25500000000E-02 0.  1.
    5000001    1    1    2    0    0  0.27228985720E+03  0.15385576218E+02 -0.34295344847E+03  0.45620669669E+03  0.12700000000E+03 0.  0.
   -5000001    1    1    2    0    0 -0.27228985720E+03 -0.15385576218E+02 -0.31824951356E+02  0.30252323847E+03  0.12700000000E+03 0.  0.
<mgrwt>
<rscale>  0 0.65970620E+03</rscale>
<asrwt>0</asrwt>
<pdfrwt beam="1">  1        2 0.80964880E-01 0.65970620E+03</pdfrwt>
<pdfrwt beam="2">  1       -2 0.27425110E-01 0.65970620E+03</pdfrwt>
<totfact> 0.70533440E+02</totfact>
</mgrwt>
</event>
<event>
 4    1  0.9032007E-005  0.3304481E+03  0.7818608E-02  0.1070939E+00
         -2   -1    0    0    0  501 -0.00000000000E+00  0.00000000000E+00  0.17857440725E+03  0.17857440726E+03  0.25500000000E-02 0. -1.
          2   -1    0    0  501    0  0.00000000000E+00 -0.00000000000E+00 -0.15287172925E+03  0.15287172927E+03  0.25500000000E-02 0.  1.
    5000001    1    1    2    0    0  0.80677548444E+02 -0.60291224890E+02 -0.19277892721E+02  0.16323154036E+03  0.12700000000E+03 0.  0.
   -5000001    1    1    2    0    0 -0.80677548444E+02  0.60291224890E+02  0.44980570720E+02  0.16821459617E+03  0.12700000000E+03 0.  0.
<mgrwt>
<rscale>  0 0.33044805E+03</rscale>
<asrwt>0</asrwt>
<pdfrwt beam="1">  1        2 0.21838818E-01 0.33044805E+03</pdfrwt>
<pdfrwt beam="2">  1       -2 0.25510630E-01 0.33044805E+03</pdfrwt>
<totfact> 0.34482987E+03</totfact>
</mgrwt>
</event>
<event>
 4    1  0.9032007E-005  0.3177904E+03  0.7818608E-02  0.1076671E+00
          2   -1    0    0  501    0  0.00000000000E+00  0.00000000000E+00  0.14103904368E+03  0.14103904371E+03  0.25500000000E-02 0.  1.
         -2   -1    0    0    0  501 -0.00000000000E+00 -0.00000000000E+00 -0.17901202787E+03  0.17901202789E+03  0.25500000000E-02 0. -1.
    5000001    1    1    2    0    0 -0.22492003361E+02 -0.80204342145E+02  0.28036751350E+02  0.15444638597E+03  0.12700000000E+03 0.  0.
   -5000001    1    1    2    0    0  0.22492003361E+02  0.80204342145E+02 -0.66009735535E+02  0.16560468562E+03  0.12700000000E+03 0.  0.
<mgrwt>
<rscale>  0 0.31779040E+03</rscale>
<asrwt>0</asrwt>
<pdfrwt beam="1">  1        2 0.20148435E-01 0.31779040E+03</pdfrwt>
<pdfrwt beam="2">  1       -2 0.25573147E-01 0.31779040E+03</pdfrwt>
<totfact> 0.37609728E+03</totfact>
</mgrwt>
</event>
<event>
 4    1  0.9032007E-005  0.3282558E+03  0.7818608E-02  0.1071911E+00
         -2   -1    0    0    0  501 -0.00000000000E+00  0.00000000000E+00  0.21540966742E+03  0.21540966744E+03  0.25500000000E-02 0. -1.
          2   -1    0    0  501    0  0.00000000000E+00 -0.00000000000E+00 -0.12505456456E+03  0.12505456459E+03  0.25500000000E-02 0.  1.
    5000001    1    1    2    0    0  0.10784631401E+02  0.10184972540E+03  0.26644370288E+02  0.16531363316E+03  0.12700000000E+03 0.  0.
   -5000001    1    1    2    0    0 -0.10784631401E+02 -0.10184972540E+03  0.63710732571E+02  0.17515059887E+03  0.12700000000E+03 0.  0.
<mgrwt>
<rscale>  0 0.32825577E+03</rscale>
<asrwt>0</asrwt>
<pdfrwt beam="1">  1        2 0.17864938E-01 0.32825577E+03</pdfrwt>
<pdfrwt beam="2">  1       -2 0.30772809E-01 0.32825577E+03</pdfrwt>
<totfact> 0.30989985E+03</totfact>
</mgrwt>
</event>
<event>
 4    1  0.9032007E-005  0.6619706E+03  0.7818608E-02  0.9784573E-01
          2   -1    0    0  501    0  0.00000000000E+00  0.00000000000E+00  0.17224334042E+04  0.17224334042E+04  0.25500000000E-02 0.  1.
         -2   -1    0    0    0  501 -0.00000000000E+00 -0.00000000000E+00 -0.63602616048E+02  0.63602616099E+02  0.25500000000E-02 0. -1.
    5000001    1    1    2    0    0  0.25988644756E+03 -0.58519733964E+02  0.42509567924E+03  0.51749479359E+03  0.12700000000E+03 0.  0.
   -5000001    1    1    2    0    0 -0.25988644756E+03  0.58519733964E+02  0.12337351089E+04  0.12685412267E+04  0.12700000000E+03 0.  0.
<mgrwt>
<rscale>  0 0.66197061E+03</rscale>
<asrwt>0</asrwt>
<pdfrwt beam="1">  1        2 0.24606190E+00 0.66197061E+03</pdfrwt>
<pdfrwt beam="2">  1       -2 0.90860885E-02 0.66197061E+03</pdfrwt>
<totfact> 0.91142086E+02</totfact>
</mgrwt>
</event>
<event>
 4    1  0.9032007E-005  0.3641696E+03  0.7818608E-02  0.1056945E+00
         -2   -1    0    0    0  501 -0.00000000000E+00  0.00000000000E+00  0.99302339192E+02  0.99302339224E+02  0.25500000000E-02 0. -1.
          2   -1    0    0  501    0  0.00000000000E+00 -0.00000000000E+00 -0.33387811800E+03  0.33387811801E+03  0.25500000000E-02 0.  1.
    5000001    1    1    2    0    0 -0.52478326382E+02  0.22591599678E+02 -0.25682778450E+03  0.29215383963E+03  0.12700000000E+03 0.  0.
   -5000001    1    1    2    0    0  0.52478326382E+02 -0.22591599678E+02  0.22252005696E+02  0.14102661761E+03  0.12700000000E+03 0.  0.
<mgrwt>
<rscale>  0 0.36416962E+03</rscale>
<asrwt>0</asrwt>
<pdfrwt beam="1">  1        2 0.47696873E-01 0.36416962E+03</pdfrwt>
<pdfrwt beam="2">  1       -2 0.14186049E-01 0.36416962E+03</pdfrwt>
<totfact> 0.39813701E+03</totfact>
</mgrwt>
</event>
<event>
 4    1  0.9032007E-005  0.5095091E+03  0.7818608E-02  0.1011326E+00
          2   -1    0    0  501    0  0.00000000000E+00  0.00000000000E+00  0.81320793422E+03  0.81320793422E+03  0.25500000000E-02 0.  1.
         -2   -1    0    0    0  501 -0.00000000000E+00 -0.00000000000E+00 -0.79807250450E+02  0.79807250491E+02  0.25500000000E-02 0. -1.
    5000001    1    1    2    0    0 -0.15568460262E+03  0.10142027048E+03  0.15749611752E+03  0.27469582048E+03  0.12700000000E+03 0.  0.
   -5000001    1    1    2    0    0  0.15568460262E+03 -0.10142027048E+03  0.57590456625E+03  0.61831936423E+03  0.12700000000E+03 0.  0.
<mgrwt>
<rscale>  0 0.50950913E+03</rscale>
<asrwt>0</asrwt>
<pdfrwt beam="1">  1        2 0.11617256E+00 0.50950913E+03</pdfrwt>
<pdfrwt beam="2">  1       -2 0.11401036E-01 0.50950913E+03</pdfrwt>
<totfact> 0.20593112E+03</totfact>
</mgrwt>
</event>
<event>
 4    1  0.9032007E-005  0.5123556E+03  0.7818608E-02  0.1010603E+00
          2   -1    0    0  501    0  0.00000000000E+00  0.00000000000E+00  0.16919592536E+04  0.16919592536E+04  0.25500000000E-02 0.  1.
         -2   -1    0    0    0  501 -0.00000000000E+00 -0.00000000000E+00 -0.38787612794E+02  0.38787612877E+02  0.25500000000E-02 0. -1.
    5000001    1    1    2    0    0 -0.40950832235E+01  0.20515958736E+03  0.11169939837E+04  0.11427649740E+04  0.12700000000E+03 0.  0.
   -5000001    1    1    2    0    0  0.40950832235E+01 -0.20515958736E+03  0.53617765704E+03  0.58798189250E+03  0.12700000000E+03 0.  0.
<mgrwt>
<rscale>  0 0.51235558E+03</rscale>
<asrwt>0</asrwt>
<pdfrwt beam="1">  1        2 0.24170846E+00 0.51235558E+03</pdfrwt>
<pdfrwt beam="2">  1       -2 0.55410877E-02 0.51235558E+03</pdfrwt>
<totfact> 0.20773001E+03</totfact>
</mgrwt>
</event>
<event>
 4    1  0.9032007E-005  0.2802213E+03  0.7818608E-02  0.1095568E+00
          2   -1    0    0  501    0  0.00000000000E+00  0.00000000000E+00  0.73615431911E+03  0.73615431912E+03  0.25500000000E-02 0.  1.
         -2   -1    0    0    0  501 -0.00000000000E+00 -0.00000000000E+00 -0.26666949110E+02  0.26666949232E+02  0.25500000000E-02 0. -1.
    5000001    1    1    2    0    0  0.30090924580E+02  0.49109471084E+02  0.31773904887E+03  0.34699323779E+03  0.12700000000E+03 0.  0.
   -5000001    1    1    2    0    0 -0.30090924580E+02 -0.49109471084E+02  0.39174832113E+03  0.41582803056E+03  0.12700000000E+03 0.  0.
<mgrwt>
<rscale>  0 0.28022127E+03</rscale>
<asrwt>0</asrwt>
<pdfrwt beam="1">  1        2 0.10516490E+00 0.28022127E+03</pdfrwt>
<pdfrwt beam="2">  1       -2 0.38095642E-02 0.28022127E+03</pdfrwt>
<totfact> 0.12733024E+04</totfact>
</mgrwt>
</event>
<event>
 4    1  0.9032007E-005  0.3788507E+03  0.7818608E-02  0.1051359E+00
         -2   -1    0    0    0  501 -0.00000000000E+00  0.00000000000E+00  0.21559853462E+02  0.21559853612E+02  0.25500000000E-02 0. -1.
          2   -1    0    0  501    0  0.00000000000E+00 -0.00000000000E+00 -0.16642955319E+04  0.16642955319E+04  0.25500000000E-02 0.  1.
    5000001    1    1    2    0    0  0.11174434945E+02  0.13988981134E+03 -0.85553111208E+03  0.87621715975E+03  0.12700000000E+03 0.  0.
   -5000001    1    1    2    0    0 -0.11174434945E+02 -0.13988981134E+03 -0.78720456635E+03  0.80963822575E+03  0.12700000000E+03 0.  0.
<mgrwt>
<rscale>  0 0.37885072E+03</rscale>
<asrwt>0</asrwt>
<pdfrwt beam="1">  1        2 0.23775642E+00 0.37885072E+03</pdfrwt>
<pdfrwt beam="2">  1       -2 0.30799801E-02 0.37885072E+03</pdfrwt>
<totfact> 0.52693378E+03</totfact>
</mgrwt>
</event>
<event>
 4    1  0.9032007E-005  0.4643456E+03  0.7818608E-02  0.1023528E+00
         -2   -1    0    0    0  501 -0.00000000000E+00  0.00000000000E+00  0.94743083019E+02  0.94743083053E+02  0.25500000000E-02 0. -1.
          2   -1    0    0  501    0  0.00000000000E+00 -0.00000000000E+00 -0.56895141194E+03  0.56895141194E+03  0.25500000000E-02 0.  1.
    5000001    1    1    2    0    0 -0.92921712822E+02 -0.16381900794E+03 -0.30571258500E+03  0.38086782052E+03  0.12700000000E+03 0.  0.
   -5000001    1    1    2    0    0  0.92921712822E+02  0.16381900794E+03 -0.16849574391E+03  0.28282667448E+03  0.12700000000E+03 0.  0.
<mgrwt>
<rscale>  0 0.46434561E+03</rscale>
<asrwt>0</asrwt>
<pdfrwt beam="1">  1        2 0.81278771E-01 0.46434561E+03</pdfrwt>
<pdfrwt beam="2">  1       -2 0.13534726E-01 0.46434561E+03</pdfrwt>
<totfact> 0.23904931E+03</totfact>
</mgrwt>
</event>
<event>
 4    1  0.9032007E-005  0.2994337E+03  0.7818608E-02  0.1085524E+00
          2   -1    0    0  501    0  0.00000000000E+00  0.00000000000E+00  0.60865715051E+03  0.60865715051E+03  0.25500000000E-02 0.  1.
         -2   -1    0    0    0  501 -0.00000000000E+00 -0.00000000000E+00 -0.36827186944E+02  0.36827187032E+02  0.25500000000E-02 0. -1.
    5000001    1    1    2    0    0 -0.12996827191E+02  0.72514163260E+02  0.22273802102E+03  0.26677415054E+03  0.12700000000E+03 0.  0.
   -5000001    1    1    2    0    0  0.12996827191E+02 -0.72514163260E+02  0.34909194255E+03  0.37871018701E+03  0.12700000000E+03 0.  0.
<mgrwt>
<rscale>  0 0.29943367E+03</rscale>
<asrwt>0</asrwt>
<pdfrwt beam="1">  1        2 0.86951025E-01 0.29943367E+03</pdfrwt>
<pdfrwt beam="2">  1       -2 0.52610265E-02 0.29943367E+03</pdfrwt>
<totfact> 0.97914650E+03</totfact>
</mgrwt>
</event>
<event>
 4    1  0.9032007E-005  0.3530661E+03  0.7818608E-02  0.1061364E+00
          2   -1    0    0  501    0  0.00000000000E+00  0.00000000000E+00  0.28933214397E+04  0.28933214397E+04  0.25500000000E-02 0.  1.
         -2   -1    0    0    0  501 -0.00000000000E+00 -0.00000000000E+00 -0.10770986276E+02  0.10770986578E+02  0.25500000000E-02 0. -1.
    5000001    1    1    2    0    0 -0.80901229192E+02  0.54151290494E+02  0.82808357445E+03  0.84340309309E+03  0.12700000000E+03 0.  0.
   -5000001    1    1    2    0    0  0.80901229192E+02 -0.54151290494E+02  0.20544668790E+04  0.20606893332E+04  0.12700000000E+03 0.  0.
<mgrwt>
<rscale>  0 0.35306615E+03</rscale>
<asrwt>0</asrwt>
<pdfrwt beam="1">  1        2 0.41333174E+00 0.35306615E+03</pdfrwt>
<pdfrwt beam="2">  1       -2 0.15387119E-02 0.35306615E+03</pdfrwt>
<totfact> 0.35735403E+03</totfact>
</mgrwt>
</event>
<event>
 4    1  0.9032007E-005  0.7188109E+03  0.7818608E-02  0.9685593E-01
          2   -1    0    0  501    0  0.00000000000E+00  0.00000000000E+00  0.37417964746E+03  0.37417964747E+03  0.25500000000E-02 0.  1.
         -2   -1    0    0    0  501 -0.00000000000E+00 -0.00000000000E+00 -0.34521463276E+03  0.34521463276E+03  0.25500000000E-02 0. -1.
    5000001    1    1    2    0    0 -0.18919316207E+03 -0.20337298763E+03 -0.17511427269E+03  0.35206339368E+03  0.12700000000E+03 0.  0.
   -5000001    1    1    2    0    0  0.18919316207E+03  0.20337298763E+03  0.20407928739E+03  0.36733088655E+03  0.12700000000E+03 0.  0.
<mgrwt>
<rscale>  0 0.71881093E+03</rscale>
<asrwt>0</asrwt>
<pdfrwt beam="1">  1        2 0.53454235E-01 0.71881093E+03</pdfrwt>
<pdfrwt beam="2">  1       -2 0.49316376E-01 0.71881093E+03</pdfrwt>
<totfact> 0.36558825E+02</totfact>
</mgrwt>
</event>
<event>
 4    1  0.9032007E-005  0.3538381E+03  0.7818608E-02  0.1061051E+00
         -2   -1    0    0    0  501 -0.00000000000E+00  0.00000000000E+00  0.22185586251E+02  0.22185586397E+02  0.25500000000E-02 0. -1.
          2   -1    0    0  501    0  0.00000000000E+00 -0.00000000000E+00 -0.14108415258E+04  0.14108415258E+04  0.25500000000E-02 0.  1.
    5000001    1    1    2    0    0  0.11915574706E+03 -0.25564530777E+02 -0.76674277825E+03  0.78668616697E+03  0.12700000000E+03 0.  0.
   -5000001    1    1    2    0    0 -0.11915574706E+03  0.25564530777E+02 -0.62191316126E+03  0.64634094520E+03  0.12700000000E+03 0.  0.
<mgrwt>
<rscale>  0 0.35383808E+03</rscale>
<asrwt>0</asrwt>
<pdfrwt beam="1">  1        2 0.20154873E+00 0.35383808E+03</pdfrwt>
<pdfrwt beam="2">  1       -2 0.31693704E-02 0.35383808E+03</pdfrwt>
<totfact> 0.67890391E+03</totfact>
</mgrwt>
</event>
<event>
 4    1  0.9032007E-005  0.3187887E+03  0.7818608E-02  0.1076208E+00
          2   -1    0    0  501    0  0.00000000000E+00  0.00000000000E+00  0.28479144903E+04  0.28479144903E+04  0.25500000000E-02 0.  1.
         -2   -1    0    0    0  501 -0.00000000000E+00 -0.00000000000E+00 -0.89211104788E+01  0.89211108432E+01  0.25500000000E-02 0. -1.
    5000001    1    1    2    0    0  0.77723244021E+02  0.11174854084E+01  0.19292345658E+04  0.19349721345E+04  0.12700000000E+03 0.  0.
   -5000001    1    1    2    0    0 -0.77723244021E+02 -0.11174854084E+01  0.90975881405E+03  0.92186346667E+03  0.12700000000E+03 0.  0.
<mgrwt>
<rscale>  0 0.31878871E+03</rscale>
<asrwt>0</asrwt>
<pdfrwt beam="1">  1        2 0.40684489E+00 0.31878871E+03</pdfrwt>
<pdfrwt beam="2">  1       -2 0.12744445E-02 0.31878871E+03</pdfrwt>
<totfact> 0.49878496E+03</totfact>
</mgrwt>
</event>
<event>
 4    1  0.9032007E-005  0.5506467E+03  0.7818608E-02  0.1001344E+00
         -2   -1    0    0    0  501 -0.00000000000E+00  0.00000000000E+00  0.25726842273E+02  0.25726842399E+02  0.25500000000E-02 0. -1.
          2   -1    0    0  501    0  0.00000000000E+00 -0.00000000000E+00 -0.29464540658E+04  0.29464540658E+04  0.25500000000E-02 0.  1.
    5000001    1    1    2    0    0 -0.18104047204E+03 -0.11975265511E+03 -0.85550254602E+03  0.89170059839E+03  0.12700000000E+03 0.  0.
   -5000001    1    1    2    0    0  0.18104047204E+03  0.11975265511E+03 -0.20652246775E+04  0.20804803098E+04  0.12700000000E+03 0.  0.
<mgrwt>
<rscale>  0 0.55064674E+03</rscale>
<asrwt>0</asrwt>
<pdfrwt beam="1">  1        2 0.42092179E+00 0.55064674E+03</pdfrwt>
<pdfrwt beam="2">  1       -2 0.36752651E-02 0.55064674E+03</pdfrwt>
<totfact> 0.89319292E+02</totfact>
</mgrwt>
</event>
<event>
 4    1  0.9032007E-005  0.5185127E+03  0.7818608E-02  0.1009057E+00
         -2   -1    0    0    0  501 -0.00000000000E+00  0.00000000000E+00  0.30601487465E+02  0.30601487571E+02  0.25500000000E-02 0. -1.
          2   -1    0    0  501    0  0.00000000000E+00 -0.00000000000E+00 -0.21964245228E+04  0.21964245228E+04  0.25500000000E-02 0.  1.
    5000001    1    1    2    0    0  0.17754066069E+03 -0.69700770676E+02 -0.56206138437E+03  0.60697683929E+03  0.12700000000E+03 0.  0.
   -5000001    1    1    2    0    0 -0.17754066069E+03  0.69700770676E+02 -0.16037616510E+04  0.16200491711E+04  0.12700000000E+03 0.  0.
<mgrwt>
<rscale>  0 0.51851271E+03</rscale>
<asrwt>0</asrwt>
<pdfrwt beam="1">  1        2 0.31377483E+00 0.51851271E+03</pdfrwt>
<pdfrwt beam="2">  1       -2 0.43716425E-02 0.51851271E+03</pdfrwt>
<totfact> 0.16737744E+03</totfact>
</mgrwt>
</event>
<event>
 4    1  0.9032007E-005  0.5958361E+03  0.7818608E-02  0.9914083E-01
          2   -1    0    0  501    0  0.00000000000E+00  0.00000000000E+00  0.15246901070E+03  0.15246901072E+03  0.25500000000E-02 0.  1.
         -2   -1    0    0    0  501 -0.00000000000E+00 -0.00000000000E+00 -0.58211937249E+03  0.58211937250E+03  0.25500000000E-02 0. -1.
    5000001    1    1    2    0    0  0.23787396030E+03 -0.12162594679E+03 -0.17124932697E+03  0.34180729060E+03  0.12700000000E+03 0.  0.
   -5000001    1    1    2    0    0 -0.23787396030E+03  0.12162594679E+03 -0.25840103482E+03  0.39278109262E+03  0.12700000000E+03 0.  0.
<mgrwt>
<rscale>  0 0.59583610E+03</rscale>
<asrwt>0</asrwt>
<pdfrwt beam="1">  1        2 0.21781288E-01 0.59583610E+03</pdfrwt>
<pdfrwt beam="2">  1       -2 0.83159909E-01 0.59583610E+03</pdfrwt>
<totfact> 0.32900252E+02</totfact>
</mgrwt>
</event>
<event>
 4    1  0.9032007E-005  0.4677460E+03  0.7818608E-02  0.1022558E+00
          2   -1    0    0  501    0  0.00000000000E+00  0.00000000000E+00  0.14232134432E+04  0.14232134432E+04  0.25500000000E-02 0.  1.
         -2   -1    0    0    0  501 -0.00000000000E+00 -0.00000000000E+00 -0.38431741590E+02  0.38431741675E+02  0.25500000000E-02 0. -1.
    5000001    1    1    2    0    0 -0.84680512072E+02 -0.15650425206E+03  0.95202223079E+03  0.97680074629E+03  0.12700000000E+03 0.  0.
   -5000001    1    1    2    0    0  0.84680512072E+02  0.15650425206E+03  0.43275947078E+03  0.48484443854E+03  0.12700000000E+03 0.  0.
<mgrwt>
<rscale>  0 0.46774596E+03</rscale>
<asrwt>0</asrwt>
<pdfrwt beam="1">  1        2 0.20331624E+00 0.46774596E+03</pdfrwt>
<pdfrwt beam="2">  1       -2 0.54902479E-02 0.46774596E+03</pdfrwt>
<totfact> 0.28980599E+03</totfact>
</mgrwt>
</event>
<event>
 4    1  0.9032007E-005  0.4788987E+03  0.7818608E-02  0.1019438E+00
          2   -1    0    0  501    0  0.00000000000E+00  0.00000000000E+00  0.81428187715E+03  0.81428187715E+03  0.25500000000E-02 0. -1.
         -2   -1    0    0    0  501 -0.00000000000E+00 -0.00000000000E+00 -0.70412941716E+02  0.70412941762E+02  0.25500000000E-02 0.  1.
    5000001    1    1    2    0    0 -0.77909215900E+02  0.11906013754E+03  0.10447107207E+03  0.21745888617E+03  0.12700000000E+03 0.  0.
   -5000001    1    1    2    0    0  0.77909215900E+02 -0.11906013754E+03  0.63939786337E+03  0.66723593275E+03  0.12700000000E+03 0.  0.
<mgrwt>
<rscale>  0 0.47889866E+03</rscale>
<asrwt>0</asrwt>
<pdfrwt beam="1">  1        2 0.11632598E+00 0.47889866E+03</pdfrwt>
<pdfrwt beam="2">  1       -2 0.10058992E-01 0.47889866E+03</pdfrwt>
<totfact> 0.25187839E+03</totfact>
</mgrwt>
</event>
<event>
 4    1  0.9032007E-005  0.2947732E+03  0.7818608E-02  0.1087883E+00
          2   -1    0    0  501    0  0.00000000000E+00  0.00000000000E+00  0.87201714914E+03  0.87201714914E+03  0.25500000000E-02 0.  1.
         -2   -1    0    0    0  501 -0.00000000000E+00 -0.00000000000E+00 -0.24910995153E+02  0.24910995284E+02  0.25500000000E-02 0. -1.
    5000001    1    1    2    0    0 -0.26165269123E+02  0.66786322794E+02  0.48801254926E+03  0.50934299098E+03  0.12700000000E+03 0.  0.
   -5000001    1    1    2    0    0  0.26165269123E+02 -0.66786322794E+02  0.35909360472E+03  0.38758515345E+03  0.12700000000E+03 0.  0.
<mgrwt>
<rscale>  0 0.29477324E+03</rscale>
<asrwt>0</asrwt>
<pdfrwt beam="1">  1        2 0.12457386E+00 0.29477324E+03</pdfrwt>
<pdfrwt beam="2">  1       -2 0.35587141E-02 0.29477324E+03</pdfrwt>
<totfact> 0.11448931E+04</totfact>
</mgrwt>
</event>
<event>
 4    1  0.9032007E-005  0.3200793E+03  0.7818608E-02  0.1075613E+00
         -2   -1    0    0    0  501 -0.00000000000E+00  0.00000000000E+00  0.18141632182E+02  0.18141632362E+02  0.25500000000E-02 0. -1.
          2   -1    0    0  501    0  0.00000000000E+00 -0.00000000000E+00 -0.14118185233E+04  0.14118185233E+04  0.25500000000E-02 0.  1.
    5000001    1    1    2    0    0 -0.33881895025E+02 -0.88377512442E+02 -0.59446256294E+03  0.61520184188E+03  0.12700000000E+03 0.  0.
   -5000001    1    1    2    0    0  0.33881895025E+02  0.88377512442E+02 -0.79921432822E+03  0.81475831382E+03  0.12700000000E+03 0.  0.
<mgrwt>
<rscale>  0 0.32007932E+03</rscale>
<asrwt>0</asrwt>
<pdfrwt beam="1">  1        2 0.20168829E+00 0.32007932E+03</pdfrwt>
<pdfrwt beam="2">  1       -2 0.25916627E-02 0.32007932E+03</pdfrwt>
<totfact> 0.91460739E+03</totfact>
</mgrwt>
</event>
<event>
 4    1  0.9032007E-005  0.1053618E+04  0.7818608E-02  0.9251617E-01
         -2   -1    0    0    0  501 -0.00000000000E+00  0.00000000000E+00  0.12073871670E+04  0.12073871670E+04  0.25500000000E-02 0. -1.
          2   -1    0    0  501    0  0.00000000000E+00 -0.00000000000E+00 -0.22985805185E+03  0.22985805187E+03  0.25500000000E-02 0.  1.
    5000001    1    1    2    0    0  0.14490044988E+03 -0.14273954212E+03 -0.15109794385E+03  0.28342601485E+03  0.12700000000E+03 0.  0.
   -5000001    1    1    2    0    0 -0.14490044988E+03  0.14273954212E+03  0.11286270590E+04  0.11538192040E+04  0.12700000000E+03 0.  0.
<mgrwt>
<rscale>  0 0.10536179E+04</rscale>
<asrwt>0</asrwt>
<pdfrwt beam="1">  1        2 0.32836864E-01 0.10536179E+04</pdfrwt>
<pdfrwt beam="2">  1       -2 0.17248388E+00 0.10536179E+04</pdfrwt>
<totfact> 0.32751504E+01</totfact>
</mgrwt>
</event>
<event>
 4    1  0.9032007E-005  0.2939182E+03  0.7818608E-02  0.1088321E+00
          2   -1    0    0  501    0  0.00000000000E+00  0.00000000000E+00  0.11582965649E+03  0.11582965652E+03  0.25500000000E-02 0.  1.
         -2   -1    0    0    0  501 -0.00000000000E+00 -0.00000000000E+00 -0.18645461894E+03  0.18645461895E+03  0.25500000000E-02 0. -1.
    5000001    1    1    2    0    0 -0.73043584681E+02  0.11450987379E+02 -0.34059571597E+02  0.15084941098E+03  0.12700000000E+03 0.  0.
   -5000001    1    1    2    0    0  0.73043584681E+02 -0.11450987379E+02 -0.36565390850E+02  0.15143486449E+03  0.12700000000E+03 0.  0.
<mgrwt>
<rscale>  0 0.29391818E+03</rscale>
<asrwt>0</asrwt>
<pdfrwt beam="1">  1        2 0.16547094E-01 0.29391818E+03</pdfrwt>
<pdfrwt beam="2">  1       -2 0.26636374E-01 0.29391818E+03</pdfrwt>
<totfact> 0.43866977E+03</totfact>
</mgrwt>
</event>
<event>
 4    1  0.9032007E-005  0.5928986E+03  0.7818608E-02  0.9920250E-01
         -2   -1    0    0    0  501 -0.00000000000E+00  0.00000000000E+00  0.89791891782E+02  0.89791891818E+02  0.25500000000E-02 0. -1.
          2   -1    0    0  501    0  0.00000000000E+00 -0.00000000000E+00 -0.97873184310E+03  0.97873184310E+03  0.25500000000E-02 0.  1.
    5000001    1    1    2    0    0 -0.49153748245E+02  0.23554251705E+03 -0.65661628181E+03  0.71075333967E+03  0.12700000000E+03 0.  0.
   -5000001    1    1    2    0    0  0.49153748245E+02 -0.23554251705E+03 -0.23232366950E+03  0.35777039525E+03  0.12700000000E+03 0.  0.
<mgrwt>
<rscale>  0 0.59289859E+03</rscale>
<asrwt>0</asrwt>
<pdfrwt beam="1">  1        2 0.13981883E+00 0.59289859E+03</pdfrwt>
<pdfrwt beam="2">  1       -2 0.12827414E-01 0.59289859E+03</pdfrwt>
<totfact> 0.13248805E+03</totfact>
</mgrwt>
</event>
<event>
 4    1  0.9032007E-005  0.1321025E+04  0.7818608E-02  0.9013056E-01
          2   -1    0    0  501    0  0.00000000000E+00  0.00000000000E+00  0.12324250993E+04  0.12324250993E+04  0.25500000000E-02 0.  1.
         -2   -1    0    0    0  501 -0.00000000000E+00 -0.00000000000E+00 -0.35399862740E+03  0.35399862741E+03  0.25500000000E-02 0. -1.
    5000001    1    1    2    0    0  0.44058537174E+03  0.29627116661E+03  0.88574226525E+03  0.10404616448E+04  0.12700000000E+03 0.  0.
   -5000001    1    1    2    0    0 -0.44058537174E+03 -0.29627116661E+03 -0.73157933892E+01  0.54596208182E+03  0.12700000000E+03 0.  0.
<mgrwt>
<rscale>  0 0.13210250E+04</rscale>
<asrwt>0</asrwt>
<pdfrwt beam="1">  1        2 0.17606073E+00 0.13210250E+04</pdfrwt>
<pdfrwt beam="2">  1       -2 0.50571232E-01 0.13210250E+04</pdfrwt>
<totfact> 0.74160176E+01</totfact>
</mgrwt>
</event>
<event>
 4    1  0.9032007E-005  0.8760736E+03  0.7818608E-02  0.9455995E-01
         -2   -1    0    0    0  501 -0.00000000000E+00  0.00000000000E+00  0.50913172968E+03  0.50913172969E+03  0.25500000000E-02 0. -1.
          2   -1    0    0  501    0  0.00000000000E+00 -0.00000000000E+00 -0.37686955518E+03  0.37686955519E+03  0.25500000000E-02 0.  1.
    5000001    1    1    2    0    0 -0.20000876715E+03  0.36675293328E+03  0.10168667099E+03  0.44830837608E+03  0.12700000000E+03 0.  0.
   -5000001    1    1    2    0    0  0.20000876715E+03 -0.36675293328E+03  0.30575503509E+02  0.43769290880E+03  0.12700000000E+03 0.  0.
<mgrwt>
<rscale>  0 0.87607362E+03</rscale>
<asrwt>0</asrwt>
<pdfrwt beam="1">  1        2 0.53838508E-01 0.87607362E+03</pdfrwt>
<pdfrwt beam="2">  1       -2 0.72733104E-01 0.87607362E+03</pdfrwt>
<totfact> 0.15877023E+02</totfact>
</mgrwt>
</event>
<event>
 4    1  0.9032007E-005  0.6874074E+03  0.7818608E-02  0.9739013E-01
         -2   -1    0    0    0  501 -0.00000000000E+00  0.00000000000E+00  0.18482776806E+03  0.18482776808E+03  0.25500000000E-02 0. -1.
          2   -1    0    0  501    0  0.00000000000E+00 -0.00000000000E+00 -0.63914761938E+03  0.63914761939E+03  0.25500000000E-02 0.  1.
    5000001    1    1    2    0    0  0.79250007822E+02 -0.20794922084E+03  0.47437254421E+02  0.26058153291E+03  0.12700000000E+03 0.  0.
   -5000001    1    1    2    0    0 -0.79250007822E+02  0.20794922084E+03 -0.50175710574E+03  0.56339385455E+03  0.12700000000E+03 0.  0.
<mgrwt>
<rscale>  0 0.68740738E+03</rscale>
<asrwt>0</asrwt>
<pdfrwt beam="1">  1        2 0.91306802E-01 0.68740738E+03</pdfrwt>
<pdfrwt beam="2">  1       -2 0.26403967E-01 0.68740738E+03</pdfrwt>
<totfact> 0.65522532E+02</totfact>
</mgrwt>
</event>
<event>
 4    1  0.9032007E-005  0.3327194E+03  0.7818608E-02  0.1069940E+00
         -2   -1    0    0    0  501 -0.00000000000E+00  0.00000000000E+00  0.11762347104E+03  0.11762347107E+03  0.25500000000E-02 0. -1.
          2   -1    0    0  501    0  0.00000000000E+00 -0.00000000000E+00 -0.23528936789E+03  0.23528936790E+03  0.25500000000E-02 0.  1.
    5000001    1    1    2    0    0  0.41939680559E+02 -0.80468123409E+02 -0.11988032807E+03  0.19681043861E+03  0.12700000000E+03 0.  0.
   -5000001    1    1    2    0    0 -0.41939680559E+02  0.80468123409E+02  0.22144312207E+01  0.15610240035E+03  0.12700000000E+03 0.  0.
<mgrwt>
<rscale>  0 0.33271941E+03</rscale>
<asrwt>0</asrwt>
<pdfrwt beam="1">  1        2 0.33612767E-01 0.33271941E+03</pdfrwt>
<pdfrwt beam="2">  1       -2 0.16803353E-01 0.33271941E+03</pdfrwt>
<totfact> 0.43840997E+03</totfact>
</mgrwt>
</event>
<event>
 4    1  0.9032007E-005  0.3805262E+03  0.7818608E-02  0.1050739E+00
          2   -1    0    0  501    0  0.00000000000E+00  0.00000000000E+00  0.12190653435E+03  0.12190653437E+03  0.25500000000E-02 0.  1.
         -2   -1    0    0    0  501 -0.00000000000E+00 -0.00000000000E+00 -0.29694911903E+03  0.29694911904E+03  0.25500000000E-02 0. -1.
    5000001    1    1    2    0    0  0.91309895397E+02 -0.10493195782E+03 -0.57927779504E+02  0.19706049936E+03  0.12700000000E+03 0.  0.
   -5000001    1    1    2    0    0 -0.91309895397E+02  0.10493195782E+03 -0.11711480518E+03  0.22179515406E+03  0.12700000000E+03 0.  0.
<mgrwt>
<rscale>  0 0.38052615E+03</rscale>
<asrwt>0</asrwt>
<pdfrwt beam="1">  1        2 0.17415219E-01 0.38052615E+03</pdfrwt>
<pdfrwt beam="2">  1       -2 0.42421302E-01 0.38052615E+03</pdfrwt>
<totfact> 0.17477676E+03</totfact>
</mgrwt>
</event>
<event>
 4    1  0.9032007E-005  0.3631368E+03  0.7818608E-02  0.1057349E+00
          2   -1    0    0  501    0  0.00000000000E+00  0.00000000000E+00  0.14909124297E+04  0.14909124297E+04  0.25500000000E-02 0.  1.
         -2   -1    0    0    0  501 -0.00000000000E+00 -0.00000000000E+00 -0.22112020540E+02  0.22112020687E+02  0.25500000000E-02 0. -1.
    5000001    1    1    2    0    0  0.49800806629E+02  0.11902701149E+03  0.79191304899E+03  0.81234403239E+03  0.12700000000E+03 0.  0.
   -5000001    1    1    2    0    0 -0.49800806629E+02 -0.11902701149E+03  0.67688736019E+03  0.70068041801E+03  0.12700000000E+03 0.  0.
<mgrwt>
<rscale>  0 0.36313681E+03</rscale>
<asrwt>0</asrwt>
<pdfrwt beam="1">  1        2 0.21298755E+00 0.36313681E+03</pdfrwt>
<pdfrwt beam="2">  1       -2 0.31588592E-02 0.36313681E+03</pdfrwt>
<totfact> 0.62066182E+03</totfact>
</mgrwt>
</event>
<event>
 4    1  0.9032007E-005  0.4739237E+03  0.7818608E-02  0.1020819E+00
         -2   -1    0    0    0  501 -0.00000000000E+00  0.00000000000E+00  0.30785118488E+03  0.30785118489E+03  0.25500000000E-02 0. -1.
          2   -1    0    0  501    0  0.00000000000E+00 -0.00000000000E+00 -0.18239627240E+03  0.18239627242E+03  0.25500000000E-02 0.  1.
    5000001    1    1    2    0    0  0.67681851066E+02  0.14690464199E+03 -0.59056525698E+02  0.21395906157E+03  0.12700000000E+03 0.  0.
   -5000001    1    1    2    0    0 -0.67681851066E+02 -0.14690464199E+03  0.18451143817E+03  0.27628839574E+03  0.12700000000E+03 0.  0.
<mgrwt>
<rscale>  0 0.47392366E+03</rscale>
<asrwt>0</asrwt>
<pdfrwt beam="1">  1        2 0.26056611E-01 0.47392366E+03</pdfrwt>
<pdfrwt beam="2">  1       -2 0.43978740E-01 0.47392366E+03</pdfrwt>
<totfact> 0.10256549E+03</totfact>
</mgrwt>
</event>
<event>
 4    1  0.9032007E-005  0.3742047E+03  0.7818608E-02  0.1053097E+00
         -2   -1    0    0    0  501 -0.00000000000E+00  0.00000000000E+00  0.15723785750E+02  0.15723785956E+02  0.25500000000E-02 0. -1.
          2   -1    0    0  501    0  0.00000000000E+00 -0.00000000000E+00 -0.22263903678E+04  0.22263903678E+04  0.25500000000E-02 0.  1.
    5000001    1    1    2    0    0  0.49567899774E+02  0.91591079964E+02 -0.16423288631E+04  0.16505208261E+04  0.12700000000E+03 0.  0.
   -5000001    1    1    2    0    0 -0.49567899774E+02 -0.91591079964E+02 -0.56833771889E+03  0.59159332766E+03  0.12700000000E+03 0.  0.
<mgrwt>
<rscale>  0 0.37420468E+03</rscale>
<asrwt>0</asrwt>
<pdfrwt beam="1">  1        2 0.31805557E+00 0.37420468E+03</pdfrwt>
<pdfrwt beam="2">  1       -2 0.22462565E-02 0.37420468E+03</pdfrwt>
<totfact> 0.44508666E+03</totfact>
</mgrwt>
</event>
<event>
 4    1  0.9032007E-005  0.5417229E+03  0.7818608E-02  0.1003428E+00
         -2   -1    0    0    0  501 -0.00000000000E+00  0.00000000000E+00  0.41073316216E+02  0.41073316295E+02  0.25500000000E-02 0. -1.
          2   -1    0    0  501    0  0.00000000000E+00 -0.00000000000E+00 -0.17862183745E+04  0.17862183745E+04  0.25500000000E-02 0.  1.
    5000001    1    1    2    0    0  0.49106988622E+01  0.23753518229E+03 -0.96737043621E+03  0.10041820744E+04  0.12700000000E+03 0.  0.
   -5000001    1    1    2    0    0 -0.49106988622E+01 -0.23753518229E+03 -0.77777462210E+03  0.82310961637E+03  0.12700000000E+03 0.  0.
<mgrwt>
<rscale>  0 0.54172285E+03</rscale>
<asrwt>0</asrwt>
<pdfrwt beam="1">  1        2 0.25517401E+00 0.54172285E+03</pdfrwt>
<pdfrwt beam="2">  1       -2 0.58676177E-02 0.54172285E+03</pdfrwt>
<totfact> 0.17012381E+03</totfact>
</mgrwt>
</event>
<event>
 4    1  0.9032007E-005  0.4132248E+03  0.7818608E-02  0.1039294E+00
          2   -1    0    0  501    0  0.00000000000E+00  0.00000000000E+00  0.86115451135E+03  0.86115451135E+03  0.25500000000E-02 0.  1.
         -2   -1    0    0    0  501 -0.00000000000E+00 -0.00000000000E+00 -0.49571463657E+02  0.49571463723E+02  0.25500000000E-02 0. -1.
    5000001    1    1    2    0    0 -0.12742840849E+03 -0.93629624908E+02  0.31887703989E+03  0.37791013815E+03  0.12700000000E+03 0.  0.
   -5000001    1    1    2    0    0  0.12742840849E+03  0.93629624908E+02  0.49270600780E+03  0.53281583692E+03  0.12700000000E+03 0.  0.
<mgrwt>
<rscale>  0 0.41322483E+03</rscale>
<asrwt>0</asrwt>
<pdfrwt beam="1">  1        2 0.12302206E+00 0.41322483E+03</pdfrwt>
<pdfrwt beam="2">  1       -2 0.70816384E-02 0.41322483E+03</pdfrwt>
<totfact> 0.40890976E+03</totfact>
</mgrwt>
</event>
<event>
 4    1  0.9032007E-005  0.3306115E+03  0.7818608E-02  0.1070867E+00
         -2   -1    0    0    0  501 -0.00000000000E+00  0.00000000000E+00  0.22924955613E+03  0.22924955614E+03  0.25500000000E-02 0. -1.
          2   -1    0    0  501    0  0.00000000000E+00 -0.00000000000E+00 -0.11919758648E+03  0.11919758651E+03  0.25500000000E-02 0.  1.
    5000001    1    1    2    0    0  0.97314895998E+02  0.35438772217E+02  0.77896843099E+02  0.18144699977E+03  0.12700000000E+03 0.  0.
   -5000001    1    1    2    0    0 -0.97314895998E+02 -0.35438772217E+02  0.32155126548E+02  0.16700014288E+03  0.12700000000E+03 0.  0.
<mgrwt>
<rscale>  0 0.33061152E+03</rscale>
<asrwt>0</asrwt>
<pdfrwt beam="1">  1        2 0.17028227E-01 0.33061152E+03</pdfrwt>
<pdfrwt beam="2">  1       -2 0.32749936E-01 0.33061152E+03</pdfrwt>
<totfact> 0.29235338E+03</totfact>
</mgrwt>
</event>
<event>
 4    1  0.9032007E-005  0.3628464E+03  0.7818608E-02  0.1057462E+00
          2   -1    0    0  501    0  0.00000000000E+00  0.00000000000E+00  0.16462427415E+03  0.16462427417E+03  0.25500000000E-02 0.  1.
         -2   -1    0    0    0  501 -0.00000000000E+00 -0.00000000000E+00 -0.19993639966E+03  0.19993639967E+03  0.25500000000E-02 0. -1.
    5000001    1    1    2    0    0  0.96823695457E+02 -0.83135121300E+02 -0.40102340887E+02  0.18445453136E+03  0.12700000000E+03 0.  0.
   -5000001    1    1    2    0    0 -0.96823695457E+02  0.83135121300E+02  0.47902153801E+01  0.18010614248E+03  0.12700000000E+03 0.  0.
<mgrwt>
<rscale>  0 0.36284644E+03</rscale>
<asrwt>0</asrwt>
<pdfrwt beam="1">  1        2 0.23517753E-01 0.36284644E+03</pdfrwt>
<pdfrwt beam="2">  1       -2 0.28562343E-01 0.36284644E+03</pdfrwt>
<totfact> 0.25932348E+03</totfact>
</mgrwt>
</event>
<event>
 4    1  0.9032007E-005  0.6009975E+03  0.7818608E-02  0.9903339E-01
          2   -1    0    0  501    0  0.00000000000E+00  0.00000000000E+00  0.40784637588E+03  0.40784637589E+03  0.25500000000E-02 0.  1.
         -2   -1    0    0    0  501 -0.00000000000E+00 -0.00000000000E+00 -0.22140567188E+03  0.22140567190E+03  0.25500000000E-02 0. -1.
    5000001    1    1    2    0    0 -0.84959927898E+02 -0.25857526106E+03  0.10321622076E+03  0.31758769373E+03  0.12700000000E+03 0.  0.
   -5000001    1    1    2    0    0  0.84959927898E+02  0.25857526106E+03  0.83224483244E+02  0.31166435406E+03  0.12700000000E+03 0.  0.
<mgrwt>
<rscale>  0 0.60099751E+03</rscale>
<asrwt>0</asrwt>
<pdfrwt beam="1">  1        2 0.58263767E-01 0.60099751E+03</pdfrwt>
<pdfrwt beam="2">  1       -2 0.31629382E-01 0.60099751E+03</pdfrwt>
<totfact> 0.78867570E+02</totfact>
</mgrwt>
</event>
<event>
 4    1  0.9032007E-005  0.3176950E+03  0.7818608E-02  0.1076715E+00
          2   -1    0    0  501    0  0.00000000000E+00  0.00000000000E+00  0.24295335545E+04  0.24295335545E+04  0.25500000000E-02 0.  1.
         -2   -1    0    0    0  501 -0.00000000000E+00 -0.00000000000E+00 -0.10385750671E+02  0.10385750984E+02  0.25500000000E-02 0. -1.
    5000001    1    1    2    0    0 -0.10257862705E+02 -0.94313906662E+02  0.11315565859E+04  0.11426065131E+04  0.12700000000E+03 0.  0.
   -5000001    1    1    2    0    0  0.10257862705E+02  0.94313906662E+02  0.12875912179E+04  0.12973127924E+04  0.12700000000E+03 0.  0.
<mgrwt>
<rscale>  0 0.31769501E+03</rscale>
<asrwt>0</asrwt>
<pdfrwt beam="1">  1        2 0.34707626E+00 0.31769501E+03</pdfrwt>
<pdfrwt beam="2">  1       -2 0.14836785E-02 0.31769501E+03</pdfrwt>
<totfact> 0.65184599E+03</totfact>
</mgrwt>
</event>
<event>
 4    1  0.9032007E-005  0.7401922E+03  0.7818608E-02  0.9650864E-01
          2   -1    0    0  501    0  0.00000000000E+00  0.00000000000E+00  0.63616055620E+03  0.63616055620E+03  0.25500000000E-02 0.  1.
         -2   -1    0    0    0  501 -0.00000000000E+00 -0.00000000000E+00 -0.21530907177E+03  0.21530907178E+03  0.25500000000E-02 0. -1.
    5000001    1    1    2    0    0 -0.34393439584E+03  0.47822274744E+02  0.19172437219E+03  0.41649138466E+03  0.12700000000E+03 0.  0.
   -5000001    1    1    2    0    0  0.34393439584E+03 -0.47822274744E+02  0.22912711224E+03  0.43497824333E+03  0.12700000000E+03 0.  0.
<mgrwt>
<rscale>  0 0.74019224E+03</rscale>
<asrwt>0</asrwt>
<pdfrwt beam="1">  1        2 0.90880080E-01 0.74019224E+03</pdfrwt>
<pdfrwt beam="2">  1       -2 0.30758439E-01 0.74019224E+03</pdfrwt>
<totfact> 0.49700110E+02</totfact>
</mgrwt>
</event>
<event>
 4    1  0.9032007E-005  0.3171169E+03  0.7818608E-02  0.1076984E+00
         -2   -1    0    0    0  501 -0.00000000000E+00  0.00000000000E+00  0.31699232341E+02  0.31699232444E+02  0.25500000000E-02 0. -1.
          2   -1    0    0  501    0  0.00000000000E+00 -0.00000000000E+00 -0.79310393947E+03  0.79310393947E+03  0.25500000000E-02 0.  1.
    5000001    1    1    2    0    0  0.11936719022E+02  0.92772310202E+02 -0.42285042182E+03  0.45130994454E+03  0.12700000000E+03 0.  0.
   -5000001    1    1    2    0    0 -0.11936719022E+02 -0.92772310202E+02 -0.33855428530E+03  0.37349322738E+03  0.12700000000E+03 0.  0.
<mgrwt>
<rscale>  0 0.31711693E+03</rscale>
<asrwt>0</asrwt>
<pdfrwt beam="1">  1        2 0.11330055E+00 0.31711693E+03</pdfrwt>
<pdfrwt beam="2">  1       -2 0.45284623E-02 0.31711693E+03</pdfrwt>
<totfact> 0.89915819E+03</totfact>
</mgrwt>
</event>
<event>
 4    1  0.9032007E-005  0.4851856E+03  0.7818608E-02  0.1017720E+00
         -2   -1    0    0    0  501 -0.00000000000E+00  0.00000000000E+00  0.90710336024E+02  0.90710336060E+02  0.25500000000E-02 0. -1.
          2   -1    0    0  501    0  0.00000000000E+00 -0.00000000000E+00 -0.64878240598E+03  0.64878240599E+03  0.25500000000E-02 0.  1.
    5000001    1    1    2    0    0  0.13203126306E+03  0.15850960556E+03 -0.25947463462E+03  0.35498399329E+03  0.12700000000E+03 0.  0.
   -5000001    1    1    2    0    0 -0.13203126306E+03 -0.15850960556E+03 -0.29859743534E+03  0.38450874876E+03  0.12700000000E+03 0.  0.
<mgrwt>
<rscale>  0 0.48518561E+03</rscale>
<asrwt>0</asrwt>
<pdfrwt beam="1">  1        2 0.92683198E-01 0.48518561E+03</pdfrwt>
<pdfrwt beam="2">  1       -2 0.12958620E-01 0.48518561E+03</pdfrwt>
<totfact> 0.22034780E+03</totfact>
</mgrwt>
</event>
<event>
 4    1  0.9032007E-005  0.4691972E+03  0.7818608E-02  0.1022147E+00
          2   -1    0    0  501    0  0.00000000000E+00  0.00000000000E+00  0.96091767618E+03  0.96091767619E+03  0.25500000000E-02 0.  1.
         -2   -1    0    0    0  501 -0.00000000000E+00 -0.00000000000E+00 -0.57274939266E+02  0.57274939323E+02  0.25500000000E-02 0. -1.
    5000001    1    1    2    0    0  0.16676799705E+03 -0.93851736317E+02  0.55561780811E+03  0.60121532078E+03  0.12700000000E+03 0.  0.
   -5000001    1    1    2    0    0 -0.16676799705E+03  0.93851736317E+02  0.34802492881E+03  0.41697729473E+03  0.12700000000E+03 0.  0.
<mgrwt>
<rscale>  0 0.46919719E+03</rscale>
<asrwt>0</asrwt>
<pdfrwt beam="1">  1        2 0.13727395E+00 0.46919719E+03</pdfrwt>
<pdfrwt beam="2">  1       -2 0.81821346E-02 0.46919719E+03</pdfrwt>
<totfact> 0.28176897E+03</totfact>
</mgrwt>
</event>
<event>
 4    1  0.9032007E-005  0.2873454E+03  0.7818608E-02  0.1091743E+00
          2   -1    0    0  501    0  0.00000000000E+00  0.00000000000E+00  0.20667560340E+04  0.20667560340E+04  0.25500000000E-02 0.  1.
         -2   -1    0    0    0  501 -0.00000000000E+00 -0.00000000000E+00 -0.99875598735E+01  0.99875601990E+01  0.25500000000E-02 0. -1.
    5000001    1    1    2    0    0 -0.40520249323E+02  0.45136637131E+02  0.81971005398E+03  0.83170474281E+03  0.12700000000E+03 0.  0.
   -5000001    1    1    2    0    0  0.40520249323E+02 -0.45136637131E+02  0.12370584201E+04  0.12450388514E+04  0.12700000000E+03 0.  0.
<mgrwt>
<rscale>  0 0.28734544E+03</rscale>
<asrwt>0</asrwt>
<pdfrwt beam="1">  1        2 0.29525099E+00 0.28734544E+03</pdfrwt>
<pdfrwt beam="2">  1       -2 0.14267937E-02 0.28734544E+03</pdfrwt>
<totfact> 0.10411850E+04</totfact>
</mgrwt>
</event>
<event>
 4    1  0.9032007E-005  0.5289296E+03  0.7818608E-02  0.1006492E+00
         -2   -1    0    0    0  501 -0.00000000000E+00  0.00000000000E+00  0.10881407875E+03  0.10881407878E+03  0.25500000000E-02 0. -1.
          2   -1    0    0  501    0  0.00000000000E+00 -0.00000000000E+00 -0.64276279727E+03  0.64276279728E+03  0.25500000000E-02 0.  1.
    5000001    1    1    2    0    0 -0.16040250426E+03 -0.12951488630E+03 -0.11586248312E+03  0.26843282985E+03  0.12700000000E+03 0.  0.
   -5000001    1    1    2    0    0  0.16040250426E+03  0.12951488630E+03 -0.41808623541E+03  0.48314404621E+03  0.12700000000E+03 0.  0.
<mgrwt>
<rscale>  0 0.52892964E+03</rscale>
<asrwt>0</asrwt>
<pdfrwt beam="1">  1        2 0.91823254E-01 0.52892964E+03</pdfrwt>
<pdfrwt beam="2">  1       -2 0.15544869E-01 0.52892964E+03</pdfrwt>
<totfact> 0.16451872E+03</totfact>
</mgrwt>
</event>
<event>
 4    1  0.9032007E-005  0.3899347E+03  0.7818608E-02  0.1047322E+00
         -2   -1    0    0    0  501 -0.00000000000E+00  0.00000000000E+00  0.68191299342E+03  0.68191299342E+03  0.25500000000E-02 0. -1.
          2   -1    0    0  501    0  0.00000000000E+00 -0.00000000000E+00 -0.55743579409E+02  0.55743579468E+02  0.25500000000E-02 0.  1.
    5000001    1    1    2    0    0  0.63326836162E+02 -0.11680694092E+03  0.19006140124E+03  0.26439834695E+03  0.12700000000E+03 0.  0.
   -5000001    1    1    2    0    0 -0.63326836162E+02  0.11680694092E+03  0.43610801276E+03  0.47325822594E+03  0.12700000000E+03 0.  0.
<mgrwt>
<rscale>  0 0.38993472E+03</rscale>
<asrwt>0</asrwt>
<pdfrwt beam="1">  1        2 0.79633687E-02 0.38993472E+03</pdfrwt>
<pdfrwt beam="2">  1       -2 0.97416139E-01 0.38993472E+03</pdfrwt>
<totfact> 0.78531364E+02</totfact>
</mgrwt>
</event>
<event>
 4    1  0.9032007E-005  0.5247630E+03  0.7818608E-02  0.1007510E+00
         -2   -1    0    0    0  501 -0.00000000000E+00  0.00000000000E+00  0.34494639214E+03  0.34494639215E+03  0.25500000000E-02 0. -1.
          2   -1    0    0  501    0  0.00000000000E+00 -0.00000000000E+00 -0.19957895738E+03  0.19957895739E+03  0.25500000000E-02 0.  1.
    5000001    1    1    2    0    0 -0.10528961124E+03 -0.14966059947E+03  0.21658149987E+03  0.31067787716E+03  0.12700000000E+03 0.  0.
   -5000001    1    1    2    0    0  0.10528961124E+03  0.14966059947E+03 -0.71214065104E+02  0.23384747238E+03  0.12700000000E+03 0.  0.
<mgrwt>
<rscale>  0 0.52476296E+03</rscale>
<asrwt>0</asrwt>
<pdfrwt beam="1">  1        2 0.28511280E-01 0.52476296E+03</pdfrwt>
<pdfrwt beam="2">  1       -2 0.49278055E-01 0.52476296E+03</pdfrwt>
<totfact> 0.73879604E+02</totfact>
</mgrwt>
</event>
<event>
 4    1  0.9032007E-005  0.3193556E+03  0.7818608E-02  0.1075946E+00
         -2   -1    0    0    0  501 -0.00000000000E+00  0.00000000000E+00  0.24258583736E+02  0.24258583870E+02  0.25500000000E-02 0. -1.
          2   -1    0    0  501    0  0.00000000000E+00 -0.00000000000E+00 -0.10510509335E+04  0.10510509335E+04  0.25500000000E-02 0.  1.
    5000001    1    1    2    0    0  0.49284035358E+02 -0.83239295902E+02 -0.52420806296E+03  0.54797882240E+03  0.12700000000E+03 0.  0.
   -5000001    1    1    2    0    0 -0.49284035358E+02  0.83239295902E+02 -0.50258428683E+03  0.52733069500E+03  0.12700000000E+03 0.  0.
<mgrwt>
<rscale>  0 0.31935565E+03</rscale>
<asrwt>0</asrwt>
<pdfrwt beam="1">  1        2 0.15015010E+00 0.31935565E+03</pdfrwt>
<pdfrwt beam="2">  1       -2 0.34655126E-02 0.31935565E+03</pdfrwt>
<totfact> 0.93004806E+03</totfact>
</mgrwt>
</event>
<event>
 4    1  0.9032007E-005  0.4438439E+03  0.7818608E-02  0.1029574E+00
         -2   -1    0    0    0  501 -0.00000000000E+00  0.00000000000E+00  0.23755821730E+03  0.23755821732E+03  0.25500000000E-02 0. -1.
          2   -1    0    0  501    0  0.00000000000E+00 -0.00000000000E+00 -0.20731485238E+03  0.20731485240E+03  0.25500000000E-02 0.  1.
    5000001    1    1    2    0    0  0.14220741066E+03  0.12768705384E+02  0.12822997151E+03  0.23012586355E+03  0.12700000000E+03 0.  0.
   -5000001    1    1    2    0    0 -0.14220741066E+03 -0.12768705384E+02 -0.97986606589E+02  0.21474720616E+03  0.12700000000E+03 0.  0.
<mgrwt>
<rscale>  0 0.44384388E+03</rscale>
<asrwt>0</asrwt>
<pdfrwt beam="1">  1        2 0.29616408E-01 0.44384388E+03</pdfrwt>
<pdfrwt beam="2">  1       -2 0.33936888E-01 0.44384388E+03</pdfrwt>
<totfact> 0.14602285E+03</totfact>
</mgrwt>
</event>
<event>
 4    1  0.9032007E-005  0.3028359E+03  0.7818608E-02  0.1083831E+00
         -2   -1    0    0    0  501 -0.00000000000E+00  0.00000000000E+00  0.16456164363E+02  0.16456164561E+02  0.25500000000E-02 0. -1.
          2   -1    0    0  501    0  0.00000000000E+00 -0.00000000000E+00 -0.13932408949E+04  0.13932408949E+04  0.25500000000E-02 0.  1.
    5000001    1    1    2    0    0 -0.64149586001E+02 -0.40000874565E+00 -0.92951308899E+03  0.94033978539E+03  0.12700000000E+03 0.  0.
   -5000001    1    1    2    0    0  0.64149586001E+02  0.40000874565E+00 -0.44727164159E+03  0.46935727411E+03  0.12700000000E+03 0.  0.
<mgrwt>
<rscale>  0 0.30283594E+03</rscale>
<asrwt>0</asrwt>
<pdfrwt beam="1">  1        2 0.19903434E+00 0.30283594E+03</pdfrwt>
<pdfrwt beam="2">  1       -2 0.23508815E-02 0.30283594E+03</pdfrwt>
<totfact> 0.10794133E+04</totfact>
</mgrwt>
</event>
<event>
 4    1  0.9032007E-005  0.6578883E+03  0.7818608E-02  0.9792089E-01
          2   -1    0    0  501    0  0.00000000000E+00  0.00000000000E+00  0.26336782559E+04  0.26336782559E+04  0.25500000000E-02 0.  1.
         -2   -1    0    0    0  501 -0.00000000000E+00 -0.00000000000E+00 -0.41084840940E+02  0.41084841020E+02  0.25500000000E-02 0. -1.
    5000001    1    1    2    0    0  0.99616204382E+02 -0.28625410374E+03  0.13552774115E+04  0.13945503441E+04  0.12700000000E+03 0.  0.
   -5000001    1    1    2    0    0 -0.99616204382E+02  0.28625410374E+03  0.12373160035E+04  0.12802127528E+04  0.12700000000E+03 0.  0.
<mgrwt>
<rscale>  0 0.65788830E+03</rscale>
<asrwt>0</asrwt>
<pdfrwt beam="1">  1        2 0.37623980E+00 0.65788830E+03</pdfrwt>
<pdfrwt beam="2">  1       -2 0.58692622E-02 0.65788830E+03</pdfrwt>
<totfact> 0.62807585E+02</totfact>
</mgrwt>
</event>
<event>
 4    1  0.9032007E-005  0.3686333E+03  0.7818608E-02  0.1055217E+00
         -2   -1    0    0    0  501 -0.00000000000E+00  0.00000000000E+00  0.39169625628E+03  0.39169625629E+03  0.25500000000E-02 0. -1.
          2   -1    0    0  501    0  0.00000000000E+00 -0.00000000000E+00 -0.86732073818E+02  0.86732073855E+02  0.25500000000E-02 0.  1.
    5000001    1    1    2    0    0  0.14946874710E+02 -0.63646395377E+02  0.30366473441E+03  0.33558239470E+03  0.12700000000E+03 0.  0.
   -5000001    1    1    2    0    0 -0.14946874710E+02  0.63646395377E+02  0.12994480543E+01  0.14284593545E+03  0.12700000000E+03 0.  0.
<mgrwt>
<rscale>  0 0.36863331E+03</rscale>
<asrwt>0</asrwt>
<pdfrwt beam="1">  1        2 0.12390296E-01 0.36863331E+03</pdfrwt>
<pdfrwt beam="2">  1       -2 0.55956609E-01 0.36863331E+03</pdfrwt>
<totfact> 0.15112148E+03</totfact>
</mgrwt>
</event>
<event>
 4    1  0.9032007E-005  0.3213114E+03  0.7818608E-02  0.1075047E+00
          2   -1    0    0  501    0  0.00000000000E+00  0.00000000000E+00  0.18516086681E+04  0.18516086681E+04  0.25500000000E-02 0.  1.
         -2   -1    0    0    0  501 -0.00000000000E+00 -0.00000000000E+00 -0.13939368681E+02  0.13939368914E+02  0.25500000000E-02 0. -1.
    5000001    1    1    2    0    0 -0.96351856742E+01 -0.88040248774E+02  0.66996363030E+03  0.68762212598E+03  0.12700000000E+03 0.  0.
   -5000001    1    1    2    0    0  0.96351856742E+01  0.88040248774E+02  0.11677056691E+04  0.11779259110E+04  0.12700000000E+03 0.  0.
<mgrwt>
<rscale>  0 0.32131141E+03</rscale>
<asrwt>0</asrwt>
<pdfrwt beam="1">  1        2 0.26451551E+00 0.32131141E+03</pdfrwt>
<pdfrwt beam="2">  1       -2 0.19913385E-02 0.32131141E+03</pdfrwt>
<totfact> 0.81395686E+03</totfact>
</mgrwt>
</event>
<event>
 4    1  0.9032007E-005  0.3589121E+03  0.7818608E-02  0.1059015E+00
          2   -1    0    0  501    0  0.00000000000E+00  0.00000000000E+00  0.83806596995E+03  0.83806596995E+03  0.25500000000E-02 0.  1.
         -2   -1    0    0    0  501 -0.00000000000E+00 -0.00000000000E+00 -0.38427128564E+02  0.38427128649E+02  0.25500000000E-02 0. -1.
    5000001    1    1    2    0    0 -0.10026117296E+03 -0.71563805869E+02  0.47315463882E+03  0.50515145585E+03  0.12700000000E+03 0.  0.
   -5000001    1    1    2    0    0  0.10026117296E+03  0.71563805869E+02  0.32648420256E+03  0.37134164274E+03  0.12700000000E+03 0.  0.
<mgrwt>
<rscale>  0 0.35891207E+03</rscale>
<asrwt>0</asrwt>
<pdfrwt beam="1">  1        2 0.11972370E+00 0.35891207E+03</pdfrwt>
<pdfrwt beam="2">  1       -2 0.54895903E-02 0.35891207E+03</pdfrwt>
<totfact> 0.62717006E+03</totfact>
</mgrwt>
</event>
<event>
 4    1  0.9032007E-005  0.6512610E+03  0.7818608E-02  0.9804416E-01
          2   -1    0    0  501    0  0.00000000000E+00  0.00000000000E+00  0.11767362090E+04  0.11767362090E+04  0.25500000000E-02 0.  1.
         -2   -1    0    0    0  501 -0.00000000000E+00 -0.00000000000E+00 -0.90109597203E+02  0.90109597239E+02  0.25500000000E-02 0. -1.
    5000001    1    1    2    0    0 -0.19214085528E+03 -0.21818252838E+03  0.40057470161E+03  0.51099003467E+03  0.12700000000E+03 0.  0.
   -5000001    1    1    2    0    0  0.19214085528E+03  0.21818252838E+03  0.68605191022E+03  0.75585577161E+03  0.12700000000E+03 0.  0.
<mgrwt>
<rscale>  0 0.65126101E+03</rscale>
<asrwt>0</asrwt>
<pdfrwt beam="1">  1        2 0.16810517E+00 0.65126101E+03</pdfrwt>
<pdfrwt beam="2">  1       -2 0.12872800E-01 0.65126101E+03</pdfrwt>
<totfact> 0.10053527E+03</totfact>
</mgrwt>
</event>
<event>
 4    1  0.9032007E-005  0.1283400E+04  0.7818608E-02  0.9042834E-01
         -2   -1    0    0    0  501 -0.00000000000E+00  0.00000000000E+00  0.10016688658E+04  0.10016688658E+04  0.25500000000E-02 0. -1.
          2   -1    0    0  501    0  0.00000000000E+00 -0.00000000000E+00 -0.41109258807E+03  0.41109258808E+03  0.25500000000E-02 0.  1.
    5000001    1    1    2    0    0 -0.47092634418E+03  0.10553560880E+03 -0.14878492741E+03  0.52074498653E+03  0.12700000000E+03 0.  0.
   -5000001    1    1    2    0    0  0.47092634418E+03 -0.10553560880E+03  0.73936120511E+03  0.89201646733E+03  0.12700000000E+03 0.  0.
<mgrwt>
<rscale>  0 0.12833996E+04</rscale>
<asrwt>0</asrwt>
<pdfrwt beam="1">  1        2 0.58727514E-01 0.12833996E+04</pdfrwt>
<pdfrwt beam="2">  1       -2 0.14309555E+00 0.12833996E+04</pdfrwt>
<totfact> 0.27930945E+01</totfact>
</mgrwt>
</event>
<event>
 4    1  0.9032007E-005  0.3162650E+03  0.7818608E-02  0.1077381E+00
         -2   -1    0    0    0  501 -0.00000000000E+00  0.00000000000E+00  0.13286869466E+02  0.13286869711E+02  0.25500000000E-02 0. -1.
          2   -1    0    0  501    0  0.00000000000E+00 -0.00000000000E+00 -0.18819995738E+04  0.18819995738E+04  0.25500000000E-02 0.  1.
    5000001    1    1    2    0    0 -0.10358176301E+02 -0.65216491583E+02 -0.53162079155E+03  0.55055440113E+03  0.12700000000E+03 0.  0.
   -5000001    1    1    2    0    0  0.10358176301E+02  0.65216491583E+02 -0.13370919128E+04  0.13447320424E+04  0.12700000000E+03 0.  0.
<mgrwt>
<rscale>  0 0.31626497E+03</rscale>
<asrwt>0</asrwt>
<pdfrwt beam="1">  1        2 0.26885691E+00 0.31626497E+03</pdfrwt>
<pdfrwt beam="2">  1       -2 0.18981254E-02 0.31626497E+03</pdfrwt>
<totfact> 0.84399827E+03</totfact>
</mgrwt>
</event>
<event>
 4    1  0.9032007E-005  0.2883608E+03  0.7818608E-02  0.1091208E+00
         -2   -1    0    0    0  501 -0.00000000000E+00  0.00000000000E+00  0.10117769412E+02  0.10117769733E+02  0.25500000000E-02 0. -1.
          2   -1    0    0  501    0  0.00000000000E+00 -0.00000000000E+00 -0.20546012495E+04  0.20546012495E+04  0.25500000000E-02 0.  1.
    5000001    1    1    2    0    0  0.66706940337E+02  0.55376772567E+01 -0.92657869250E+03  0.93763401984E+03  0.12700000000E+03 0.  0.
   -5000001    1    1    2    0    0 -0.66706940337E+02 -0.55376772567E+01 -0.11179047876E+04  0.11270849994E+04  0.12700000000E+03 0.  0.
<mgrwt>
<rscale>  0 0.28836076E+03</rscale>
<asrwt>0</asrwt>
<pdfrwt beam="1">  1        2 0.29351420E+00 0.28836076E+03</pdfrwt>
<pdfrwt beam="2">  1       -2 0.14453970E-02 0.28836076E+03</pdfrwt>
<totfact> 0.10357523E+04</totfact>
</mgrwt>
</event>
<event>
 4    1  0.9032007E-005  0.2835586E+03  0.7818608E-02  0.1093761E+00
          2   -1    0    0  501    0  0.00000000000E+00  0.00000000000E+00  0.18778737842E+03  0.18778737844E+03  0.25500000000E-02 0.  1.
         -2   -1    0    0    0  501 -0.00000000000E+00 -0.00000000000E+00 -0.10704324286E+03  0.10704324289E+03  0.25500000000E-02 0. -1.
    5000001    1    1    2    0    0 -0.30809961112E+01  0.62593387090E+02  0.47342697042E+02  0.14932433026E+03  0.12700000000E+03 0.  0.
   -5000001    1    1    2    0    0  0.30809961112E+01 -0.62593387090E+02  0.33401438523E+02  0.14550629107E+03  0.12700000000E+03 0.  0.
<mgrwt>
<rscale>  0 0.28355860E+03</rscale>
<asrwt>0</asrwt>
<pdfrwt beam="1">  1        2 0.26826768E-01 0.28355860E+03</pdfrwt>
<pdfrwt beam="2">  1       -2 0.15291892E-01 0.28355860E+03</pdfrwt>
<totfact> 0.65443354E+03</totfact>
</mgrwt>
</event>
<event>
 4    1  0.9032007E-005  0.3434731E+03  0.7818608E-02  0.1065326E+00
          2   -1    0    0  501    0  0.00000000000E+00  0.00000000000E+00  0.23195855127E+03  0.23195855129E+03  0.25500000000E-02 0.  1.
         -2   -1    0    0    0  501 -0.00000000000E+00 -0.00000000000E+00 -0.12714962637E+03  0.12714962640E+03  0.25500000000E-02 0. -1.
    5000001    1    1    2    0    0 -0.10095363287E+03 -0.47935236834E+02  0.21477191102E+02  0.17052768883E+03  0.12700000000E+03 0.  0.
   -5000001    1    1    2    0    0  0.10095363287E+03  0.47935236834E+02  0.83331733803E+02  0.18858048886E+03  0.12700000000E+03 0.  0.
<mgrwt>
<rscale>  0 0.34347310E+03</rscale>
<asrwt>0</asrwt>
<pdfrwt beam="1">  1        2 0.33136936E-01 0.34347310E+03</pdfrwt>
<pdfrwt beam="2">  1       -2 0.18164232E-01 0.34347310E+03</pdfrwt>
<totfact> 0.39074795E+03</totfact>
</mgrwt>
</event>
<event>
 4    1  0.9032007E-005  0.5553134E+03  0.7818608E-02  0.1000272E+00
         -2   -1    0    0    0  501 -0.00000000000E+00  0.00000000000E+00  0.67001420472E+02  0.67001420520E+02  0.25500000000E-02 0. -1.
          2   -1    0    0  501    0  0.00000000000E+00 -0.00000000000E+00 -0.11506209066E+04  0.11506209066E+04  0.25500000000E-02 0.  1.
    5000001    1    1    2    0    0  0.10534292067E+03 -0.20914495455E+03 -0.37019880350E+03  0.45608650173E+03  0.12700000000E+03 0.  0.
   -5000001    1    1    2    0    0 -0.10534292067E+03  0.20914495455E+03 -0.71342068262E+03  0.76153582538E+03  0.12700000000E+03 0.  0.
<mgrwt>
<rscale>  0 0.55531337E+03</rscale>
<asrwt>0</asrwt>
<pdfrwt beam="1">  1        2 0.16437440E+00 0.55531337E+03</pdfrwt>
<pdfrwt beam="2">  1       -2 0.95716322E-02 0.55531337E+03</pdfrwt>
<totfact> 0.16929914E+03</totfact>
</mgrwt>
</event>
<event>
 4    1  0.9032007E-005  0.4361295E+03  0.7818608E-02  0.1031941E+00
         -2   -1    0    0    0  501 -0.00000000000E+00  0.00000000000E+00  0.42999092451E+02  0.42999092527E+02  0.25500000000E-02 0. -1.
          2   -1    0    0  501    0  0.00000000000E+00 -0.00000000000E+00 -0.11058893424E+04  0.11058893424E+04  0.25500000000E-02 0.  1.
    5000001    1    1    2    0    0  0.76128191286E+02  0.59482580519E+02 -0.92296688638E+03  0.93665925087E+03  0.12700000000E+03 0.  0.
   -5000001    1    1    2    0    0 -0.76128191286E+02 -0.59482580519E+02 -0.13992336358E+03  0.21222918406E+03  0.12700000000E+03 0.  0.
<mgrwt>
<rscale>  0 0.43612951E+03</rscale>
<asrwt>0</asrwt>
<pdfrwt beam="1">  1        2 0.15798417E+00 0.43612951E+03</pdfrwt>
<pdfrwt beam="2">  1       -2 0.61427282E-02 0.43612951E+03</pdfrwt>
<totfact> 0.36250214E+03</totfact>
</mgrwt>
</event>
<event>
 4    1  0.9032007E-005  0.5064805E+03  0.7818608E-02  0.1012101E+00
          2   -1    0    0  501    0  0.00000000000E+00  0.00000000000E+00  0.72015921899E+03  0.72015921900E+03  0.25500000000E-02 0.  1.
         -2   -1    0    0    0  501 -0.00000000000E+00 -0.00000000000E+00 -0.89050625247E+02  0.89050625283E+02  0.25500000000E-02 0. -1.
    5000001    1    1    2    0    0  0.14479156593E+03  0.15584377301E+03  0.23177340366E+03  0.33926359928E+03  0.12700000000E+03 0.  0.
   -5000001    1    1    2    0    0 -0.14479156593E+03 -0.15584377301E+03  0.39933519008E+03  0.46994624500E+03  0.12700000000E+03 0.  0.
<mgrwt>
<rscale>  0 0.50648052E+03</rscale>
<asrwt>0</asrwt>
<pdfrwt beam="1">  1        2 0.10287988E+00 0.50648052E+03</pdfrwt>
<pdfrwt beam="2">  1       -2 0.12721519E-01 0.50648052E+03</pdfrwt>
<totfact> 0.20029117E+03</totfact>
</mgrwt>
</event>
<event>
 4    1  0.9032007E-005  0.6566013E+03  0.7818608E-02  0.9794470E-01
          2   -1    0    0  501    0  0.00000000000E+00  0.00000000000E+00  0.12489384665E+04  0.12489384666E+04  0.25500000000E-02 0.  1.
         -2   -1    0    0    0  501 -0.00000000000E+00 -0.00000000000E+00 -0.86298352404E+02  0.86298352442E+02  0.25500000000E-02 0. -1.
    5000001    1    1    2    0    0 -0.14800262633E+03 -0.24528308120E+03  0.78039866719E+03  0.84096352304E+03  0.12700000000E+03 0.  0.
   -5000001    1    1    2    0    0  0.14800262633E+03  0.24528308120E+03  0.38224144695E+03  0.49427329595E+03  0.12700000000E+03 0.  0.
<mgrwt>
<rscale>  0 0.65660135E+03</rscale>
<asrwt>0</asrwt>
<pdfrwt beam="1">  1        2 0.17841978E+00 0.65660135E+03</pdfrwt>
<pdfrwt beam="2">  1       -2 0.12328336E-01 0.65660135E+03</pdfrwt>
<totfact> 0.98379978E+02</totfact>
</mgrwt>
</event>
<event>
 4    1  0.9032007E-005  0.3098382E+03  0.7818608E-02  0.1080423E+00
         -2   -1    0    0    0  501 -0.00000000000E+00  0.00000000000E+00  0.58908947876E+01  0.58908953395E+01  0.25500000000E-02 0. -1.
          2   -1    0    0  501    0  0.00000000000E+00 -0.00000000000E+00 -0.40740722663E+04  0.40740722663E+04  0.25500000000E-02 0.  1.
    5000001    1    1    2    0    0 -0.81136477973E+02  0.16579373388E+02 -0.16149974613E+04  0.16220985802E+04  0.12700000000E+03 0.  0.
   -5000001    1    1    2    0    0  0.81136477973E+02 -0.16579373388E+02 -0.24531839102E+04  0.24578645815E+04  0.12700000000E+03 0.  0.
<mgrwt>
<rscale>  0 0.30983823E+03</rscale>
<asrwt>0</asrwt>
<pdfrwt beam="1">  1        2 0.58200852E+00 0.30983823E+03</pdfrwt>
<pdfrwt beam="2">  1       -2 0.84155905E-03 0.30983823E+03</pdfrwt>
<totfact> 0.17630233E+03</totfact>
</mgrwt>
</event>
<event>
 4    1  0.9032007E-005  0.3117870E+03  0.7818608E-02  0.1079492E+00
          2   -1    0    0  501    0  0.00000000000E+00  0.00000000000E+00  0.37075517294E+03  0.37075517295E+03  0.25500000000E-02 0.  1.
         -2   -1    0    0    0  501 -0.00000000000E+00 -0.00000000000E+00 -0.65549421588E+02  0.65549421638E+02  0.25500000000E-02 0. -1.
    5000001    1    1    2    0    0  0.74202589197E+02 -0.50243920684E+02  0.13585066877E+03  0.20643371821E+03  0.12700000000E+03 0.  0.
   -5000001    1    1    2    0    0 -0.74202589197E+02  0.50243920684E+02  0.16935508258E+03  0.22987087637E+03  0.12700000000E+03 0.  0.
<mgrwt>
<rscale>  0 0.31178702E+03</rscale>
<asrwt>0</asrwt>
<pdfrwt beam="1">  1        2 0.52965026E-01 0.31178702E+03</pdfrwt>
<pdfrwt beam="2">  1       -2 0.93642029E-02 0.31178702E+03</pdfrwt>
<totfact> 0.69292018E+03</totfact>
</mgrwt>
</event>
<event>
 4    1  0.9032007E-005  0.3539118E+03  0.7818608E-02  0.1061021E+00
          2   -1    0    0  501    0  0.00000000000E+00  0.00000000000E+00  0.66907149793E+03  0.66907149793E+03  0.25500000000E-02 0.  1.
         -2   -1    0    0    0  501 -0.00000000000E+00 -0.00000000000E+00 -0.46801254970E+02  0.46801255039E+02  0.25500000000E-02 0. -1.
    5000001    1    1    2    0    0 -0.62404271759E+02 -0.10616902780E+03  0.30249864676E+03  0.35042914675E+03  0.12700000000E+03 0.  0.
   -5000001    1    1    2    0    0  0.62404271759E+02  0.10616902780E+03  0.31977159620E+03  0.36544360623E+03  0.12700000000E+03 0.  0.
<mgrwt>
<rscale>  0 0.35391177E+03</rscale>
<asrwt>0</asrwt>
<pdfrwt beam="1">  1        2 0.95581638E-01 0.35391177E+03</pdfrwt>
<pdfrwt beam="2">  1       -2 0.66858939E-02 0.35391177E+03</pdfrwt>
<totfact> 0.60920255E+03</totfact>
</mgrwt>
</event>
<event>
 4    1  0.9032007E-005  0.7531406E+03  0.7818608E-02  0.9630436E-01
         -2   -1    0    0    0  501 -0.00000000000E+00  0.00000000000E+00  0.46880785692E+02  0.46880785761E+02  0.25500000000E-02 0. -1.
          2   -1    0    0  501    0  0.00000000000E+00 -0.00000000000E+00 -0.30248043029E+04  0.30248043029E+04  0.25500000000E-02 0.  1.
    5000001    1    1    2    0    0  0.49165439878E+02 -0.33626076512E+03 -0.19006209606E+04  0.19349360658E+04  0.12700000000E+03 0.  0.
   -5000001    1    1    2    0    0 -0.49165439878E+02  0.33626076512E+03 -0.10773025566E+04  0.11367490229E+04  0.12700000000E+03 0.  0.
<mgrwt>
<rscale>  0 0.75314063E+03</rscale>
<asrwt>0</asrwt>
<pdfrwt beam="1">  1        2 0.43211478E+00 0.75314063E+03</pdfrwt>
<pdfrwt beam="2">  1       -2 0.66972570E-02 0.75314063E+03</pdfrwt>
<totfact> 0.31258750E+02</totfact>
</mgrwt>
</event>
<event>
 4    1  0.9032007E-005  0.5699441E+03  0.7818608E-02  0.9969802E-01
         -2   -1    0    0    0  501 -0.00000000000E+00  0.00000000000E+00  0.10825339126E+03  0.10825339129E+03  0.25500000000E-02 0.  1.
          2   -1    0    0  501    0  0.00000000000E+00 -0.00000000000E+00 -0.75017579041E+03  0.75017579042E+03  0.25500000000E-02 0. -1.
    5000001    1    1    2    0    0 -0.21685811881E+03  0.13292099377E+03 -0.35050041180E+03  0.45130363720E+03  0.12700000000E+03 0.  0.
   -5000001    1    1    2    0    0  0.21685811881E+03 -0.13292099377E+03 -0.29142198735E+03  0.40712554451E+03  0.12700000000E+03 0.  0.
<mgrwt>
<rscale>  0 0.56994411E+03</rscale>
<asrwt>0</asrwt>
<pdfrwt beam="1">  1        2 0.10716797E+00 0.56994411E+03</pdfrwt>
<pdfrwt beam="2">  1       -2 0.15464771E-01 0.56994411E+03</pdfrwt>
<totfact> 0.13745800E+03</totfact>
</mgrwt>
</event>
<event>
 4    1  0.9032007E-005  0.4371215E+03  0.7818608E-02  0.1031634E+00
         -2   -1    0    0    0  501 -0.00000000000E+00  0.00000000000E+00  0.20726768543E+02  0.20726768699E+02  0.25500000000E-02 0. -1.
          2   -1    0    0  501    0  0.00000000000E+00 -0.00000000000E+00 -0.23046907227E+04  0.23046907227E+04  0.25500000000E-02 0.  1.
    5000001    1    1    2    0    0 -0.19355826780E+02  0.17666088944E+03 -0.11021458124E+04  0.11235827115E+04  0.12700000000E+03 0.  0.
   -5000001    1    1    2    0    0  0.19355826780E+02 -0.17666088944E+03 -0.11818181417E+04  0.12018347798E+04  0.12700000000E+03 0.  0.
<mgrwt>
<rscale>  0 0.43712145E+03</rscale>
<asrwt>0</asrwt>
<pdfrwt beam="1">  1        2 0.32924137E+00 0.43712145E+03</pdfrwt>
<pdfrwt beam="2">  1       -2 0.29609684E-02 0.43712145E+03</pdfrwt>
<totfact> 0.26837089E+03</totfact>
</mgrwt>
</event>
<event>
 4    1  0.9032007E-005  0.4664822E+03  0.7818608E-02  0.1022918E+00
          2   -1    0    0  501    0  0.00000000000E+00  0.00000000000E+00  0.63739958761E+03  0.63739958761E+03  0.25500000000E-02 0.  1.
         -2   -1    0    0    0  501 -0.00000000000E+00 -0.00000000000E+00 -0.85348993093E+02  0.85348993131E+02  0.25500000000E-02 0. -1.
    5000001    1    1    2    0    0 -0.75441923915E+02  0.12673458657E+03  0.76890279931E+02  0.20927076830E+03  0.12700000000E+03 0.  0.
   -5000001    1    1    2    0    0  0.75441923915E+02 -0.12673458657E+03  0.47516031459E+03  0.51347781245E+03  0.12700000000E+03 0.  0.
<mgrwt>
<rscale>  0 0.46648221E+03</rscale>
<asrwt>0</asrwt>
<pdfrwt beam="1">  1        2 0.91057087E-01 0.46648221E+03</pdfrwt>
<pdfrwt beam="2">  1       -2 0.12192713E-01 0.46648221E+03</pdfrwt>
<totfact> 0.24866912E+03</totfact>
</mgrwt>
</event>
<event>
 4    1  0.9032007E-005  0.3294587E+03  0.7818608E-02  0.1071377E+00
         -2   -1    0    0    0  501 -0.00000000000E+00  0.00000000000E+00  0.20079046093E+02  0.20079046255E+02  0.25500000000E-02 0. -1.
          2   -1    0    0  501    0  0.00000000000E+00 -0.00000000000E+00 -0.13514464814E+04  0.13514464814E+04  0.25500000000E-02 0.  1.
    5000001    1    1    2    0    0  0.72886367191E+02  0.74282257566E+02 -0.61038046508E+03  0.63207878343E+03  0.12700000000E+03 0.  0.
   -5000001    1    1    2    0    0 -0.72886367191E+02 -0.74282257566E+02 -0.72098697025E+03  0.73944674425E+03  0.12700000000E+03 0.  0.
<mgrwt>
<rscale>  0 0.32945869E+03</rscale>
<asrwt>0</asrwt>
<pdfrwt beam="1">  1        2 0.19306373E+00 0.32945869E+03</pdfrwt>
<pdfrwt beam="2">  1       -2 0.28684360E-02 0.32945869E+03</pdfrwt>
<totfact> 0.84563620E+03</totfact>
</mgrwt>
</event>
<event>
 4    1  0.9032007E-005  0.8032880E+03  0.7818608E-02  0.9555270E-01
          2   -1    0    0  501    0  0.00000000000E+00  0.00000000000E+00  0.36019989076E+04  0.36019989076E+04  0.25500000000E-02 0.  1.
         -2   -1    0    0    0  501 -0.00000000000E+00 -0.00000000000E+00 -0.44785663366E+02  0.44785663439E+02  0.25500000000E-02 0. -1.
    5000001    1    1    2    0    0 -0.10130316811E+03 -0.30026033263E+03  0.81802587791E+03  0.88640506324E+03  0.12700000000E+03 0.  0.
   -5000001    1    1    2    0    0  0.10130316811E+03  0.30026033263E+03  0.27391873663E+04  0.27603795078E+04  0.12700000000E+03 0.  0.
<mgrwt>
<rscale>  0 0.80328802E+03</rscale>
<asrwt>0</asrwt>
<pdfrwt beam="1">  1        2 0.51457120E+00 0.80328802E+03</pdfrwt>
<pdfrwt beam="2">  1       -2 0.63979528E-02 0.80328802E+03</pdfrwt>
<totfact> 0.15500128E+02</totfact>
</mgrwt>
</event>
<event>
 4    1  0.9032007E-005  0.3301285E+03  0.7818608E-02  0.1071080E+00
         -2   -1    0    0    0  501 -0.00000000000E+00  0.00000000000E+00  0.13966235011E+02  0.13966235244E+02  0.25500000000E-02 0. -1.
          2   -1    0    0  501    0  0.00000000000E+00 -0.00000000000E+00 -0.19508630849E+04  0.19508630849E+04  0.25500000000E-02 0.  1.
    5000001    1    1    2    0    0 -0.74589806354E+02  0.64546890691E+02 -0.11901264339E+04  0.12009412429E+04  0.12700000000E+03 0.  0.
   -5000001    1    1    2    0    0  0.74589806354E+02 -0.64546890691E+02 -0.74677041598E+03  0.76388807720E+03  0.12700000000E+03 0.  0.
<mgrwt>
<rscale>  0 0.33012854E+03</rscale>
<asrwt>0</asrwt>
<pdfrwt beam="1">  1        2 0.27869455E+00 0.33012854E+03</pdfrwt>
<pdfrwt beam="2">  1       -2 0.19951777E-02 0.33012854E+03</pdfrwt>
<totfact> 0.72559176E+03</totfact>
</mgrwt>
</event>
<event>
 4    1  0.9032007E-005  0.5229104E+03  0.7818608E-02  0.1007966E+00
          2   -1    0    0  501    0  0.00000000000E+00  0.00000000000E+00  0.15898528807E+04  0.15898528807E+04  0.25500000000E-02 0.  1.
         -2   -1    0    0    0  501 -0.00000000000E+00 -0.00000000000E+00 -0.42996944625E+02  0.42996944700E+02  0.25500000000E-02 0. -1.
    5000001    1    1    2    0    0 -0.15314376574E+03  0.62556737526E+02  0.12658072219E+04  0.12828730574E+04  0.12700000000E+03 0.  0.
   -5000001    1    1    2    0    0  0.15314376574E+03 -0.62556737526E+02  0.28104871415E+03  0.34997676797E+03  0.12700000000E+03 0.  0.
<mgrwt>
<rscale>  0 0.52291038E+03</rscale>
<asrwt>0</asrwt>
<pdfrwt beam="1">  1        2 0.22712182E+00 0.52291038E+03</pdfrwt>
<pdfrwt beam="2">  1       -2 0.61424213E-02 0.52291038E+03</pdfrwt>
<totfact> 0.19934259E+03</totfact>
</mgrwt>
</event>
<event>
 4    1  0.9032007E-005  0.6058985E+03  0.7818608E-02  0.9893243E-01
          2   -1    0    0  501    0  0.00000000000E+00  0.00000000000E+00  0.26920787127E+04  0.26920787127E+04  0.25500000000E-02 0.  1.
         -2   -1    0    0    0  501 -0.00000000000E+00 -0.00000000000E+00 -0.34091967078E+02  0.34091967173E+02  0.25500000000E-02 0. -1.
    5000001    1    1    2    0    0  0.24063712985E+03 -0.97226111703E+02  0.17386626434E+04  0.17625084206E+04  0.12700000000E+03 0.  0.
   -5000001    1    1    2    0    0 -0.24063712985E+03  0.97226111703E+02  0.91932410218E+03  0.96366225925E+03  0.12700000000E+03 0.  0.
<mgrwt>
<rscale>  0 0.60589854E+03</rscale>
<asrwt>0</asrwt>
<pdfrwt beam="1">  1        2 0.38458274E+00 0.60589854E+03</pdfrwt>
<pdfrwt beam="2">  1       -2 0.48702801E-02 0.60589854E+03</pdfrwt>
<totfact> 0.78636552E+02</totfact>
</mgrwt>
</event>
<event>
 4    1  0.9032007E-005  0.3173991E+03  0.7818608E-02  0.1076853E+00
         -2   -1    0    0    0  501 -0.00000000000E+00  0.00000000000E+00  0.20678073191E+03  0.20678073193E+03  0.25500000000E-02 0. -1.
          2   -1    0    0  501    0  0.00000000000E+00 -0.00000000000E+00 -0.12179834847E+03  0.12179834850E+03  0.25500000000E-02 0.  1.
    5000001    1    1    2    0    0  0.61161171776E+02  0.58826014564E+02 -0.20999501987E+01  0.15275666504E+03  0.12700000000E+03 0.  0.
   -5000001    1    1    2    0    0 -0.61161171776E+02 -0.58826014564E+02  0.87082333637E+02  0.17582241539E+03  0.12700000000E+03 0.  0.
<mgrwt>
<rscale>  0 0.31739913E+03</rscale>
<asrwt>0</asrwt>
<pdfrwt beam="1">  1        2 0.17399764E-01 0.31739913E+03</pdfrwt>
<pdfrwt beam="2">  1       -2 0.29540104E-01 0.31739913E+03</pdfrwt>
<totfact> 0.34404519E+03</totfact>
</mgrwt>
</event>
<event>
 4    1  0.9032007E-005  0.6264066E+03  0.7818608E-02  0.9852086E-01
         -2   -1    0    0    0  501 -0.00000000000E+00  0.00000000000E+00  0.81270824026E+02  0.81270824066E+02  0.25500000000E-02 0. -1.
          2   -1    0    0  501    0  0.00000000000E+00 -0.00000000000E+00 -0.12070296299E+04  0.12070296299E+04  0.25500000000E-02 0.  1.
    5000001    1    1    2    0    0 -0.16975771233E+03 -0.19387448902E+03 -0.30631424458E+03  0.41995525335E+03  0.12700000000E+03 0.  0.
   -5000001    1    1    2    0    0  0.16975771233E+03  0.19387448902E+03 -0.81944456127E+03  0.86834520059E+03  0.12700000000E+03 0.  0.
<mgrwt>
<rscale>  0 0.62640655E+03</rscale>
<asrwt>0</asrwt>
<pdfrwt beam="1">  1        2 0.17243279E+00 0.62640655E+03</pdfrwt>
<pdfrwt beam="2">  1       -2 0.11610118E-01 0.62640655E+03</pdfrwt>
<totfact> 0.11471519E+03</totfact>
</mgrwt>
</event>
<event>
 4    1  0.9032007E-005  0.5032848E+03  0.7818608E-02  0.1012925E+00
          2   -1    0    0  501    0  0.00000000000E+00  0.00000000000E+00  0.31217265240E+04  0.31217265240E+04  0.25500000000E-02 0.  1.
         -2   -1    0    0    0  501 -0.00000000000E+00 -0.00000000000E+00 -0.20284893728E+02  0.20284893888E+02  0.25500000000E-02 0. -1.
    5000001    1    1    2    0    0 -0.14492949023E+03 -0.12881238494E+03  0.21623351121E+04  0.21747228156E+04  0.12700000000E+03 0.  0.
   -5000001    1    1    2    0    0  0.14492949023E+03  0.12881238494E+03  0.93910651816E+03  0.96728860228E+03  0.12700000000E+03 0.  0.
<mgrwt>
<rscale>  0 0.50328477E+03</rscale>
<asrwt>0</asrwt>
<pdfrwt beam="1">  1        2 0.44596052E+00 0.50328477E+03</pdfrwt>
<pdfrwt beam="2">  1       -2 0.28978447E-02 0.50328477E+03</pdfrwt>
<totfact> 0.10334794E+03</totfact>
</mgrwt>
</event>
<event>
 4    1  0.9032007E-005  0.3356571E+03  0.7818608E-02  0.1068661E+00
         -2   -1    0    0    0  501 -0.00000000000E+00  0.00000000000E+00  0.51969411986E+02  0.51969412049E+02  0.25500000000E-02 0. -1.
          2   -1    0    0  501    0  0.00000000000E+00 -0.00000000000E+00 -0.54198079880E+03  0.54198079881E+03  0.25500000000E-02 0.  1.
    5000001    1    1    2    0    0  0.76152500288E+02  0.26322728775E+02 -0.37677615017E+03  0.40568627866E+03  0.12700000000E+03 0.  0.
   -5000001    1    1    2    0    0 -0.76152500288E+02 -0.26322728775E+02 -0.11323523664E+03  0.18826393220E+03  0.12700000000E+03 0.  0.
<mgrwt>
<rscale>  0 0.33565711E+03</rscale>
<asrwt>0</asrwt>
<pdfrwt beam="1">  1        2 0.77425825E-01 0.33565711E+03</pdfrwt>
<pdfrwt beam="2">  1       -2 0.74242020E-02 0.33565711E+03</pdfrwt>
<totfact> 0.65897300E+03</totfact>
</mgrwt>
</event>
<event>
 4    1  0.9032007E-005  0.4313956E+03  0.7818608E-02  0.1033420E+00
         -2   -1    0    0    0  501 -0.00000000000E+00  0.00000000000E+00  0.27145206766E+02  0.27145206886E+02  0.25500000000E-02 0. -1.
          2   -1    0    0  501    0  0.00000000000E+00 -0.00000000000E+00 -0.17139502639E+04  0.17139502639E+04  0.25500000000E-02 0.  1.
    5000001    1    1    2    0    0 -0.40453689357E+02  0.15837683572E+03 -0.10881299181E+04  0.11076440953E+04  0.12700000000E+03 0.  0.
   -5000001    1    1    2    0    0  0.40453689357E+02 -0.15837683572E+03 -0.59867513903E+03  0.63345137554E+03  0.12700000000E+03 0.  0.
<mgrwt>
<rscale>  0 0.43139557E+03</rscale>
<asrwt>0</asrwt>
<pdfrwt beam="1">  1        2 0.24484997E+00 0.43139557E+03</pdfrwt>
<pdfrwt beam="2">  1       -2 0.38778878E-02 0.43139557E+03</pdfrwt>
<totfact> 0.35113432E+03</totfact>
</mgrwt>
</event>
<event>
 4    1  0.9032007E-005  0.3472749E+03  0.7818608E-02  0.1063739E+00
          2   -1    0    0  501    0  0.00000000000E+00  0.00000000000E+00  0.49544626713E+03  0.49544626714E+03  0.25500000000E-02 0.  1.
         -2   -1    0    0    0  501 -0.00000000000E+00 -0.00000000000E+00 -0.60854141765E+02  0.60854141818E+02  0.25500000000E-02 0. -1.
    5000001    1    1    2    0    0  0.66687137704E+02 -0.66948574181E+02  0.10299080178E+03  0.18885282940E+03  0.12700000000E+03 0.  0.
   -5000001    1    1    2    0    0 -0.66687137704E+02  0.66948574181E+02  0.33160132359E+03  0.36744757956E+03  0.12700000000E+03 0.  0.
<mgrwt>
<rscale>  0 0.34727486E+03</rscale>
<asrwt>0</asrwt>
<pdfrwt beam="1">  1        2 0.70778039E-01 0.34727486E+03</pdfrwt>
<pdfrwt beam="2">  1       -2 0.86934487E-02 0.34727486E+03</pdfrwt>
<totfact> 0.56918706E+03</totfact>
</mgrwt>
</event>
<event>
 4    1  0.9032007E-005  0.3916975E+03  0.7818608E-02  0.1046693E+00
         -2   -1    0    0    0  501 -0.00000000000E+00  0.00000000000E+00  0.40638791130E+02  0.40638791210E+02  0.25500000000E-02 0. -1.
          2   -1    0    0  501    0  0.00000000000E+00 -0.00000000000E+00 -0.94384545408E+03  0.94384545408E+03  0.25500000000E-02 0.  1.
    5000001    1    1    2    0    0  0.89140320643E+02  0.11522677979E+03 -0.37194346749E+03  0.41915886076E+03  0.12700000000E+03 0.  0.
   -5000001    1    1    2    0    0 -0.89140320643E+02 -0.11522677979E+03 -0.53126319546E+03  0.56532538453E+03  0.12700000000E+03 0.  0.
<mgrwt>
<rscale>  0 0.39169753E+03</rscale>
<asrwt>0</asrwt>
<pdfrwt beam="1">  1        2 0.13483505E+00 0.39169753E+03</pdfrwt>
<pdfrwt beam="2">  1       -2 0.58055422E-02 0.39169753E+03</pdfrwt>
<totfact> 0.49330114E+03</totfact>
</mgrwt>
</event>
<event>
 4    1  0.9032007E-005  0.6340426E+03  0.7818608E-02  0.9837192E-01
         -2   -1    0    0    0  501 -0.00000000000E+00  0.00000000000E+00  0.20380028954E+03  0.20380028956E+03  0.25500000000E-02 0. -1.
          2   -1    0    0  501    0  0.00000000000E+00 -0.00000000000E+00 -0.49314210457E+03  0.49314210458E+03  0.25500000000E-02 0.  1.
    5000001    1    1    2    0    0 -0.71669533671E+02 -0.15318369792E+03 -0.40425945571E+03  0.45624168474E+03  0.12700000000E+03 0.  0.
   -5000001    1    1    2    0    0  0.71669533671E+02  0.15318369792E+03  0.11491764068E+03  0.24070070940E+03  0.12700000000E+03 0.  0.
<mgrwt>
<rscale>  0 0.63404260E+03</rscale>
<asrwt>0</asrwt>
<pdfrwt beam="1">  1        2 0.70448872E-01 0.63404260E+03</pdfrwt>
<pdfrwt beam="2">  1       -2 0.29114327E-01 0.63404260E+03</pdfrwt>
<totfact> 0.74234974E+02</totfact>
</mgrwt>
</event>
<event>
 4    1  0.9032007E-005  0.6259478E+03  0.7818608E-02  0.9852988E-01
         -2   -1    0    0    0  501 -0.00000000000E+00  0.00000000000E+00  0.29152031461E+03  0.29152031462E+03  0.25500000000E-02 0. -1.
          2   -1    0    0  501    0  0.00000000000E+00 -0.00000000000E+00 -0.33600630088E+03  0.33600630089E+03  0.25500000000E-02 0.  1.
    5000001    1    1    2    0    0  0.27592350104E+01  0.16461451110E+03  0.21226604408E+03  0.29713872873E+03  0.12700000000E+03 0.  0.
   -5000001    1    1    2    0    0 -0.27592350104E+01 -0.16461451110E+03 -0.25675203035E+03  0.33038788678E+03  0.12700000000E+03 0.  0.
<mgrwt>
<rscale>  0 0.62594780E+03</rscale>
<asrwt>0</asrwt>
<pdfrwt beam="1">  1        2 0.48000900E-01 0.62594780E+03</pdfrwt>
<pdfrwt beam="2">  1       -2 0.41645759E-01 0.62594780E+03</pdfrwt>
<totfact> 0.57804841E+02</totfact>
</mgrwt>
</event>
<event>
 4    1  0.9032007E-005  0.3180539E+03  0.7818608E-02  0.1076548E+00
         -2   -1    0    0    0  501 -0.00000000000E+00  0.00000000000E+00  0.12115171361E+03  0.12115171364E+03  0.25500000000E-02 0. -1.
          2   -1    0    0  501    0  0.00000000000E+00 -0.00000000000E+00 -0.20874299896E+03  0.20874299897E+03  0.25500000000E-02 0.  1.
    5000001    1    1    2    0    0 -0.69688165507E+02  0.65240162119E+02 -0.50970753449E+02  0.16685244041E+03  0.12700000000E+03 0.  0.
   -5000001    1    1    2    0    0  0.69688165507E+02 -0.65240162119E+02 -0.36620531897E+02  0.16304227219E+03  0.12700000000E+03 0.  0.
<mgrwt>
<rscale>  0 0.31805391E+03</rscale>
<asrwt>0</asrwt>
<pdfrwt beam="1">  1        2 0.29820428E-01 0.31805391E+03</pdfrwt>
<pdfrwt beam="2">  1       -2 0.17307388E-01 0.31805391E+03</pdfrwt>
<totfact> 0.47516765E+03</totfact>
</mgrwt>
</event>
<event>
 4    1  0.9032007E-005  0.5652220E+03  0.7818608E-02  0.9980308E-01
          2   -1    0    0  501    0  0.00000000000E+00  0.00000000000E+00  0.37947386262E+03  0.37947386263E+03  0.25500000000E-02 0.  1.
         -2   -1    0    0    0  501 -0.00000000000E+00 -0.00000000000E+00 -0.21047295591E+03  0.21047295592E+03  0.25500000000E-02 0. -1.
    5000001    1    1    2    0    0 -0.11455946509E+03 -0.85445627145E+02  0.30172742194E+03  0.35720199243E+03  0.12700000000E+03 0.  0.
   -5000001    1    1    2    0    0  0.11455946509E+03  0.85445627145E+02 -0.13272651523E+03  0.23274482612E+03  0.12700000000E+03 0.  0.
<mgrwt>
<rscale>  0 0.56522203E+03</rscale>
<asrwt>0</asrwt>
<pdfrwt beam="1">  1        2 0.54210552E-01 0.56522203E+03</pdfrwt>
<pdfrwt beam="2">  1       -2 0.30067565E-01 0.56522203E+03</pdfrwt>
<totfact> 0.93884960E+02</totfact>
</mgrwt>
</event>
<event>
 4    1  0.9032007E-005  0.3823722E+03  0.7818608E-02  0.1050060E+00
          2   -1    0    0  501    0  0.00000000000E+00  0.00000000000E+00  0.33002718670E+03  0.33002718671E+03  0.25500000000E-02 0.  1.
         -2   -1    0    0    0  501 -0.00000000000E+00 -0.00000000000E+00 -0.11075489267E+03  0.11075489270E+03  0.25500000000E-02 0. -1.
    5000001    1    1    2    0    0  0.12601317545E+03 -0.24837122785E+02  0.18187382627E+03  0.25632653343E+03  0.12700000000E+03 0.  0.
   -5000001    1    1    2    0    0 -0.12601317545E+03  0.24837122785E+02  0.37398467758E+02  0.18445554599E+03  0.12700000000E+03 0.  0.
<mgrwt>
<rscale>  0 0.38237220E+03</rscale>
<asrwt>0</asrwt>
<pdfrwt beam="1">  1        2 0.47146742E-01 0.38237220E+03</pdfrwt>
<pdfrwt beam="2">  1       -2 0.15822127E-01 0.38237220E+03</pdfrwt>
<totfact> 0.33655567E+03</totfact>
</mgrwt>
</event>
<event>
 4    1  0.9032007E-005  0.1037227E+04  0.7818608E-02  0.9268631E-01
          2   -1    0    0  501    0  0.00000000000E+00  0.00000000000E+00  0.37950289259E+04  0.37950289259E+04  0.25500000000E-02 0.  1.
         -2   -1    0    0    0  501 -0.00000000000E+00 -0.00000000000E+00 -0.70871689153E+02  0.70871689199E+02  0.25500000000E-02 0. -1.
    5000001    1    1    2    0    0 -0.17465415186E+03 -0.38315228224E+03  0.28863420583E+04  0.29196590934E+04  0.12700000000E+03 0.  0.
   -5000001    1    1    2    0    0  0.17465415186E+03  0.38315228224E+03  0.83781517840E+03  0.94624152166E+03  0.12700000000E+03 0.  0.
<mgrwt>
<rscale>  0 0.10372273E+04</rscale>
<asrwt>0</asrwt>
<pdfrwt beam="1">  1        2 0.54214716E+00 0.10372273E+04</pdfrwt>
<pdfrwt beam="2">  1       -2 0.10124524E-01 0.10372273E+04</pdfrwt>
<totfact> 0.54606051E+01</totfact>
</mgrwt>
</event>
<event>
 4    1  0.9032007E-005  0.3313779E+03  0.7818608E-02  0.1070529E+00
          2   -1    0    0  501    0  0.00000000000E+00  0.00000000000E+00  0.34814952624E+03  0.34814952625E+03  0.25500000000E-02 0.  1.
         -2   -1    0    0    0  501 -0.00000000000E+00 -0.00000000000E+00 -0.78853573188E+02  0.78853573229E+02  0.25500000000E-02 0. -1.
    5000001    1    1    2    0    0 -0.70346171187E+02  0.78862163343E+02  0.11855327115E+03  0.20335118074E+03  0.12700000000E+03 0.  0.
   -5000001    1    1    2    0    0  0.70346171187E+02 -0.78862163343E+02  0.15074268190E+03  0.22365191874E+03  0.12700000000E+03 0.  0.
<mgrwt>
<rscale>  0 0.33137794E+03</rscale>
<asrwt>0</asrwt>
<pdfrwt beam="1">  1        2 0.49735647E-01 0.33137794E+03</pdfrwt>
<pdfrwt beam="2">  1       -2 0.11264796E-01 0.33137794E+03</pdfrwt>
<totfact> 0.55306270E+03</totfact>
</mgrwt>
</event>
<event>
 4    1  0.9032007E-005  0.3181363E+03  0.7818608E-02  0.1076510E+00
          2   -1    0    0  501    0  0.00000000000E+00  0.00000000000E+00  0.67970041070E+03  0.67970041071E+03  0.25500000000E-02 0.  1.
         -2   -1    0    0    0  501 -0.00000000000E+00 -0.00000000000E+00 -0.37226216138E+02  0.37226216225E+02  0.25500000000E-02 0. -1.
    5000001    1    1    2    0    0  0.85867248774E+02  0.42355910668E+02  0.32696780042E+03  0.36359888627E+03  0.12700000000E+03 0.  0.
   -5000001    1    1    2    0    0 -0.85867248774E+02 -0.42355910668E+02  0.31550639414E+03  0.35332774067E+03  0.12700000000E+03 0.  0.
<mgrwt>
<rscale>  0 0.31813629E+03</rscale>
<asrwt>0</asrwt>
<pdfrwt beam="1">  1        2 0.97100054E-01 0.31813629E+03</pdfrwt>
<pdfrwt beam="2">  1       -2 0.53180311E-02 0.31813629E+03</pdfrwt>
<totfact> 0.84854132E+03</totfact>
</mgrwt>
</event>
<event>
 4    1  0.9032007E-005  0.4442963E+03  0.7818608E-02  0.1029437E+00
          2   -1    0    0  501    0  0.00000000000E+00  0.00000000000E+00  0.17565802464E+04  0.17565802464E+04  0.25500000000E-02 0.  1.
         -2   -1    0    0    0  501 -0.00000000000E+00 -0.00000000000E+00 -0.28094243821E+02  0.28094243937E+02  0.25500000000E-02 0. -1.
    5000001    1    1    2    0    0  0.16400862950E+03 -0.69105507003E+02  0.70628334751E+03  0.73935077509E+03  0.12700000000E+03 0.  0.
   -5000001    1    1    2    0    0 -0.16400862950E+03  0.69105507003E+02  0.10222026551E+04  0.10453237153E+04  0.12700000000E+03 0.  0.
<mgrwt>
<rscale>  0 0.44429627E+03</rscale>
<asrwt>0</asrwt>
<pdfrwt beam="1">  1        2 0.25094009E+00 0.44429627E+03</pdfrwt>
<pdfrwt beam="2">  1       -2 0.40134625E-02 0.44429627E+03</pdfrwt>
<totfact> 0.31716393E+03</totfact>
</mgrwt>
</event>
<event>
 4    1  0.9032007E-005  0.7712920E+03  0.7818608E-02  0.9602526E-01
          2   -1    0    0  501    0  0.00000000000E+00  0.00000000000E+00  0.92274054944E+03  0.92274054944E+03  0.25500000000E-02 0.  1.
         -2   -1    0    0    0  501 -0.00000000000E+00 -0.00000000000E+00 -0.16117515450E+03  0.16117515452E+03  0.25500000000E-02 0. -1.
    5000001    1    1    2    0    0  0.21842824962E+03 -0.28913416627E+03  0.43114715439E+03  0.57734420849E+03  0.12700000000E+03 0.  0.
   -5000001    1    1    2    0    0 -0.21842824962E+03  0.28913416627E+03  0.33041824055E+03  0.50657149547E+03  0.12700000000E+03 0.  0.
<mgrwt>
<rscale>  0 0.77129203E+03</rscale>
<asrwt>0</asrwt>
<pdfrwt beam="1">  1        2 0.13182008E+00 0.77129203E+03</pdfrwt>
<pdfrwt beam="2">  1       -2 0.23025022E-01 0.77129203E+03</pdfrwt>
<totfact> 0.52398278E+02</totfact>
</mgrwt>
</event>
<event>
 4    1  0.9032007E-005  0.3613719E+03  0.7818608E-02  0.1058042E+00
          2   -1    0    0  501    0  0.00000000000E+00  0.00000000000E+00  0.27096435832E+04  0.27096435832E+04  0.25500000000E-02 0.  1.
         -2   -1    0    0    0  501 -0.00000000000E+00 -0.00000000000E+00 -0.12048599661E+02  0.12048599930E+02  0.25500000000E-02 0. -1.
    5000001    1    1    2    0    0 -0.46267032582E+02  0.84353416778E+02  0.19906288745E+04  0.19969948556E+04  0.12700000000E+03 0.  0.
   -5000001    1    1    2    0    0  0.46267032582E+02 -0.84353416778E+02  0.70696610899E+03  0.72469732750E+03  0.12700000000E+03 0.  0.
<mgrwt>
<rscale>  0 0.36137189E+03</rscale>
<asrwt>0</asrwt>
<pdfrwt beam="1">  1        2 0.38709220E+00 0.36137189E+03</pdfrwt>
<pdfrwt beam="2">  1       -2 0.17212274E-02 0.36137189E+03</pdfrwt>
<totfact> 0.37728742E+03</totfact>
</mgrwt>
</event>
<event>
 4    1  0.9032007E-005  0.5625790E+03  0.7818608E-02  0.9986236E-01
         -2   -1    0    0    0  501 -0.00000000000E+00  0.00000000000E+00  0.30165734017E+02  0.30165734125E+02  0.25500000000E-02 0. -1.
          2   -1    0    0  501    0  0.00000000000E+00 -0.00000000000E+00 -0.26229687951E+04  0.26229687951E+04  0.25500000000E-02 0.  1.
    5000001    1    1    2    0    0  0.95790966991E+02 -0.22622941857E+03 -0.15386747058E+04  0.15633312219E+04  0.12700000000E+03 0.  0.
   -5000001    1    1    2    0    0 -0.95790966991E+02  0.22622941857E+03 -0.10541283553E+04  0.10898033073E+04  0.12700000000E+03 0.  0.
<mgrwt>
<rscale>  0 0.56257899E+03</rscale>
<asrwt>0</asrwt>
<pdfrwt beam="1">  1        2 0.37470968E+00 0.56257899E+03</pdfrwt>
<pdfrwt beam="2">  1       -2 0.43093922E-02 0.56257899E+03</pdfrwt>
<totfact> 0.10355540E+03</totfact>
</mgrwt>
</event>
<event>
 4    1  0.9032007E-005  0.3520600E+03  0.7818608E-02  0.1061773E+00
          2   -1    0    0  501    0  0.00000000000E+00  0.00000000000E+00  0.15217599111E+04  0.15217599112E+04  0.25500000000E-02 0.  1.
         -2   -1    0    0    0  501 -0.00000000000E+00 -0.00000000000E+00 -0.20362319128E+02  0.20362319288E+02  0.25500000000E-02 0. -1.
    5000001    1    1    2    0    0  0.10944178244E+03 -0.43355427766E+02  0.61215688151E+03  0.63617784026E+03  0.12700000000E+03 0.  0.
   -5000001    1    1    2    0    0 -0.10944178244E+03  0.43355427766E+02  0.88924071051E+03  0.90594439018E+03  0.12700000000E+03 0.  0.
<mgrwt>
<rscale>  0 0.35206000E+03</rscale>
<asrwt>0</asrwt>
<pdfrwt beam="1">  1        2 0.21739436E+00 0.35206000E+03</pdfrwt>
<pdfrwt beam="2">  1       -2 0.29089015E-02 0.35206000E+03</pdfrwt>
<totfact> 0.67716222E+03</totfact>
</mgrwt>
</event>
<event>
 4    1  0.9032007E-005  0.3637300E+03  0.7818608E-02  0.1057117E+00
          2   -1    0    0  501    0  0.00000000000E+00  0.00000000000E+00  0.64447942424E+03  0.64447942424E+03  0.25500000000E-02 0. -1.
         -2   -1    0    0    0  501 -0.00000000000E+00 -0.00000000000E+00 -0.51320297343E+02  0.51320297406E+02  0.25500000000E-02 0.  1.
    5000001    1    1    2    0    0  0.20276647244E+01 -0.13013666203E+03  0.30134796181E+03  0.35196485096E+03  0.12700000000E+03 0.  0.
   -5000001    1    1    2    0    0 -0.20276647244E+01  0.13013666203E+03  0.29181116509E+03  0.34383487069E+03  0.12700000000E+03 0.  0.
<mgrwt>
<rscale>  0 0.36372999E+03</rscale>
<asrwt>0</asrwt>
<pdfrwt beam="1">  1        2 0.92068478E-01 0.36372999E+03</pdfrwt>
<pdfrwt beam="2">  1       -2 0.73314720E-02 0.36372999E+03</pdfrwt>
<totfact> 0.55178837E+03</totfact>
</mgrwt>
</event>
<event>
 4    1  0.9032007E-005  0.3865236E+03  0.7818608E-02  0.1048549E+00
         -2   -1    0    0    0  501 -0.00000000000E+00  0.00000000000E+00  0.12205453072E+03  0.12205453075E+03  0.25500000000E-02 0. -1.
          2   -1    0    0  501    0  0.00000000000E+00 -0.00000000000E+00 -0.30601178489E+03  0.30601178490E+03  0.25500000000E-02 0.  1.
    5000001    1    1    2    0    0  0.85651823262E+02 -0.75365530498E+02  0.83378762047E+01  0.17092313534E+03  0.12700000000E+03 0.  0.
   -5000001    1    1    2    0    0 -0.85651823262E+02  0.75365530498E+02 -0.19229513037E+03  0.25714318031E+03  0.12700000000E+03 0.  0.
<mgrwt>
<rscale>  0 0.38652361E+03</rscale>
<asrwt>0</asrwt>
<pdfrwt beam="1">  1        2 0.43715969E-01 0.38652361E+03</pdfrwt>
<pdfrwt beam="2">  1       -2 0.17436362E-01 0.38652361E+03</pdfrwt>
<totfact> 0.31028784E+03</totfact>
</mgrwt>
</event>
<event>
 4    1  0.9032007E-005  0.2707945E+03  0.7818608E-02  0.1100826E+00
         -2   -1    0    0    0  501 -0.00000000000E+00  0.00000000000E+00  0.95944865353E+02  0.95944865387E+02  0.25500000000E-02 0. -1.
          2   -1    0    0  501    0  0.00000000000E+00 -0.00000000000E+00 -0.19107245244E+03  0.19107245246E+03  0.25500000000E-02 0.  1.
    5000001    1    1    2    0    0 -0.38351196208E+02 -0.24424205188E+02 -0.35200308721E+02  0.13941096723E+03  0.12700000000E+03 0.  0.
   -5000001    1    1    2    0    0  0.38351196208E+02  0.24424205188E+02 -0.59927278365E+02  0.14760635062E+03  0.12700000000E+03 0.  0.
<mgrwt>
<rscale>  0 0.27079454E+03</rscale>
<asrwt>0</asrwt>
<pdfrwt beam="1">  1        2 0.27296064E-01 0.27079454E+03</pdfrwt>
<pdfrwt beam="2">  1       -2 0.13706409E-01 0.27079454E+03</pdfrwt>
<totfact> 0.76731309E+03</totfact>
</mgrwt>
</event>
<event>
 4    1  0.9032007E-005  0.5551551E+03  0.7818608E-02  0.1000308E+00
         -2   -1    0    0    0  501 -0.00000000000E+00  0.00000000000E+00  0.99317210218E+02  0.99317210250E+02  0.25500000000E-02 0. -1.
          2   -1    0    0  501    0  0.00000000000E+00 -0.00000000000E+00 -0.77578986017E+03  0.77578986018E+03  0.25500000000E-02 0.  1.
    5000001    1    1    2    0    0 -0.10615495076E+03  0.13763141470E+03 -0.61447199796E+03  0.65108840886E+03  0.12700000000E+03 0.  0.
   -5000001    1    1    2    0    0  0.10615495076E+03 -0.13763141470E+03 -0.62000652000E+02  0.22401866157E+03  0.12700000000E+03 0.  0.
<mgrwt>
<rscale>  0 0.55515506E+03</rscale>
<asrwt>0</asrwt>
<pdfrwt beam="1">  1        2 0.11082712E+00 0.55515506E+03</pdfrwt>
<pdfrwt beam="2">  1       -2 0.14188173E-01 0.55515506E+03</pdfrwt>
<totfact> 0.15232142E+03</totfact>
</mgrwt>
</event>
<event>
 4    1  0.9032007E-005  0.3914326E+03  0.7818608E-02  0.1046787E+00
         -2   -1    0    0    0  501 -0.00000000000E+00  0.00000000000E+00  0.29707964089E+02  0.29707964198E+02  0.25500000000E-02 0.  1.
          2   -1    0    0  501    0  0.00000000000E+00 -0.00000000000E+00 -0.12893803322E+04  0.12893803322E+04  0.25500000000E-02 0. -1.
    5000001    1    1    2    0    0 -0.11282779982E+03  0.54598297525E+02 -0.35888333686E+03  0.40079587820E+03  0.12700000000E+03 0.  0.
   -5000001    1    1    2    0    0  0.11282779982E+03 -0.54598297525E+02 -0.90078903125E+03  0.91829241821E+03  0.12700000000E+03 0.  0.
<mgrwt>
<rscale>  0 0.39143257E+03</rscale>
<asrwt>0</asrwt>
<pdfrwt beam="1">  1        2 0.18419716E+00 0.39143257E+03</pdfrwt>
<pdfrwt beam="2">  1       -2 0.42439957E-02 0.39143257E+03</pdfrwt>
<totfact> 0.50647224E+03</totfact>
</mgrwt>
</event>
<event>
 4    1  0.9032007E-005  0.4999734E+03  0.7818608E-02  0.1013786E+00
         -2   -1    0    0    0  501 -0.00000000000E+00  0.00000000000E+00  0.59017435124E+02  0.59017435179E+02  0.25500000000E-02 0. -1.
          2   -1    0    0  501    0  0.00000000000E+00 -0.00000000000E+00 -0.10588964232E+04  0.10588964232E+04  0.25500000000E-02 0.  1.
    5000001    1    1    2    0    0  0.10291683446E+03  0.18126507983E+03 -0.37920982389E+03  0.45097449430E+03  0.12700000000E+03 0.  0.
   -5000001    1    1    2    0    0 -0.10291683446E+03 -0.18126507983E+03 -0.62066916417E+03  0.66693936405E+03  0.12700000000E+03 0.  0.
<mgrwt>
<rscale>  0 0.49997340E+03</rscale>
<asrwt>0</asrwt>
<pdfrwt beam="1">  1        2 0.15127091E+00 0.49997340E+03</pdfrwt>
<pdfrwt beam="2">  1       -2 0.84310628E-02 0.49997340E+03</pdfrwt>
<totfact> 0.23456666E+03</totfact>
</mgrwt>
</event>
<event>
 4    1  0.9032007E-005  0.4635700E+03  0.7818608E-02  0.1023751E+00
         -2   -1    0    0    0  501 -0.00000000000E+00  0.00000000000E+00  0.10281672288E+03  0.10281672291E+03  0.25500000000E-02 0. -1.
          2   -1    0    0  501    0  0.00000000000E+00 -0.00000000000E+00 -0.52252484791E+03  0.52252484792E+03  0.25500000000E-02 0.  1.
    5000001    1    1    2    0    0  0.19009130987E+03  0.12307773389E+02 -0.16104626466E+03  0.27991264126E+03  0.12700000000E+03 0.  0.
   -5000001    1    1    2    0    0 -0.19009130987E+03 -0.12307773389E+02 -0.25866186037E+03  0.34542892957E+03  0.12700000000E+03 0.  0.
<mgrwt>
<rscale>  0 0.46357003E+03</rscale>
<asrwt>0</asrwt>
<pdfrwt beam="1">  1        2 0.74646405E-01 0.46357003E+03</pdfrwt>
<pdfrwt beam="2">  1       -2 0.14688104E-01 0.46357003E+03</pdfrwt>
<totfact> 0.22999978E+03</totfact>
</mgrwt>
</event>
<event>
 4    1  0.9032007E-005  0.4202588E+03  0.7818608E-02  0.1036982E+00
         -2   -1    0    0    0  501 -0.00000000000E+00  0.00000000000E+00  0.25345954352E+03  0.25345954353E+03  0.25500000000E-02 0. -1.
          2   -1    0    0  501    0  0.00000000000E+00 -0.00000000000E+00 -0.17420675797E+03  0.17420675799E+03  0.25500000000E-02 0.  1.
    5000001    1    1    2    0    0 -0.16577951708E+03  0.14048872343E+02  0.58531963760E+02  0.21733662802E+03  0.12700000000E+03 0.  0.
   -5000001    1    1    2    0    0  0.16577951708E+03 -0.14048872343E+02  0.20720821790E+02  0.21032967350E+03  0.12700000000E+03 0.  0.
<mgrwt>
<rscale>  0 0.42025880E+03</rscale>
<asrwt>0</asrwt>
<pdfrwt beam="1">  1        2 0.24886680E-01 0.42025880E+03</pdfrwt>
<pdfrwt beam="2">  1       -2 0.36208506E-01 0.42025880E+03</pdfrwt>
<totfact> 0.15708892E+03</totfact>
</mgrwt>
</event>
<event>
 4    1  0.9032007E-005  0.3260781E+03  0.7818608E-02  0.1072885E+00
          2   -1    0    0  501    0  0.00000000000E+00  0.00000000000E+00  0.19378779339E+04  0.19378779339E+04  0.25500000000E-02 0.  1.
         -2   -1    0    0    0  501 -0.00000000000E+00 -0.00000000000E+00 -0.13716928488E+02  0.13716928725E+02  0.25500000000E-02 0. -1.
    5000001    1    1    2    0    0  0.94532135991E+02  0.31898061771E+02  0.10957660420E+04  0.11076037333E+04  0.12700000000E+03 0.  0.
   -5000001    1    1    2    0    0 -0.94532135991E+02 -0.31898061771E+02  0.82839496332E+03  0.84399112930E+03  0.12700000000E+03 0.  0.
<mgrwt>
<rscale>  0 0.32607811E+03</rscale>
<asrwt>0</asrwt>
<pdfrwt beam="1">  1        2 0.27683972E+00 0.32607811E+03</pdfrwt>
<pdfrwt beam="2">  1       -2 0.19595611E-02 0.32607811E+03</pdfrwt>
<totfact> 0.75613368E+03</totfact>
</mgrwt>
</event>
<event>
 4    1  0.9032007E-005  0.2947364E+03  0.7818608E-02  0.1087902E+00
          2   -1    0    0  501    0  0.00000000000E+00  0.00000000000E+00  0.32693905755E+04  0.32693905755E+04  0.25500000000E-02 0.  1.
         -2   -1    0    0    0  501 -0.00000000000E+00 -0.00000000000E+00 -0.66426399108E+01  0.66426404002E+01  0.25500000000E-02 0. -1.
    5000001    1    1    2    0    0  0.72266274040E+02 -0.11710691229E+02  0.14632338056E+04  0.14705583037E+04  0.12700000000E+03 0.  0.
   -5000001    1    1    2    0    0 -0.72266274040E+02  0.11710691229E+02  0.17995141300E+04  0.18054749122E+04  0.12700000000E+03 0.  0.
<mgrwt>
<rscale>  0 0.29473639E+03</rscale>
<asrwt>0</asrwt>
<pdfrwt beam="1">  1        2 0.46705793E+00 0.29473639E+03</pdfrwt>
<pdfrwt beam="2">  1       -2 0.94894426E-03 0.29473639E+03</pdfrwt>
<totfact> 0.45585208E+03</totfact>
</mgrwt>
</event>
<event>
 4    1  0.9032007E-005  0.3250097E+03  0.7818608E-02  0.1073367E+00
         -2   -1    0    0    0  501 -0.00000000000E+00  0.00000000000E+00  0.21399771112E+03  0.21399771114E+03  0.25500000000E-02 0. -1.
          2   -1    0    0  501    0  0.00000000000E+00 -0.00000000000E+00 -0.12340239137E+03  0.12340239139E+03  0.25500000000E-02 0.  1.
    5000001    1    1    2    0    0  0.88660168765E+02  0.28835833878E+02  0.86649616479E+02  0.17980346737E+03  0.12700000000E+03 0.  0.
   -5000001    1    1    2    0    0 -0.88660168765E+02 -0.28835833878E+02  0.39457032779E+01  0.15759663516E+03  0.12700000000E+03 0.  0.
<mgrwt>
<rscale>  0 0.32500972E+03</rscale>
<asrwt>0</asrwt>
<pdfrwt beam="1">  1        2 0.17628913E-01 0.32500972E+03</pdfrwt>
<pdfrwt beam="2">  1       -2 0.30571101E-01 0.32500972E+03</pdfrwt>
<totfact> 0.31848061E+03</totfact>
</mgrwt>
</event>
<event>
 4    1  0.9032007E-005  0.3947784E+03  0.7818608E-02  0.1045603E+00
         -2   -1    0    0    0  501 -0.00000000000E+00  0.00000000000E+00  0.43148714357E+02  0.43148714432E+02  0.25500000000E-02 0. -1.
          2   -1    0    0  501    0  0.00000000000E+00 -0.00000000000E+00 -0.90298169578E+03  0.90298169579E+03  0.25500000000E-02 0.  1.
    5000001    1    1    2    0    0  0.34473857573E+02  0.11154761735E+03 -0.20001435814E+03  0.26413265844E+03  0.12700000000E+03 0.  0.
   -5000001    1    1    2    0    0 -0.34473857573E+02 -0.11154761735E+03 -0.65981862329E+03  0.68199775178E+03  0.12700000000E+03 0.  0.
<mgrwt>
<rscale>  0 0.39477842E+03</rscale>
<asrwt>0</asrwt>
<pdfrwt beam="1">  1        2 0.12899737E+00 0.39477842E+03</pdfrwt>
<pdfrwt beam="2">  1       -2 0.61641026E-02 0.39477842E+03</pdfrwt>
<totfact> 0.47689047E+03</totfact>
</mgrwt>
</event>
<event>
 4    1  0.9032007E-005  0.3356508E+03  0.7818608E-02  0.1068664E+00
         -2   -1    0    0    0  501 -0.00000000000E+00  0.00000000000E+00  0.13665529575E+03  0.13665529577E+03  0.25500000000E-02 0. -1.
          2   -1    0    0  501    0  0.00000000000E+00 -0.00000000000E+00 -0.20610520812E+03  0.20610520814E+03  0.25500000000E-02 0.  1.
    5000001    1    1    2    0    0  0.75004473473E+02  0.61495934014E+01  0.46796310413E+02  0.15486246546E+03  0.12700000000E+03 0.  0.
   -5000001    1    1    2    0    0 -0.75004473473E+02 -0.61495934014E+01 -0.11624622279E+03  0.18789803845E+03  0.12700000000E+03 0.  0.
<mgrwt>
<rscale>  0 0.33565082E+03</rscale>
<asrwt>0</asrwt>
<pdfrwt beam="1">  1        2 0.29443601E-01 0.33565082E+03</pdfrwt>
<pdfrwt beam="2">  1       -2 0.19522185E-01 0.33565082E+03</pdfrwt>
<totfact> 0.39334851E+03</totfact>
</mgrwt>
</event>
<event>
 4    1  0.9032007E-005  0.4226394E+03  0.7818608E-02  0.1036211E+00
          2   -1    0    0  501    0  0.00000000000E+00  0.00000000000E+00  0.44335483498E+03  0.44335483499E+03  0.25500000000E-02 0.  1.
         -2   -1    0    0    0  501 -0.00000000000E+00 -0.00000000000E+00 -0.10072296562E+03  0.10072296566E+03  0.25500000000E-02 0. -1.
    5000001    1    1    2    0    0 -0.14484045641E+02  0.14536396013E+03  0.28044768446E+03  0.34076439397E+03  0.12700000000E+03 0.  0.
   -5000001    1    1    2    0    0  0.14484045641E+02 -0.14536396013E+03  0.62184184900E+02  0.20331340667E+03  0.12700000000E+03 0.  0.
<mgrwt>
<rscale>  0 0.42263939E+03</rscale>
<asrwt>0</asrwt>
<pdfrwt beam="1">  1        2 0.63336405E-01 0.42263939E+03</pdfrwt>
<pdfrwt beam="2">  1       -2 0.14388995E-01 0.42263939E+03</pdfrwt>
<totfact> 0.28585373E+03</totfact>
</mgrwt>
</event>
<event>
 4    1  0.9032007E-005  0.2840521E+03  0.7818608E-02  0.1093496E+00
         -2   -1    0    0    0  501 -0.00000000000E+00  0.00000000000E+00  0.11530877752E+02  0.11530878034E+02  0.25500000000E-02 0. -1.
          2   -1    0    0  501    0  0.00000000000E+00 -0.00000000000E+00 -0.17493374587E+04  0.17493374587E+04  0.25500000000E-02 0.  1.
    5000001    1    1    2    0    0 -0.50250854994E+02  0.12168885201E+02 -0.10982840711E+04  0.11068107928E+04  0.12700000000E+03 0.  0.
   -5000001    1    1    2    0    0  0.50250854994E+02 -0.12168885201E+02 -0.63952250979E+03  0.65405754389E+03  0.12700000000E+03 0.  0.
<mgrwt>
<rscale>  0 0.28405208E+03</rscale>
<asrwt>0</asrwt>
<pdfrwt beam="1">  1        2 0.24990518E+00 0.28405208E+03</pdfrwt>
<pdfrwt beam="2">  1       -2 0.16472694E-02 0.28405208E+03</pdfrwt>
<totfact> 0.12059047E+04</totfact>
</mgrwt>
</event>
<event>
 4    1  0.9032007E-005  0.5480994E+03  0.7818608E-02  0.1001935E+00
          2   -1    0    0  501    0  0.00000000000E+00  0.00000000000E+00  0.21192386151E+04  0.21192386151E+04  0.25500000000E-02 0.  1.
         -2   -1    0    0    0  501 -0.00000000000E+00 -0.00000000000E+00 -0.35438780606E+02  0.35438780698E+02  0.25500000000E-02 0. -1.
    5000001    1    1    2    0    0 -0.16188257330E+03 -0.91504266223E+02  0.42788992220E+03  0.48352640444E+03  0.12700000000E+03 0.  0.
   -5000001    1    1    2    0    0  0.16188257330E+03  0.91504266223E+02  0.16559099123E+04  0.16711509914E+04  0.12700000000E+03 0.  0.
<mgrwt>
<rscale>  0 0.54809938E+03</rscale>
<asrwt>0</asrwt>
<pdfrwt beam="1">  1        2 0.30274834E+00 0.54809938E+03</pdfrwt>
<pdfrwt beam="2">  1       -2 0.50626834E-02 0.54809938E+03</pdfrwt>
<totfact> 0.14566075E+03</totfact>
</mgrwt>
</event>
<event>
 4    1  0.9032007E-005  0.6795196E+03  0.7818608E-02  0.9752912E-01
         -2   -1    0    0    0  501 -0.00000000000E+00  0.00000000000E+00  0.56730002706E+02  0.56730002764E+02  0.25500000000E-02 0. -1.
          2   -1    0    0  501    0  0.00000000000E+00 -0.00000000000E+00 -0.20348443864E+04  0.20348443864E+04  0.25500000000E-02 0.  1.
    5000001    1    1    2    0    0 -0.18737814867E+03  0.99783252553E+02 -0.17059149609E+04  0.17237581390E+04  0.12700000000E+03 0.  0.
   -5000001    1    1    2    0    0  0.18737814867E+03 -0.99783252553E+02 -0.27219942282E+03  0.36781625015E+03  0.12700000000E+03 0.  0.
<mgrwt>
<rscale>  0 0.67951962E+03</rscale>
<asrwt>0</asrwt>
<pdfrwt beam="1">  1        2 0.29069201E+00 0.67951962E+03</pdfrwt>
<pdfrwt beam="2">  1       -2 0.81042874E-02 0.67951962E+03</pdfrwt>
<totfact> 0.76037088E+02</totfact>
</mgrwt>
</event>
<event>
 4    1  0.9032007E-005  0.3623311E+03  0.7818608E-02  0.1057665E+00
         -2   -1    0    0    0  501 -0.00000000000E+00  0.00000000000E+00  0.12384204071E+03  0.12384204074E+03  0.25500000000E-02 0.  1.
          2   -1    0    0  501    0  0.00000000000E+00 -0.00000000000E+00 -0.26502267594E+03  0.26502267595E+03  0.25500000000E-02 0. -1.
    5000001    1    1    2    0    0 -0.81244831397E+02  0.95847217695E+02 -0.38312348062E+02  0.18271356759E+03  0.12700000000E+03 0.  0.
   -5000001    1    1    2    0    0  0.81244831397E+02 -0.95847217695E+02 -0.10286828717E+03  0.20615114909E+03  0.12700000000E+03 0.  0.
<mgrwt>
<rscale>  0 0.36233106E+03</rscale>
<asrwt>0</asrwt>
<pdfrwt beam="1">  1        2 0.37860382E-01 0.36233106E+03</pdfrwt>
<pdfrwt beam="2">  1       -2 0.17691720E-01 0.36233106E+03</pdfrwt>
<totfact> 0.35360160E+03</totfact>
</mgrwt>
</event>
<event>
 4    1  0.9032007E-005  0.4741362E+03  0.7818608E-02  0.1020759E+00
          2   -1    0    0  501    0  0.00000000000E+00  0.00000000000E+00  0.73336949203E+03  0.73336949203E+03  0.25500000000E-02 0.  1.
         -2   -1    0    0    0  501 -0.00000000000E+00 -0.00000000000E+00 -0.76634325542E+02  0.76634325584E+02  0.25500000000E-02 0. -1.
    5000001    1    1    2    0    0 -0.71279024377E+02 -0.17477212450E+03  0.44228298934E+03  0.49736227991E+03  0.12700000000E+03 0.  0.
   -5000001    1    1    2    0    0  0.71279024377E+02  0.17477212450E+03  0.21445217715E+03  0.31264153771E+03  0.12700000000E+03 0.  0.
<mgrwt>
<rscale>  0 0.47413617E+03</rscale>
<asrwt>0</asrwt>
<pdfrwt beam="1">  1        2 0.10476707E+00 0.47413617E+03</pdfrwt>
<pdfrwt beam="2">  1       -2 0.10947761E-01 0.47413617E+03</pdfrwt>
<totfact> 0.25035500E+03</totfact>
</mgrwt>
</event>
<event>
 4    1  0.9032007E-005  0.8975598E+03  0.7818608E-02  0.9428637E-01
         -2   -1    0    0    0  501 -0.00000000000E+00  0.00000000000E+00  0.15475014756E+03  0.15475014758E+03  0.25500000000E-02 0. -1.
          2   -1    0    0  501    0  0.00000000000E+00 -0.00000000000E+00 -0.13014746795E+04  0.13014746795E+04  0.25500000000E-02 0.  1.
    5000001    1    1    2    0    0 -0.52186075789E+02 -0.33834307266E+03 -0.99667252198E+03  0.10614539733E+04  0.12700000000E+03 0.  0.
   -5000001    1    1    2    0    0  0.52186075789E+02  0.33834307266E+03 -0.15005200998E+03  0.39477085382E+03  0.12700000000E+03 0.  0.
<mgrwt>
<rscale>  0 0.89755980E+03</rscale>
<asrwt>0</asrwt>
<pdfrwt beam="1">  1        2 0.18592495E+00 0.89755980E+03</pdfrwt>
<pdfrwt beam="2">  1       -2 0.22107165E-01 0.89755980E+03</pdfrwt>
<totfact> 0.33519867E+02</totfact>
</mgrwt>
</event>
<event>
 4    1  0.9032007E-005  0.3184096E+03  0.7818608E-02  0.1076384E+00
         -2   -1    0    0    0  501 -0.00000000000E+00  0.00000000000E+00  0.13157396724E+02  0.13157396971E+02  0.25500000000E-02 0. -1.
          2   -1    0    0  501    0  0.00000000000E+00 -0.00000000000E+00 -0.19263813129E+04  0.19263813129E+04  0.25500000000E-02 0.  1.
    5000001    1    1    2    0    0 -0.31757370301E+02 -0.80824559254E+02 -0.70723725911E+03  0.72377806033E+03  0.12700000000E+03 0.  0.
   -5000001    1    1    2    0    0  0.31757370301E+02  0.80824559254E+02 -0.12059866571E+04  0.12157606495E+04  0.12700000000E+03 0.  0.
<mgrwt>
<rscale>  0 0.31840957E+03</rscale>
<asrwt>0</asrwt>
<pdfrwt beam="1">  1        2 0.27519715E+00 0.31840957E+03</pdfrwt>
<pdfrwt beam="2">  1       -2 0.18796293E-02 0.31840957E+03</pdfrwt>
<totfact> 0.81445181E+03</totfact>
</mgrwt>
</event>
<event>
 4    1  0.9032007E-005  0.3542783E+03  0.7818608E-02  0.1060873E+00
         -2   -1    0    0    0  501 -0.00000000000E+00  0.00000000000E+00  0.14315124745E+02  0.14315124972E+02  0.25500000000E-02 0. -1.
          2   -1    0    0  501    0  0.00000000000E+00 -0.00000000000E+00 -0.21919664531E+04  0.21919664532E+04  0.25500000000E-02 0.  1.
    5000001    1    1    2    0    0 -0.10808579265E+03  0.29265470332E+02 -0.14130327266E+04  0.14231407143E+04  0.12700000000E+03 0.  0.
   -5000001    1    1    2    0    0  0.10808579265E+03 -0.29265470332E+02 -0.76461860185E+03  0.78314086384E+03  0.12700000000E+03 0.  0.
<mgrwt>
<rscale>  0 0.35427827E+03</rscale>
<asrwt>0</asrwt>
<pdfrwt beam="1">  1        2 0.31313785E+00 0.35427827E+03</pdfrwt>
<pdfrwt beam="2">  1       -2 0.20450192E-02 0.35427827E+03</pdfrwt>
<totfact> 0.53236349E+03</totfact>
</mgrwt>
</event>
<event>
 4    1  0.9032007E-005  0.4128454E+03  0.7818608E-02  0.1039420E+00
         -2   -1    0    0    0  501 -0.00000000000E+00  0.00000000000E+00  0.36846592876E+02  0.36846592964E+02  0.25500000000E-02 0. -1.
          2   -1    0    0  501    0  0.00000000000E+00 -0.00000000000E+00 -0.11564254709E+04  0.11564254709E+04  0.25500000000E-02 0.  1.
    5000001    1    1    2    0    0 -0.45187294682E+02  0.14761839622E+03 -0.70853087618E+03  0.73619160889E+03  0.12700000000E+03 0.  0.
   -5000001    1    1    2    0    0  0.45187294682E+02 -0.14761839622E+03 -0.41104800188E+03  0.45708045501E+03  0.12700000000E+03 0.  0.
<mgrwt>
<rscale>  0 0.41284544E+03</rscale>
<asrwt>0</asrwt>
<pdfrwt beam="1">  1        2 0.16520362E+00 0.41284544E+03</pdfrwt>
<pdfrwt beam="2">  1       -2 0.52637997E-02 0.41284544E+03</pdfrwt>
<totfact> 0.43085063E+03</totfact>
</mgrwt>
</event>
<event>
 4    1  0.9032007E-005  0.3698566E+03  0.7818608E-02  0.1054748E+00
          2   -1    0    0  501    0  0.00000000000E+00  0.00000000000E+00  0.74480530649E+03  0.74480530649E+03  0.25500000000E-02 0.  1.
         -2   -1    0    0    0  501 -0.00000000000E+00 -0.00000000000E+00 -0.45916002806E+02  0.45916002877E+02  0.25500000000E-02 0. -1.
    5000001    1    1    2    0    0 -0.10098718550E+03 -0.64810806818E+02  0.21991763924E+03  0.28087652156E+03  0.12700000000E+03 0.  0.
   -5000001    1    1    2    0    0  0.10098718550E+03  0.64810806818E+02  0.47897166444E+03  0.50984478780E+03  0.12700000000E+03 0.  0.
<mgrwt>
<rscale>  0 0.36985663E+03</rscale>
<asrwt>0</asrwt>
<pdfrwt beam="1">  1        2 0.10640076E+00 0.36985663E+03</pdfrwt>
<pdfrwt beam="2">  1       -2 0.65594288E-02 0.36985663E+03</pdfrwt>
<totfact> 0.55212093E+03</totfact>
</mgrwt>
</event>
<event>
 4    1  0.9032007E-005  0.4708511E+03  0.7818608E-02  0.1021680E+00
          2   -1    0    0  501    0  0.00000000000E+00  0.00000000000E+00  0.16102136723E+04  0.16102136723E+04  0.25500000000E-02 0.  1.
         -2   -1    0    0    0  501 -0.00000000000E+00 -0.00000000000E+00 -0.34421018100E+02  0.34421018194E+02  0.25500000000E-02 0. -1.
    5000001    1    1    2    0    0  0.70815125683E+02 -0.15106563047E+03  0.41396721630E+03  0.46404036775E+03  0.12700000000E+03 0.  0.
   -5000001    1    1    2    0    0 -0.70815125683E+02  0.15106563047E+03  0.11618254379E+04  0.11805943228E+04  0.12700000000E+03 0.  0.
<mgrwt>
<rscale>  0 0.47085112E+03</rscale>
<asrwt>0</asrwt>
<pdfrwt beam="1">  1        2 0.23003055E+00 0.47085112E+03</pdfrwt>
<pdfrwt beam="2">  1       -2 0.49172879E-02 0.47085112E+03</pdfrwt>
<totfact> 0.27521410E+03</totfact>
</mgrwt>
</event>
<event>
 4    1  0.9032007E-005  0.3293318E+03  0.7818608E-02  0.1071433E+00
         -2   -1    0    0    0  501 -0.00000000000E+00  0.00000000000E+00  0.24757245192E+02  0.24757245324E+02  0.25500000000E-02 0.  1.
          2   -1    0    0  501    0  0.00000000000E+00 -0.00000000000E+00 -0.10952289770E+04  0.10952289770E+04  0.25500000000E-02 0. -1.
    5000001    1    1    2    0    0 -0.58045666291E+02 -0.84095120628E+02 -0.45587554577E+03  0.48414130367E+03  0.12700000000E+03 0.  0.
   -5000001    1    1    2    0    0  0.58045666291E+02  0.84095120628E+02 -0.61459618602E+03  0.63584491864E+03  0.12700000000E+03 0.  0.
<mgrwt>
<rscale>  0 0.32933176E+03</rscale>
<asrwt>0</asrwt>
<pdfrwt beam="1">  1        2 0.15646125E+00 0.32933176E+03</pdfrwt>
<pdfrwt beam="2">  1       -2 0.35367500E-02 0.32933176E+03</pdfrwt>
<totfact> 0.85152558E+03</totfact>
</mgrwt>
</event>
<event>
 4    1  0.9032007E-005  0.4227209E+03  0.7818608E-02  0.1036184E+00
         -2   -1    0    0    0  501 -0.00000000000E+00  0.00000000000E+00  0.60703508301E+02  0.60703508355E+02  0.25500000000E-02 0. -1.
          2   -1    0    0  501    0  0.00000000000E+00 -0.00000000000E+00 -0.73592504860E+03  0.73592504861E+03  0.25500000000E-02 0.  1.
    5000001    1    1    2    0    0  0.11581218530E+03 -0.72596199927E+02 -0.15046714533E+03  0.23969153580E+03  0.12700000000E+03 0.  0.
   -5000001    1    1    2    0    0 -0.11581218530E+03  0.72596199927E+02 -0.52475439497E+03  0.55693702117E+03  0.12700000000E+03 0.  0.
<mgrwt>
<rscale>  0 0.42272086E+03</rscale>
<asrwt>0</asrwt>
<pdfrwt beam="1">  1        2 0.10513214E+00 0.42272086E+03</pdfrwt>
<pdfrwt beam="2">  1       -2 0.86719302E-02 0.42272086E+03</pdfrwt>
<totfact> 0.36210855E+03</totfact>
</mgrwt>
</event>
<event>
 4    1  0.9032007E-005  0.3018881E+03  0.7818608E-02  0.1084301E+00
          2   -1    0    0  501    0  0.00000000000E+00  0.00000000000E+00  0.50966924348E+03  0.50966924349E+03  0.25500000000E-02 0.  1.
         -2   -1    0    0    0  501 -0.00000000000E+00 -0.00000000000E+00 -0.44703696644E+02  0.44703696716E+02  0.25500000000E-02 0. -1.
    5000001    1    1    2    0    0  0.80329912964E+02 -0.47159947662E+01  0.20784799784E+03  0.25652470784E+03  0.12700000000E+03 0.  0.
   -5000001    1    1    2    0    0 -0.80329912964E+02  0.47159947662E+01  0.25711754899E+03  0.29784823237E+03  0.12700000000E+03 0.  0.
<mgrwt>
<rscale>  0 0.30188805E+03</rscale>
<asrwt>0</asrwt>
<pdfrwt beam="1">  1        2 0.72809884E-01 0.30188805E+03</pdfrwt>
<pdfrwt beam="2">  1       -2 0.63862431E-02 0.30188805E+03</pdfrwt>
<totfact> 0.88893012E+03</totfact>
</mgrwt>
</event>
<event>
 4    1  0.9032007E-005  0.3177779E+03  0.7818608E-02  0.1076677E+00
          2   -1    0    0  501    0  0.00000000000E+00  0.00000000000E+00  0.14902896630E+04  0.14902896630E+04  0.25500000000E-02 0.  1.
         -2   -1    0    0    0  501 -0.00000000000E+00 -0.00000000000E+00 -0.16940126770E+02  0.16940126962E+02  0.25500000000E-02 0. -1.
    5000001    1    1    2    0    0  0.39744324078E+02  0.80927805746E+02  0.88574289623E+03  0.89933219627E+03  0.12700000000E+03 0.  0.
   -5000001    1    1    2    0    0 -0.39744324078E+02 -0.80927805746E+02  0.58760664004E+03  0.60789759373E+03  0.12700000000E+03 0.  0.
<mgrwt>
<rscale>  0 0.31777788E+03</rscale>
<asrwt>0</asrwt>
<pdfrwt beam="1">  1        2 0.21289860E+00 0.31777788E+03</pdfrwt>
<pdfrwt beam="2">  1       -2 0.24200173E-02 0.31777788E+03</pdfrwt>
<totfact> 0.92296939E+03</totfact>
</mgrwt>
</event>
<event>
 4    1  0.9032007E-005  0.3296526E+03  0.7818608E-02  0.1071291E+00
          2   -1    0    0  501    0  0.00000000000E+00  0.00000000000E+00  0.35715263044E+04  0.35715263044E+04  0.25500000000E-02 0.  1.
         -2   -1    0    0    0  501 -0.00000000000E+00 -0.00000000000E+00 -0.76067523185E+01  0.76067527460E+01  0.25500000000E-02 0. -1.
    5000001    1    1    2    0    0  0.73047385176E+02 -0.58574403787E+02  0.22994590191E+04  0.23048660833E+04  0.12700000000E+03 0.  0.
   -5000001    1    1    2    0    0 -0.73047385176E+02  0.58574403787E+02  0.12644605329E+04  0.12742669738E+04  0.12700000000E+03 0.  0.
<mgrwt>
<rscale>  0 0.32965265E+03</rscale>
<asrwt>0</asrwt>
<pdfrwt beam="1">  1        2 0.51021722E+00 0.32965265E+03</pdfrwt>
<pdfrwt beam="2">  1       -2 0.10866807E-02 0.32965265E+03</pdfrwt>
<totfact> 0.25029517E+03</totfact>
</mgrwt>
</event>
<event>
 4    1  0.9032007E-005  0.3755183E+03  0.7818608E-02  0.1052603E+00
         -2   -1    0    0    0  501 -0.00000000000E+00  0.00000000000E+00  0.56094387007E+03  0.56094387007E+03  0.25500000000E-02 0. -1.
          2   -1    0    0  501    0  0.00000000000E+00 -0.00000000000E+00 -0.62846764160E+02  0.62846764212E+02  0.25500000000E-02 0.  1.
    5000001    1    1    2    0    0 -0.13742427007E+03 -0.12884696492E+02  0.23484972065E+03  0.30055754307E+03  0.12700000000E+03 0.  0.
   -5000001    1    1    2    0    0  0.13742427007E+03  0.12884696492E+02  0.26324738526E+03  0.32323309122E+03  0.12700000000E+03 0.  0.
<mgrwt>
<rscale>  0 0.37551835E+03</rscale>
<asrwt>0</asrwt>
<pdfrwt beam="1">  1        2 0.89781099E-02 0.37551835E+03</pdfrwt>
<pdfrwt beam="2">  1       -2 0.80134832E-01 0.37551835E+03</pdfrwt>
<totfact> 0.10491485E+03</totfact>
</mgrwt>
</event>
<event>
 4    1  0.9032007E-005  0.4402110E+03  0.7818608E-02  0.1030682E+00
          2   -1    0    0  501    0  0.00000000000E+00  0.00000000000E+00  0.60108007714E+03  0.60108007714E+03  0.25500000000E-02 0.  1.
         -2   -1    0    0    0  501 -0.00000000000E+00 -0.00000000000E+00 -0.80598980683E+02  0.80598980724E+02  0.25500000000E-02 0. -1.
    5000001    1    1    2    0    0 -0.85377752809E+02 -0.15711452730E+03  0.28892412359E+03  0.36274024392E+03  0.12700000000E+03 0.  0.
   -5000001    1    1    2    0    0  0.85377752809E+02  0.15711452730E+03  0.23155697286E+03  0.31893881395E+03  0.12700000000E+03 0.  0.
<mgrwt>
<rscale>  0 0.44021105E+03</rscale>
<asrwt>0</asrwt>
<pdfrwt beam="1">  1        2 0.85868583E-01 0.44021105E+03</pdfrwt>
<pdfrwt beam="2">  1       -2 0.11514140E-01 0.44021105E+03</pdfrwt>
<totfact> 0.29234611E+03</totfact>
</mgrwt>
</event>
<event>
 4    1  0.9032007E-005  0.6359577E+03  0.7818608E-02  0.9833491E-01
          2   -1    0    0  501    0  0.00000000000E+00  0.00000000000E+00  0.22507330740E+03  0.22507330741E+03  0.25500000000E-02 0.  1.
         -2   -1    0    0    0  501 -0.00000000000E+00 -0.00000000000E+00 -0.44923383836E+03  0.44923383836E+03  0.25500000000E-02 0. -1.
    5000001    1    1    2    0    0  0.18797612368E+03 -0.18054188373E+03  0.26374015475E+02  0.29112709174E+03  0.12700000000E+03 0.  0.
   -5000001    1    1    2    0    0 -0.18797612368E+03  0.18054188373E+03 -0.25053454643E+03  0.38318005403E+03  0.12700000000E+03 0.  0.
<mgrwt>
<rscale>  0 0.63595769E+03</rscale>
<asrwt>0</asrwt>
<pdfrwt beam="1">  1        2 0.32153330E-01 0.63595769E+03</pdfrwt>
<pdfrwt beam="2">  1       -2 0.64176262E-01 0.63595769E+03</pdfrwt>
<totfact> 0.37265959E+02</totfact>
</mgrwt>
</event>
<event>
 4    1  0.9032007E-005  0.3113872E+03  0.7818608E-02  0.1079683E+00
         -2   -1    0    0    0  501 -0.00000000000E+00  0.00000000000E+00  0.85162049488E+03  0.85162049489E+03  0.25500000000E-02 0. -1.
          2   -1    0    0  501    0  0.00000000000E+00 -0.00000000000E+00 -0.28463967125E+02  0.28463967239E+02  0.25500000000E-02 0.  1.
    5000001    1    1    2    0    0 -0.84086698425E+02  0.20581838586E+02  0.48180076008E+03  0.50572241135E+03  0.12700000000E+03 0.  0.
   -5000001    1    1    2    0    0  0.84086698425E+02 -0.20581838586E+02  0.34135576768E+03  0.37436205077E+03  0.12700000000E+03 0.  0.
<mgrwt>
<rscale>  0 0.31138720E+03</rscale>
<asrwt>0</asrwt>
<pdfrwt beam="1">  1        2 0.40662823E-02 0.31138720E+03</pdfrwt>
<pdfrwt beam="2">  1       -2 0.12166003E+00 0.31138720E+03</pdfrwt>
<totfact> 0.11179680E+03</totfact>
</mgrwt>
</event>
<event>
 4    1  0.9032007E-005  0.5913626E+03  0.7818608E-02  0.9923490E-01
         -2   -1    0    0    0  501 -0.00000000000E+00  0.00000000000E+00  0.72617894199E+02  0.72617894244E+02  0.25500000000E-02 0. -1.
          2   -1    0    0  501    0  0.00000000000E+00 -0.00000000000E+00 -0.12039379390E+04  0.12039379390E+04  0.25500000000E-02 0.  1.
    5000001    1    1    2    0    0 -0.93270370875E+02 -0.22474902567E+03 -0.80298548104E+03  0.84860248019E+03  0.12700000000E+03 0.  0.
   -5000001    1    1    2    0    0  0.93270370875E+02  0.22474902567E+03 -0.32833456372E+03  0.42795335302E+03  0.12700000000E+03 0.  0.
<mgrwt>
<rscale>  0 0.59136262E+03</rscale>
<asrwt>0</asrwt>
<pdfrwt beam="1">  1        2 0.17199112E+00 0.59136262E+03</pdfrwt>
<pdfrwt beam="2">  1       -2 0.10373986E-01 0.59136262E+03</pdfrwt>
<totfact> 0.13856639E+03</totfact>
</mgrwt>
</event>
<event>
 4    1  0.9032007E-005  0.3603409E+03  0.7818608E-02  0.1058449E+00
         -2   -1    0    0    0  501 -0.00000000000E+00  0.00000000000E+00  0.20931278743E+02  0.20931278898E+02  0.25500000000E-02 0. -1.
          2   -1    0    0  501    0  0.00000000000E+00 -0.00000000000E+00 -0.15508552637E+04  0.15508552637E+04  0.25500000000E-02 0.  1.
    5000001    1    1    2    0    0 -0.11112785209E+03 -0.12180514016E+02 -0.49485166257E+03  0.52297699030E+03  0.12700000000E+03 0.  0.
   -5000001    1    1    2    0    0  0.11112785209E+03  0.12180514016E+02 -0.10350723223E+04  0.10488095523E+04  0.12700000000E+03 0.  0.
<mgrwt>
<rscale>  0 0.36034086E+03</rscale>
<asrwt>0</asrwt>
<pdfrwt beam="1">  1        2 0.22155068E+00 0.36034086E+03</pdfrwt>
<pdfrwt beam="2">  1       -2 0.29901837E-02 0.36034086E+03</pdfrwt>
<totfact> 0.62817684E+03</totfact>
</mgrwt>
</event>
<event>
 4    1  0.9032007E-005  0.4683076E+03  0.7818608E-02  0.1022399E+00
         -2   -1    0    0    0  501 -0.00000000000E+00  0.00000000000E+00  0.37002683325E+03  0.37002683326E+03  0.25500000000E-02 0. -1.
          2   -1    0    0  501    0  0.00000000000E+00 -0.00000000000E+00 -0.14817307163E+03  0.14817307165E+03  0.25500000000E-02 0.  1.
    5000001    1    1    2    0    0  0.21516511772E+01  0.18476466236E+03  0.18561940193E+03  0.29107760552E+03  0.12700000000E+03 0.  0.
   -5000001    1    1    2    0    0 -0.21516511772E+01 -0.18476466236E+03  0.36234359694E+02  0.22712229940E+03  0.12700000000E+03 0.  0.
<mgrwt>
<rscale>  0 0.46830764E+03</rscale>
<asrwt>0</asrwt>
<pdfrwt beam="1">  1        2 0.21167582E-01 0.46830764E+03</pdfrwt>
<pdfrwt beam="2">  1       -2 0.52860976E-01 0.46830764E+03</pdfrwt>
<totfact> 0.89985656E+02</totfact>
</mgrwt>
</event>
<event>
 4    1  0.9032007E-005  0.4502672E+03  0.7818608E-02  0.1027642E+00
         -2   -1    0    0    0  501 -0.00000000000E+00  0.00000000000E+00  0.16427022570E+02  0.16427022768E+02  0.25500000000E-02 0. -1.
          2   -1    0    0  501    0  0.00000000000E+00 -0.00000000000E+00 -0.30854734267E+04  0.30854734267E+04  0.25500000000E-02 0.  1.
    5000001    1    1    2    0    0 -0.90738107894E+02 -0.13485241184E+03 -0.91307525942E+03  0.93608440141E+03  0.12700000000E+03 0.  0.
   -5000001    1    1    2    0    0  0.90738107894E+02  0.13485241184E+03 -0.21559711447E+04  0.21658160481E+04  0.12700000000E+03 0.  0.
<mgrwt>
<rscale>  0 0.45026722E+03</rscale>
<asrwt>0</asrwt>
<pdfrwt beam="1">  1        2 0.44078155E+00 0.45026722E+03</pdfrwt>
<pdfrwt beam="2">  1       -2 0.23467195E-02 0.45026722E+03</pdfrwt>
<totfact> 0.14939543E+03</totfact>
</mgrwt>
</event>
<event>
 4    1  0.9032007E-005  0.2899282E+03  0.7818608E-02  0.1090387E+00
          2   -1    0    0  501    0  0.00000000000E+00  0.00000000000E+00  0.16332476411E+03  0.16332476413E+03  0.25500000000E-02 0.  1.
         -2   -1    0    0    0  501 -0.00000000000E+00 -0.00000000000E+00 -0.12866750969E+03  0.12866750972E+03  0.25500000000E-02 0. -1.
    5000001    1    1    2    0    0  0.19277034413E+01 -0.69869875644E+02  0.17052609018E+02  0.14596337567E+03  0.12700000000E+03 0.  0.
   -5000001    1    1    2    0    0 -0.19277034413E+01  0.69869875644E+02  0.17604645395E+02  0.14602889818E+03  0.12700000000E+03 0.  0.
<mgrwt>
<rscale>  0 0.28992820E+03</rscale>
<asrwt>0</asrwt>
<pdfrwt beam="1">  1        2 0.23332109E-01 0.28992820E+03</pdfrwt>
<pdfrwt beam="2">  1       -2 0.18381073E-01 0.28992820E+03</pdfrwt>
<totfact> 0.56259914E+03</totfact>
</mgrwt>
</event>
<event>
 4    1  0.9032007E-005  0.3050471E+03  0.7818608E-02  0.1082744E+00
          2   -1    0    0  501    0  0.00000000000E+00  0.00000000000E+00  0.11678393354E+04  0.11678393354E+04  0.25500000000E-02 0.  1.
         -2   -1    0    0    0  501 -0.00000000000E+00 -0.00000000000E+00 -0.19920067395E+02  0.19920067559E+02  0.25500000000E-02 0. -1.
    5000001    1    1    2    0    0  0.36594727152E+02  0.37634761215E+02  0.83161755634E+03  0.84289519474E+03  0.12700000000E+03 0.  0.
   -5000001    1    1    2    0    0 -0.36594727152E+02 -0.37634761215E+02  0.31630171164E+03  0.34486420819E+03  0.12700000000E+03 0.  0.
<mgrwt>
<rscale>  0 0.30504713E+03</rscale>
<asrwt>0</asrwt>
<pdfrwt beam="1">  1        2 0.16683424E+00 0.30504713E+03</pdfrwt>
<pdfrwt beam="2">  1       -2 0.28457231E-02 0.30504713E+03</pdfrwt>
<totfact> 0.10716718E+04</totfact>
</mgrwt>
</event>
<event>
 4    1  0.9032007E-005  0.6584295E+03  0.7818608E-02  0.9791089E-01
         -2   -1    0    0    0  501 -0.00000000000E+00  0.00000000000E+00  0.14970857231E+03  0.14970857233E+03  0.25500000000E-02 0. -1.
          2   -1    0    0  501    0  0.00000000000E+00 -0.00000000000E+00 -0.72395545439E+03  0.72395545439E+03  0.25500000000E-02 0.  1.
    5000001    1    1    2    0    0 -0.16681251315E+03  0.17852771301E+03 -0.52653359998E+03  0.59419289020E+03  0.12700000000E+03 0.  0.
   -5000001    1    1    2    0    0  0.16681251315E+03 -0.17852771301E+03 -0.47713282096E+02  0.27947113652E+03  0.12700000000E+03 0.  0.
<mgrwt>
<rscale>  0 0.65842946E+03</rscale>
<asrwt>0</asrwt>
<pdfrwt beam="1">  1        2 0.10342221E+00 0.65842946E+03</pdfrwt>
<pdfrwt beam="2">  1       -2 0.21386939E-01 0.65842946E+03</pdfrwt>
<totfact> 0.82082551E+02</totfact>
</mgrwt>
</event>
<event>
 4    1  0.9032007E-005  0.7857438E+03  0.7818608E-02  0.9580885E-01
         -2   -1    0    0    0  501 -0.00000000000E+00  0.00000000000E+00  0.17405449831E+03  0.17405449832E+03  0.25500000000E-02 0.  1.
          2   -1    0    0  501    0  0.00000000000E+00 -0.00000000000E+00 -0.88678157174E+03  0.88678157174E+03  0.25500000000E-02 0. -1.
    5000001    1    1    2    0    0  0.95580948106E+02 -0.35825360703E+03 -0.39303961193E+03  0.55505900689E+03  0.12700000000E+03 0.  0.
   -5000001    1    1    2    0    0 -0.95580948106E+02  0.35825360703E+03 -0.31968746151E+03  0.50577706317E+03  0.12700000000E+03 0.  0.
<mgrwt>
<rscale>  0 0.78574378E+03</rscale>
<asrwt>0</asrwt>
<pdfrwt beam="1">  1        2 0.12668308E+00 0.78574378E+03</pdfrwt>
<pdfrwt beam="2">  1       -2 0.24864929E-01 0.78574378E+03</pdfrwt>
<totfact> 0.48148520E+02</totfact>
</mgrwt>
</event>
<event>
 4    1  0.9032007E-005  0.2983222E+03  0.7818608E-02  0.1086082E+00
          2   -1    0    0  501    0  0.00000000000E+00  0.00000000000E+00  0.10627624115E+04  0.10627624115E+04  0.25500000000E-02 0.  1.
         -2   -1    0    0    0  501 -0.00000000000E+00 -0.00000000000E+00 -0.20935097194E+02  0.20935097349E+02  0.25500000000E-02 0. -1.
    5000001    1    1    2    0    0 -0.21318866647E+02 -0.51590156346E+02  0.72001407952E+03  0.73325664881E+03  0.12700000000E+03 0.  0.
   -5000001    1    1    2    0    0  0.21318866647E+02  0.51590156346E+02  0.32181323476E+03  0.35044086003E+03  0.12700000000E+03 0.  0.
<mgrwt>
<rscale>  0 0.29832220E+03</rscale>
<asrwt>0</asrwt>
<pdfrwt beam="1">  1        2 0.15182325E+00 0.29832220E+03</pdfrwt>
<pdfrwt beam="2">  1       -2 0.29907273E-02 0.29832220E+03</pdfrwt>
<totfact> 0.11394418E+04</totfact>
</mgrwt>
</event>
<event>
 4    1  0.9032007E-005  0.3005196E+03  0.7818608E-02  0.1084981E+00
          2   -1    0    0  501    0  0.00000000000E+00  0.00000000000E+00  0.14228481465E+04  0.14228481465E+04  0.25500000000E-02 0.  1.
         -2   -1    0    0    0  501 -0.00000000000E+00 -0.00000000000E+00 -0.15868180838E+02  0.15868181043E+02  0.25500000000E-02 0. -1.
    5000001    1    1    2    0    0  0.59928385433E+02 -0.50626437954E+02  0.62132394575E+03  0.63900461122E+03  0.12700000000E+03 0.  0.
   -5000001    1    1    2    0    0 -0.59928385433E+02  0.50626437954E+02  0.78565601987E+03  0.79971171628E+03  0.12700000000E+03 0.  0.
<mgrwt>
<rscale>  0 0.30051963E+03</rscale>
<asrwt>0</asrwt>
<pdfrwt beam="1">  1        2 0.20326404E+00 0.30051963E+03</pdfrwt>
<pdfrwt beam="2">  1       -2 0.22668828E-02 0.30051963E+03</pdfrwt>
<totfact> 0.10996144E+04</totfact>
</mgrwt>
</event>
<event>
 4    1  0.9032007E-005  0.3703565E+03  0.7818608E-02  0.1054557E+00
         -2   -1    0    0    0  501 -0.00000000000E+00  0.00000000000E+00  0.15431477184E+02  0.15431477395E+02  0.25500000000E-02 0. -1.
          2   -1    0    0  501    0  0.00000000000E+00 -0.00000000000E+00 -0.22221454271E+04  0.22221454271E+04  0.25500000000E-02 0.  1.
    5000001    1    1    2    0    0  0.80180659906E+01 -0.11432898180E+03 -0.15317026014E+04  0.15412258967E+04  0.12700000000E+03 0.  0.
   -5000001    1    1    2    0    0 -0.80180659906E+01  0.11432898180E+03 -0.67501134851E+03  0.69635100782E+03  0.12700000000E+03 0.  0.
<mgrwt>
<rscale>  0 0.37035651E+03</rscale>
<asrwt>0</asrwt>
<pdfrwt beam="1">  1        2 0.31744914E+00 0.37035651E+03</pdfrwt>
<pdfrwt beam="2">  1       -2 0.22044982E-02 0.37035651E+03</pdfrwt>
<totfact> 0.45995573E+03</totfact>
</mgrwt>
</event>
<event>
 4    1  0.9032007E-005  0.3563862E+03  0.7818608E-02  0.1060024E+00
          2   -1    0    0  501    0  0.00000000000E+00  0.00000000000E+00  0.11841587749E+04  0.11841587749E+04  0.25500000000E-02 0. -1.
         -2   -1    0    0    0  501 -0.00000000000E+00 -0.00000000000E+00 -0.26814633715E+02  0.26814633836E+02  0.25500000000E-02 0.  1.
    5000001    1    1    2    0    0  0.51812364269E+02  0.30364170084E+02  0.20618020178E+03  0.24949104097E+03  0.12700000000E+03 0.  0.
   -5000001    1    1    2    0    0 -0.51812364269E+02 -0.30364170084E+02  0.95116393941E+03  0.96148236778E+03  0.12700000000E+03 0.  0.
<mgrwt>
<rscale>  0 0.35638622E+03</rscale>
<asrwt>0</asrwt>
<pdfrwt beam="1">  1        2 0.16916557E+00 0.35638622E+03</pdfrwt>
<pdfrwt beam="2">  1       -2 0.38306612E-02 0.35638622E+03</pdfrwt>
<totfact> 0.67418637E+03</totfact>
</mgrwt>
</event>
<event>
 4    1  0.9032007E-005  0.3729128E+03  0.7818608E-02  0.1053585E+00
          2   -1    0    0  501    0  0.00000000000E+00  0.00000000000E+00  0.16010434976E+03  0.16010434978E+03  0.25500000000E-02 0.  1.
         -2   -1    0    0    0  501 -0.00000000000E+00 -0.00000000000E+00 -0.21714582694E+03  0.21714582695E+03  0.25500000000E-02 0. -1.
    5000001    1    1    2    0    0  0.88851793214E+01 -0.13069973484E+03 -0.67381387721E+02  0.19450094732E+03  0.12700000000E+03 0.  0.
   -5000001    1    1    2    0    0 -0.88851793214E+01  0.13069973484E+03  0.10339910540E+02  0.18274922941E+03  0.12700000000E+03 0.  0.
<mgrwt>
<rscale>  0 0.37291281E+03</rscale>
<asrwt>0</asrwt>
<pdfrwt beam="1">  1        2 0.22872050E-01 0.37291281E+03</pdfrwt>
<pdfrwt beam="2">  1       -2 0.31020832E-01 0.37291281E+03</pdfrwt>
<totfact> 0.23031607E+03</totfact>
</mgrwt>
</event>
<event>
 4    1  0.9032007E-005  0.4276449E+03  0.7818608E-02  0.1034607E+00
          2   -1    0    0  501    0  0.00000000000E+00  0.00000000000E+00  0.37257871684E+03  0.37257871685E+03  0.25500000000E-02 0.  1.
         -2   -1    0    0    0  501 -0.00000000000E+00 -0.00000000000E+00 -0.12271243709E+03  0.12271243712E+03  0.25500000000E-02 0. -1.
    5000001    1    1    2    0    0  0.11025073310E+03 -0.51610461257E+02  0.26569971269E+03  0.31866000876E+03  0.12700000000E+03 0.  0.
   -5000001    1    1    2    0    0 -0.11025073310E+03  0.51610461257E+02 -0.15833432935E+02  0.17663114521E+03  0.12700000000E+03 0.  0.
<mgrwt>
<rscale>  0 0.42764491E+03</rscale>
<asrwt>0</asrwt>
<pdfrwt beam="1">  1        2 0.53225531E-01 0.42764491E+03</pdfrwt>
<pdfrwt beam="2">  1       -2 0.17530348E-01 0.42764491E+03</pdfrwt>
<totfact> 0.24844169E+03</totfact>
</mgrwt>
</event>
<event>
 4    1  0.9032007E-005  0.3307922E+03  0.7818608E-02  0.1070787E+00
          2   -1    0    0  501    0  0.00000000000E+00  0.00000000000E+00  0.14957793353E+04  0.14957793353E+04  0.25500000000E-02 0. -1.
         -2   -1    0    0    0  501 -0.00000000000E+00 -0.00000000000E+00 -0.18288705499E+02  0.18288705676E+02  0.25500000000E-02 0.  1.
    5000001    1    1    2    0    0  0.78071867767E+02 -0.69192274552E+02  0.82364775566E+03  0.83988535694E+03  0.12700000000E+03 0.  0.
   -5000001    1    1    2    0    0 -0.78071867767E+02  0.69192274552E+02  0.65384287411E+03  0.67418268401E+03  0.12700000000E+03 0.  0.
<mgrwt>
<rscale>  0 0.33079219E+03</rscale>
<asrwt>0</asrwt>
<pdfrwt beam="1">  1        2 0.21368286E+00 0.33079219E+03</pdfrwt>
<pdfrwt beam="2">  1       -2 0.26126711E-02 0.33079219E+03</pdfrwt>
<totfact> 0.81887465E+03</totfact>
</mgrwt>
</event>
<event>
 4    1  0.9032007E-005  0.2962060E+03  0.7818608E-02  0.1087153E+00
         -2   -1    0    0    0  501 -0.00000000000E+00  0.00000000000E+00  0.67563448967E+01  0.67563453779E+01  0.25500000000E-02 0. -1.
          2   -1    0    0  501    0  0.00000000000E+00 -0.00000000000E+00 -0.32465041803E+04  0.32465041803E+04  0.25500000000E-02 0.  1.
    5000001    1    1    2    0    0  0.29667824613E+02  0.67733275776E+02 -0.14180936279E+04  0.14256880844E+04  0.12700000000E+03 0.  0.
   -5000001    1    1    2    0    0 -0.29667824613E+02 -0.67733275776E+02 -0.18216542075E+04  0.18275724413E+04  0.12700000000E+03 0.  0.
<mgrwt>
<rscale>  0 0.29620603E+03</rscale>
<asrwt>0</asrwt>
<pdfrwt beam="1">  1        2 0.46378532E+00 0.29620603E+03</pdfrwt>
<pdfrwt beam="2">  1       -2 0.96519424E-03 0.29620603E+03</pdfrwt>
<totfact> 0.45789000E+03</totfact>
</mgrwt>
</event>
<event>
 4    1  0.9032007E-005  0.4239792E+03  0.7818608E-02  0.1035779E+00
          2   -1    0    0  501    0  0.00000000000E+00  0.00000000000E+00  0.11310929599E+04  0.11310929599E+04  0.25500000000E-02 0.  1.
         -2   -1    0    0    0  501 -0.00000000000E+00 -0.00000000000E+00 -0.39731121428E+02  0.39731121510E+02  0.25500000000E-02 0. -1.
    5000001    1    1    2    0    0 -0.37428522531E+01 -0.16066357015E+03  0.69652627691E+03  0.72601972848E+03  0.12700000000E+03 0.  0.
   -5000001    1    1    2    0    0  0.37428522531E+01  0.16066357015E+03  0.39483556160E+03  0.44480435297E+03  0.12700000000E+03 0.  0.
<mgrwt>
<rscale>  0 0.42397921E+03</rscale>
<asrwt>0</asrwt>
<pdfrwt beam="1">  1        2 0.16158467E+00 0.42397921E+03</pdfrwt>
<pdfrwt beam="2">  1       -2 0.56758757E-02 0.42397921E+03</pdfrwt>
<totfact> 0.39640577E+03</totfact>
</mgrwt>
</event>
<event>
 4    1  0.9032007E-005  0.6313537E+03  0.7818608E-02  0.9842411E-01
         -2   -1    0    0    0  501 -0.00000000000E+00  0.00000000000E+00  0.19734758976E+03  0.19734758977E+03  0.25500000000E-02 0. -1.
          2   -1    0    0  501    0  0.00000000000E+00 -0.00000000000E+00 -0.50495612508E+03  0.50495612509E+03  0.25500000000E-02 0.  1.
    5000001    1    1    2    0    0 -0.24130885334E+03  0.14121761511E+03 -0.23517145147E+03  0.38679062696E+03  0.12700000000E+03 0.  0.
   -5000001    1    1    2    0    0  0.24130885334E+03 -0.14121761511E+03 -0.72437083860E+02  0.31551308790E+03  0.12700000000E+03 0.  0.
<mgrwt>
<rscale>  0 0.63135370E+03</rscale>
<asrwt>0</asrwt>
<pdfrwt beam="1">  1        2 0.72136589E-01 0.63135370E+03</pdfrwt>
<pdfrwt beam="2">  1       -2 0.28192513E-01 0.63135370E+03</pdfrwt>
<totfact> 0.76658657E+02</totfact>
</mgrwt>
</event>
<event>
 4    1  0.9032007E-005  0.4753367E+03  0.7818608E-02  0.1020425E+00
         -2   -1    0    0    0  501 -0.00000000000E+00  0.00000000000E+00  0.42447901145E+03  0.42447901145E+03  0.25500000000E-02 0. -1.
          2   -1    0    0  501    0  0.00000000000E+00 -0.00000000000E+00 -0.13307191374E+03  0.13307191377E+03  0.25500000000E-02 0.  1.
    5000001    1    1    2    0    0  0.13763343584E+03 -0.14129763363E+03  0.10105010501E+03  0.25543709138E+03  0.12700000000E+03 0.  0.
   -5000001    1    1    2    0    0 -0.13763343584E+03  0.14129763363E+03  0.19035699270E+03  0.30211383384E+03  0.12700000000E+03 0.  0.
<mgrwt>
<rscale>  0 0.47533666E+03</rscale>
<asrwt>0</asrwt>
<pdfrwt beam="1">  1        2 0.19010273E-01 0.47533666E+03</pdfrwt>
<pdfrwt beam="2">  1       -2 0.60639860E-01 0.47533666E+03</pdfrwt>
<totfact> 0.76762091E+02</totfact>
</mgrwt>
</event>
<event>
 4    1  0.9032007E-005  0.3655308E+03  0.7818608E-02  0.1056415E+00
         -2   -1    0    0    0  501 -0.00000000000E+00  0.00000000000E+00  0.14601642914E+03  0.14601642916E+03  0.25500000000E-02 0. -1.
          2   -1    0    0  501    0  0.00000000000E+00 -0.00000000000E+00 -0.22876324644E+03  0.22876324646E+03  0.25500000000E-02 0.  1.
    5000001    1    1    2    0    0 -0.11646823957E+03 -0.46382228069E+02 -0.81844043789E+02  0.19632526433E+03  0.12700000000E+03 0.  0.
   -5000001    1    1    2    0    0  0.11646823957E+03  0.46382228069E+02 -0.90277351739E+00  0.17845441129E+03  0.12700000000E+03 0.  0.
<mgrwt>
<rscale>  0 0.36553081E+03</rscale>
<asrwt>0</asrwt>
<pdfrwt beam="1">  1        2 0.32680464E-01 0.36553081E+03</pdfrwt>
<pdfrwt beam="2">  1       -2 0.20859490E-01 0.36553081E+03</pdfrwt>
<totfact> 0.31338699E+03</totfact>
</mgrwt>
</event>
<event>
 4    1  0.9032007E-005  0.2744573E+03  0.7818608E-02  0.1098755E+00
          2   -1    0    0  501    0  0.00000000000E+00  0.00000000000E+00  0.26423828428E+03  0.26423828429E+03  0.25500000000E-02 0.  1.
         -2   -1    0    0    0  501 -0.00000000000E+00 -0.00000000000E+00 -0.71267871842E+02  0.71267871887E+02  0.25500000000E-02 0. -1.
    5000001    1    1    2    0    0  0.34752252457E+02 -0.35316080980E+02  0.77243772043E+02  0.15668613514E+03  0.12700000000E+03 0.  0.
   -5000001    1    1    2    0    0 -0.34752252457E+02  0.35316080980E+02  0.11572664040E+03  0.17882002104E+03  0.12700000000E+03 0.  0.
<mgrwt>
<rscale>  0 0.27445728E+03</rscale>
<asrwt>0</asrwt>
<pdfrwt beam="1">  1        2 0.37748327E-01 0.27445728E+03</pdfrwt>
<pdfrwt beam="2">  1       -2 0.10181124E-01 0.27445728E+03</pdfrwt>
<totfact> 0.87027434E+03</totfact>
</mgrwt>
</event>
<event>
 4    1  0.9032007E-005  0.3140002E+03  0.7818608E-02  0.1078444E+00
         -2   -1    0    0    0  501 -0.00000000000E+00  0.00000000000E+00  0.68203424765E+03  0.68203424765E+03  0.25500000000E-02 0. -1.
          2   -1    0    0  501    0  0.00000000000E+00 -0.00000000000E+00 -0.36140463103E+02  0.36140463193E+02  0.25500000000E-02 0.  1.
    5000001    1    1    2    0    0 -0.73683812991E+01  0.85930010650E+02  0.24772081805E+03  0.29143243380E+03  0.12700000000E+03 0.  0.
   -5000001    1    1    2    0    0  0.73683812991E+01 -0.85930010650E+02  0.39817296649E+03  0.42674227705E+03  0.12700000000E+03 0.  0.
<mgrwt>
<rscale>  0 0.31400021E+03</rscale>
<asrwt>0</asrwt>
<pdfrwt beam="1">  1        2 0.51629232E-02 0.31400021E+03</pdfrwt>
<pdfrwt beam="2">  1       -2 0.97433466E-01 0.31400021E+03</pdfrwt>
<totfact> 0.13779412E+03</totfact>
</mgrwt>
</event>
<event>
 4    1  0.9032007E-005  0.4466101E+03  0.7818608E-02  0.1028738E+00
          2   -1    0    0  501    0  0.00000000000E+00  0.00000000000E+00  0.29186495037E+04  0.29186495037E+04  0.25500000000E-02 0.  1.
         -2   -1    0    0    0  501 -0.00000000000E+00 -0.00000000000E+00 -0.17085007842E+02  0.17085008032E+02  0.25500000000E-02 0. -1.
    5000001    1    1    2    0    0 -0.66186114103E+02  0.15638857042E+03  0.99073244683E+03  0.10131721314E+04  0.12700000000E+03 0.  0.
   -5000001    1    1    2    0    0  0.66186114103E+02 -0.15638857042E+03  0.19108320490E+04  0.19225623803E+04  0.12700000000E+03 0.  0.
<mgrwt>
<rscale>  0 0.44661012E+03</rscale>
<asrwt>0</asrwt>
<pdfrwt beam="1">  1        2 0.41694939E+00 0.44661012E+03</pdfrwt>
<pdfrwt beam="2">  1       -2 0.24407186E-02 0.44661012E+03</pdfrwt>
<totfact> 0.17332945E+03</totfact>
</mgrwt>
</event>
<event>
 4    1  0.9032007E-005  0.4851851E+03  0.7818608E-02  0.1017720E+00
         -2   -1    0    0    0  501 -0.00000000000E+00  0.00000000000E+00  0.37570462788E+02  0.37570462875E+02  0.25500000000E-02 0. -1.
          2   -1    0    0  501    0  0.00000000000E+00 -0.00000000000E+00 -0.15664205886E+04  0.15664205886E+04  0.25500000000E-02 0.  1.
    5000001    1    1    2    0    0  0.57401540205E+02 -0.12507838681E+03 -0.25459644517E+03  0.31605045414E+03  0.12700000000E+03 0.  0.
   -5000001    1    1    2    0    0 -0.57401540205E+02  0.12507838681E+03 -0.12742536806E+04  0.12879405973E+04  0.12700000000E+03 0.  0.
<mgrwt>
<rscale>  0 0.48518510E+03</rscale>
<asrwt>0</asrwt>
<pdfrwt beam="1">  1        2 0.22377433E+00 0.48518510E+03</pdfrwt>
<pdfrwt beam="2">  1       -2 0.53672100E-02 0.48518510E+03</pdfrwt>
<totfact> 0.25301884E+03</totfact>
</mgrwt>
</event>
<event>
 4    1  0.9032007E-005  0.8352734E+03  0.7818608E-02  0.9510319E-01
          2   -1    0    0  501    0  0.00000000000E+00  0.00000000000E+00  0.15616055950E+04  0.15616055951E+04  0.25500000000E-02 0.  1.
         -2   -1    0    0    0  501 -0.00000000000E+00 -0.00000000000E+00 -0.11169298937E+03  0.11169298940E+03  0.25500000000E-02 0. -1.
    5000001    1    1    2    0    0 -0.35160135418E+03 -0.18395781029E+03  0.78258050379E+03  0.88658064108E+03  0.12700000000E+03 0.  0.
   -5000001    1    1    2    0    0  0.35160135418E+03  0.18395781029E+03  0.66733210189E+03  0.78671794338E+03  0.12700000000E+03 0.  0.
<mgrwt>
<rscale>  0 0.83527336E+03</rscale>
<asrwt>0</asrwt>
<pdfrwt beam="1">  1        2 0.22308650E+00 0.83527336E+03</pdfrwt>
<pdfrwt beam="2">  1       -2 0.15956142E-01 0.83527336E+03</pdfrwt>
<totfact> 0.43039044E+02</totfact>
</mgrwt>
</event>
<event>
 4    1  0.9032007E-005  0.4469527E+03  0.7818608E-02  0.1028635E+00
          2   -1    0    0  501    0  0.00000000000E+00  0.00000000000E+00  0.27806402048E+03  0.27806402049E+03  0.25500000000E-02 0.  1.
         -2   -1    0    0    0  501 -0.00000000000E+00 -0.00000000000E+00 -0.17960493927E+03  0.17960493929E+03  0.25500000000E-02 0. -1.
    5000001    1    1    2    0    0 -0.10059779426E+03 -0.11272817372E+03 -0.58093313391E+02  0.20574593659E+03  0.12700000000E+03 0.  0.
   -5000001    1    1    2    0    0  0.10059779426E+03  0.11272817372E+03  0.15655239460E+03  0.25192302319E+03  0.12700000000E+03 0.  0.
<mgrwt>
<rscale>  0 0.44695267E+03</rscale>
<asrwt>0</asrwt>
<pdfrwt beam="1">  1        2 0.39723431E-01 0.44695267E+03</pdfrwt>
<pdfrwt beam="2">  1       -2 0.25657848E-01 0.44695267E+03</pdfrwt>
<totfact> 0.17618600E+03</totfact>
</mgrwt>
</event>
<event>
 4    1  0.9032007E-005  0.4896101E+03  0.7818608E-02  0.1016527E+00
          2   -1    0    0  501    0  0.00000000000E+00  0.00000000000E+00  0.92421233391E+03  0.92421233391E+03  0.25500000000E-02 0.  1.
         -2   -1    0    0    0  501 -0.00000000000E+00 -0.00000000000E+00 -0.64843880770E+02  0.64843880820E+02  0.25500000000E-02 0. -1.
    5000001    1    1    2    0    0  0.19312245245E+03  0.31689765570E+02  0.27987049851E+03  0.36435836592E+03  0.12700000000E+03 0.  0.
   -5000001    1    1    2    0    0 -0.19312245245E+03 -0.31689765570E+02  0.57949795463E+03  0.62469784881E+03  0.12700000000E+03 0.  0.
<mgrwt>
<rscale>  0 0.48961011E+03</rscale>
<asrwt>0</asrwt>
<pdfrwt beam="1">  1        2 0.13203034E+00 0.48961011E+03</pdfrwt>
<pdfrwt beam="2">  1       -2 0.92634114E-02 0.48961011E+03</pdfrwt>
<totfact> 0.24369796E+03</totfact>
</mgrwt>
</event>
<event>
 4    1  0.9032007E-005  0.5552986E+03  0.7818608E-02  0.1000275E+00
         -2   -1    0    0    0  501 -0.00000000000E+00  0.00000000000E+00  0.31778769856E+02  0.31778769958E+02  0.25500000000E-02 0. -1.
          2   -1    0    0  501    0  0.00000000000E+00 -0.00000000000E+00 -0.24258062355E+04  0.24258062355E+04  0.25500000000E-02 0.  1.
    5000001    1    1    2    0    0 -0.14798746209E+03 -0.19701800437E+03 -0.11279167764E+04  0.11614825171E+04  0.12700000000E+03 0.  0.
   -5000001    1    1    2    0    0  0.14798746209E+03  0.19701800437E+03 -0.12661106892E+04  0.12961024883E+04  0.12700000000E+03 0.  0.
<mgrwt>
<rscale>  0 0.55529862E+03</rscale>
<asrwt>0</asrwt>
<pdfrwt beam="1">  1        2 0.34654363E+00 0.55529862E+03</pdfrwt>
<pdfrwt beam="2">  1       -2 0.45398258E-02 0.55529862E+03</pdfrwt>
<totfact> 0.12070630E+03</totfact>
</mgrwt>
</event>
<event>
 4    1  0.9032007E-005  0.3837943E+03  0.7818608E-02  0.1049540E+00
          2   -1    0    0  501    0  0.00000000000E+00  0.00000000000E+00  0.12158092584E+03  0.12158092587E+03  0.25500000000E-02 0. -1.
         -2   -1    0    0    0  501 -0.00000000000E+00 -0.00000000000E+00 -0.30288063798E+03  0.30288063799E+03  0.25500000000E-02 0.  1.
    5000001    1    1    2    0    0 -0.10932540157E+03  0.96077123950E+01 -0.19351707242E+03  0.25616832139E+03  0.12700000000E+03 0.  0.
   -5000001    1    1    2    0    0  0.10932540157E+03 -0.96077123950E+01  0.12217360285E+02  0.16829324246E+03  0.12700000000E+03 0.  0.
<mgrwt>
<rscale>  0 0.38379426E+03</rscale>
<asrwt>0</asrwt>
<pdfrwt beam="1">  1        2 0.17368704E-01 0.38379426E+03</pdfrwt>
<pdfrwt beam="2">  1       -2 0.43268662E-01 0.38379426E+03</pdfrwt>
<totfact> 0.16871967E+03</totfact>
</mgrwt>
</event>
<event>
 4    1  0.9032007E-005  0.6547743E+03  0.7818608E-02  0.9797861E-01
          2   -1    0    0  501    0  0.00000000000E+00  0.00000000000E+00  0.39971195725E+04  0.39971195725E+04  0.25500000000E-02 0.  1.
         -2   -1    0    0    0  501 -0.00000000000E+00 -0.00000000000E+00 -0.26814899093E+02  0.26814899214E+02  0.25500000000E-02 0. -1.
    5000001    1    1    2    0    0  0.30661077880E+02  0.12155332052E+03  0.36719633518E+04  0.36762969369E+04  0.12700000000E+03 0.  0.
   -5000001    1    1    2    0    0 -0.30661077880E+02 -0.12155332052E+03  0.29834132166E+03  0.34763753485E+03  0.12700000000E+03 0.  0.
<mgrwt>
<rscale>  0 0.65477434E+03</rscale>
<asrwt>0</asrwt>
<pdfrwt beam="1">  1        2 0.57101690E+00 0.65477434E+03</pdfrwt>
<pdfrwt beam="2">  1       -2 0.38307011E-02 0.65477434E+03</pdfrwt>
<totfact> 0.19644998E+02</totfact>
</mgrwt>
</event>
<event>
 4    1  0.9032007E-005  0.5066878E+03  0.7818608E-02  0.1012048E+00
          2   -1    0    0  501    0  0.00000000000E+00  0.00000000000E+00  0.14096830024E+04  0.14096830024E+04  0.25500000000E-02 0.  1.
         -2   -1    0    0    0  501 -0.00000000000E+00 -0.00000000000E+00 -0.45530194560E+02  0.45530194631E+02  0.25500000000E-02 0. -1.
    5000001    1    1    2    0    0 -0.17987055877E+03 -0.92412625535E+02  0.43904535263E+03  0.49978328597E+03  0.12700000000E+03 0.  0.
   -5000001    1    1    2    0    0  0.17987055877E+03  0.92412625535E+02  0.92510745520E+03  0.95542991105E+03  0.12700000000E+03 0.  0.
<mgrwt>
<rscale>  0 0.50668784E+03</rscale>
<asrwt>0</asrwt>
<pdfrwt beam="1">  1        2 0.20138324E+00 0.50668784E+03</pdfrwt>
<pdfrwt beam="2">  1       -2 0.65043150E-02 0.50668784E+03</pdfrwt>
<totfact> 0.22609595E+03</totfact>
</mgrwt>
</event>
<event>
 4    1  0.9032007E-005  0.5188000E+03  0.7818608E-02  0.1008985E+00
         -2   -1    0    0    0  501 -0.00000000000E+00  0.00000000000E+00  0.43585511062E+02  0.43585511137E+02  0.25500000000E-02 0. -1.
          2   -1    0    0  501    0  0.00000000000E+00 -0.00000000000E+00 -0.15438239492E+04  0.15438239492E+04  0.25500000000E-02 0.  1.
    5000001    1    1    2    0    0 -0.62367278814E+02 -0.20481789597E+03 -0.97327933329E+03  0.10046102272E+04  0.12700000000E+03 0.  0.
   -5000001    1    1    2    0    0  0.62367278814E+02  0.20481789597E+03 -0.52695910489E+03  0.58279923319E+03  0.12700000000E+03 0.  0.
<mgrwt>
<rscale>  0 0.51879998E+03</rscale>
<asrwt>0</asrwt>
<pdfrwt beam="1">  1        2 0.22054624E+00 0.51879998E+03</pdfrwt>
<pdfrwt beam="2">  1       -2 0.62265026E-02 0.51879998E+03</pdfrwt>
<totfact> 0.20608585E+03</totfact>
</mgrwt>
</event>
<event>
 4    1  0.9032007E-005  0.6113449E+03  0.7818608E-02  0.9882145E-01
         -2   -1    0    0    0  501 -0.00000000000E+00  0.00000000000E+00  0.30856730606E+03  0.30856730607E+03  0.25500000000E-02 0. -1.
          2   -1    0    0  501    0  0.00000000000E+00 -0.00000000000E+00 -0.30280471549E+03  0.30280471550E+03  0.25500000000E-02 0.  1.
    5000001    1    1    2    0    0  0.28095510270E+02  0.18513460850E+03 -0.20265752745E+03  0.30374866979E+03  0.12700000000E+03 0.  0.
   -5000001    1    1    2    0    0 -0.28095510270E+02 -0.18513460850E+03  0.20842011803E+03  0.30762335178E+03  0.12700000000E+03 0.  0.
<mgrwt>
<rscale>  0 0.61134486E+03</rscale>
<asrwt>0</asrwt>
<pdfrwt beam="1">  1        2 0.43257816E-01 0.61134486E+03</pdfrwt>
<pdfrwt beam="2">  1       -2 0.44081044E-01 0.61134486E+03</pdfrwt>
<totfact> 0.58000638E+02</totfact>
</mgrwt>
</event>
<event>
 4    1  0.9032007E-005  0.3187415E+03  0.7818608E-02  0.1076230E+00
         -2   -1    0    0    0  501 -0.00000000000E+00  0.00000000000E+00  0.77170842998E+01  0.77170847211E+01  0.25500000000E-02 0. -1.
          2   -1    0    0  501    0  0.00000000000E+00 -0.00000000000E+00 -0.32912742408E+04  0.32912742408E+04  0.25500000000E-02 0.  1.
    5000001    1    1    2    0    0  0.45290273784E+02 -0.82859087615E+02 -0.18362946199E+04  0.18431016707E+04  0.12700000000E+03 0.  0.
   -5000001    1    1    2    0    0 -0.45290273784E+02  0.82859087615E+02 -0.14472625365E+04  0.14558896548E+04  0.12700000000E+03 0.  0.
<mgrwt>
<rscale>  0 0.31874153E+03</rscale>
<asrwt>0</asrwt>
<pdfrwt beam="1">  1        2 0.47018114E+00 0.31874153E+03</pdfrwt>
<pdfrwt beam="2">  1       -2 0.11024427E-02 0.31874153E+03</pdfrwt>
<totfact> 0.35558159E+03</totfact>
</mgrwt>
</event>
<event>
 4    1  0.9032007E-005  0.4129233E+03  0.7818608E-02  0.1039394E+00
         -2   -1    0    0    0  501 -0.00000000000E+00  0.00000000000E+00  0.16033019851E+03  0.16033019853E+03  0.25500000000E-02 0. -1.
          2   -1    0    0  501    0  0.00000000000E+00 -0.00000000000E+00 -0.26586641241E+03  0.26586641242E+03  0.25500000000E-02 0.  1.
    5000001    1    1    2    0    0 -0.12116268614E+03 -0.78109499213E+02  0.25265885612E+02  0.19377527024E+03  0.12700000000E+03 0.  0.
   -5000001    1    1    2    0    0  0.12116268614E+03  0.78109499213E+02 -0.13080209951E+03  0.23242134071E+03  0.12700000000E+03 0.  0.
<mgrwt>
<rscale>  0 0.41292331E+03</rscale>
<asrwt>0</asrwt>
<pdfrwt beam="1">  1        2 0.37980916E-01 0.41292331E+03</pdfrwt>
<pdfrwt beam="2">  1       -2 0.22904314E-01 0.41292331E+03</pdfrwt>
<totfact> 0.22618127E+03</totfact>
</mgrwt>
</event>
<event>
 4    1  0.9032007E-005  0.3215173E+03  0.7818608E-02  0.1074953E+00
          2   -1    0    0  501    0  0.00000000000E+00  0.00000000000E+00  0.14716677076E+04  0.14716677076E+04  0.25500000000E-02 0.  1.
         -2   -1    0    0    0  501 -0.00000000000E+00 -0.00000000000E+00 -0.17560582325E+02  0.17560582510E+02  0.25500000000E-02 0. -1.
    5000001    1    1    2    0    0  0.45211995171E+02 -0.87462891047E+02  0.74800493549E+03  0.76507141192E+03  0.12700000000E+03 0.  0.
   -5000001    1    1    2    0    0 -0.45211995171E+02  0.87462891047E+02  0.70610218982E+03  0.72415687823E+03  0.12700000000E+03 0.  0.
<mgrwt>
<rscale>  0 0.32151729E+03</rscale>
<asrwt>0</asrwt>
<pdfrwt beam="1">  1        2 0.21023818E+00 0.32151729E+03</pdfrwt>
<pdfrwt beam="2">  1       -2 0.25086554E-02 0.32151729E+03</pdfrwt>
<totfact> 0.89446506E+03</totfact>
</mgrwt>
</event>
<event>
 4    1  0.9032007E-005  0.3119356E+03  0.7818608E-02  0.1079422E+00
         -2   -1    0    0    0  501 -0.00000000000E+00  0.00000000000E+00  0.36881090358E+02  0.36881090446E+02  0.25500000000E-02 0. -1.
          2   -1    0    0  501    0  0.00000000000E+00 -0.00000000000E+00 -0.65957803480E+03  0.65957803480E+03  0.25500000000E-02 0.  1.
    5000001    1    1    2    0    0 -0.46769924442E+02 -0.73208559737E+02 -0.25442386161E+03  0.29733385345E+03  0.12700000000E+03 0.  0.
   -5000001    1    1    2    0    0  0.46769924442E+02  0.73208559737E+02 -0.36827308283E+03  0.39912527180E+03  0.12700000000E+03 0.  0.
<mgrwt>
<rscale>  0 0.31193562E+03</rscale>
<asrwt>0</asrwt>
<pdfrwt beam="1">  1        2 0.94225426E-01 0.31193562E+03</pdfrwt>
<pdfrwt beam="2">  1       -2 0.52687276E-02 0.31193562E+03</pdfrwt>
<totfact> 0.89118916E+03</totfact>
</mgrwt>
</event>
<event>
 4    1  0.9032007E-005  0.7876034E+03  0.7818608E-02  0.9578136E-01
         -2   -1    0    0    0  501 -0.00000000000E+00  0.00000000000E+00  0.10449259646E+03  0.10449259649E+03  0.25500000000E-02 0.  1.
          2   -1    0    0  501    0  0.00000000000E+00 -0.00000000000E+00 -0.14841221640E+04  0.14841221640E+04  0.25500000000E-02 0. -1.
    5000001    1    1    2    0    0 -0.14243061846E+03  0.25323135749E+03 -0.11608586144E+04  0.12033845287E+04  0.12700000000E+03 0.  0.
   -5000001    1    1    2    0    0  0.14243061846E+03 -0.25323135749E+03 -0.21877095318E+03  0.38523023174E+03  0.12700000000E+03 0.  0.
<mgrwt>
<rscale>  0 0.78760340E+03</rscale>
<asrwt>0</asrwt>
<pdfrwt beam="1">  1        2 0.21201744E+00 0.78760340E+03</pdfrwt>
<pdfrwt beam="2">  1       -2 0.14927515E-01 0.78760340E+03</pdfrwt>
<totfact> 0.53057368E+02</totfact>
</mgrwt>
</event>
<event>
 4    1  0.9032007E-005  0.3515101E+03  0.7818608E-02  0.1061997E+00
          2   -1    0    0  501    0  0.00000000000E+00  0.00000000000E+00  0.63395750908E+03  0.63395750908E+03  0.25500000000E-02 0.  1.
         -2   -1    0    0    0  501 -0.00000000000E+00 -0.00000000000E+00 -0.48725411585E+02  0.48725411651E+02  0.25500000000E-02 0. -1.
    5000001    1    1    2    0    0  0.11609177428E+03  0.33985409652E+01  0.22334956635E+03  0.28196254880E+03  0.12700000000E+03 0.  0.
   -5000001    1    1    2    0    0 -0.11609177428E+03 -0.33985409652E+01  0.36188253114E+03  0.40072037193E+03  0.12700000000E+03 0.  0.
<mgrwt>
<rscale>  0 0.35151012E+03</rscale>
<asrwt>0</asrwt>
<pdfrwt beam="1">  1        2 0.90565356E-01 0.35151012E+03</pdfrwt>
<pdfrwt beam="2">  1       -2 0.69607733E-02 0.35151012E+03</pdfrwt>
<totfact> 0.60951462E+03</totfact>
</mgrwt>
</event>
<event>
 4    1  0.9032007E-005  0.4316387E+03  0.7818608E-02  0.1033344E+00
          2   -1    0    0  501    0  0.00000000000E+00  0.00000000000E+00  0.16529820472E+04  0.16529820472E+04  0.25500000000E-02 0.  1.
         -2   -1    0    0    0  501 -0.00000000000E+00 -0.00000000000E+00 -0.28178163106E+02  0.28178163221E+02  0.25500000000E-02 0. -1.
    5000001    1    1    2    0    0  0.59207843326E+02  0.16108081826E+03  0.68945850087E+03  0.72175800871E+03  0.12700000000E+03 0.  0.
   -5000001    1    1    2    0    0 -0.59207843326E+02 -0.16108081826E+03  0.93534538322E+03  0.95940220170E+03  0.12700000000E+03 0.  0.
<mgrwt>
<rscale>  0 0.43163873E+03</rscale>
<asrwt>0</asrwt>
<pdfrwt beam="1">  1        2 0.23614036E+00 0.43163873E+03</pdfrwt>
<pdfrwt beam="2">  1       -2 0.40254507E-02 0.43163873E+03</pdfrwt>
<totfact> 0.35599584E+03</totfact>
</mgrwt>
</event>
<event>
 4    1  0.9032007E-005  0.4207316E+03  0.7818608E-02  0.1036828E+00
          2   -1    0    0  501    0  0.00000000000E+00  0.00000000000E+00  0.12494600260E+04  0.12494600260E+04  0.25500000000E-02 0.  1.
         -2   -1    0    0    0  501 -0.00000000000E+00 -0.00000000000E+00 -0.35418318828E+02  0.35418318920E+02  0.25500000000E-02 0. -1.
    5000001    1    1    2    0    0  0.73231905231E+02 -0.13164309601E+03  0.38194183185E+03  0.42976898397E+03  0.12700000000E+03 0.  0.
   -5000001    1    1    2    0    0 -0.73231905231E+02  0.13164309601E+03  0.83209987531E+03  0.85510936094E+03  0.12700000000E+03 0.  0.
<mgrwt>
<rscale>  0 0.42073162E+03</rscale>
<asrwt>0</asrwt>
<pdfrwt beam="1">  1        2 0.17849426E+00 0.42073162E+03</pdfrwt>
<pdfrwt beam="2">  1       -2 0.50597606E-02 0.42073162E+03</pdfrwt>
<totfact> 0.40686512E+03</totfact>
</mgrwt>
</event>
<event>
 4    1  0.9032007E-005  0.3003156E+03  0.7818608E-02  0.1085083E+00
         -2   -1    0    0    0  501 -0.00000000000E+00  0.00000000000E+00  0.93934648592E+02  0.93934648626E+02  0.25500000000E-02 0. -1.
          2   -1    0    0  501    0  0.00000000000E+00 -0.00000000000E+00 -0.24003246457E+03  0.24003246458E+03  0.25500000000E-02 0.  1.
    5000001    1    1    2    0    0 -0.59198354874E+02  0.33586753574E+01 -0.13296208404E+03  0.19319327553E+03  0.12700000000E+03 0.  0.
   -5000001    1    1    2    0    0  0.59198354874E+02 -0.33586753574E+01 -0.13135731940E+02  0.14077383767E+03  0.12700000000E+03 0.  0.
<mgrwt>
<rscale>  0 0.30031560E+03</rscale>
<asrwt>0</asrwt>
<pdfrwt beam="1">  1        2 0.34290352E-01 0.30031560E+03</pdfrwt>
<pdfrwt beam="2">  1       -2 0.13419236E-01 0.30031560E+03</pdfrwt>
<totfact> 0.62083799E+03</totfact>
</mgrwt>
</event>
<event>
 4    1  0.9032007E-005  0.2998583E+03  0.7818608E-02  0.1085311E+00
          2   -1    0    0  501    0  0.00000000000E+00  0.00000000000E+00  0.20411256029E+03  0.20411256031E+03  0.25500000000E-02 0.  1.
         -2   -1    0    0    0  501 -0.00000000000E+00 -0.00000000000E+00 -0.11012920487E+03  0.11012920490E+03  0.25500000000E-02 0. -1.
    5000001    1    1    2    0    0  0.84513994101E+01  0.78970681192E+02  0.40203360973E+02  0.15509063438E+03  0.12700000000E+03 0.  0.
   -5000001    1    1    2    0    0 -0.84513994101E+01 -0.78970681192E+02  0.53779994449E+02  0.15915113083E+03  0.12700000000E+03 0.  0.
<mgrwt>
<rscale>  0 0.29985833E+03</rscale>
<asrwt>0</asrwt>
<pdfrwt beam="1">  1        2 0.29158937E-01 0.29985833E+03</pdfrwt>
<pdfrwt beam="2">  1       -2 0.15732744E-01 0.29985833E+03</pdfrwt>
<totfact> 0.57036458E+03</totfact>
</mgrwt>
</event>
<event>
 4    1  0.9032007E-005  0.5267671E+03  0.7818608E-02  0.1007019E+00
          2   -1    0    0  501    0  0.00000000000E+00  0.00000000000E+00  0.23830456452E+04  0.23830456452E+04  0.25500000000E-02 0.  1.
         -2   -1    0    0    0  501 -0.00000000000E+00 -0.00000000000E+00 -0.29110178651E+02  0.29110178763E+02  0.25500000000E-02 0. -1.
    5000001    1    1    2    0    0  0.31836696446E+02  0.15318563014E+03  0.19535721438E+04  0.19639380167E+04  0.12700000000E+03 0.  0.
   -5000001    1    1    2    0    0 -0.31836696446E+02 -0.15318563014E+03  0.40036332277E+03  0.44821780726E+03  0.12700000000E+03 0.  0.
<mgrwt>
<rscale>  0 0.52676706E+03</rscale>
<asrwt>0</asrwt>
<pdfrwt beam="1">  1        2 0.34043503E+00 0.52676706E+03</pdfrwt>
<pdfrwt beam="2">  1       -2 0.41585977E-02 0.52676706E+03</pdfrwt>
<totfact> 0.14548971E+03</totfact>
</mgrwt>
</event>
<event>
 4    1  0.9032007E-005  0.3180805E+03  0.7818608E-02  0.1076536E+00
          2   -1    0    0  501    0  0.00000000000E+00  0.00000000000E+00  0.10550543991E+04  0.10550543991E+04  0.25500000000E-02 0.  1.
         -2   -1    0    0    0  501 -0.00000000000E+00 -0.00000000000E+00 -0.23973928536E+02  0.23973928672E+02  0.25500000000E-02 0. -1.
    5000001    1    1    2    0    0 -0.22751138770E+02  0.73535752044E+02  0.70862442928E+03  0.72401844101E+03  0.12700000000E+03 0.  0.
   -5000001    1    1    2    0    0  0.22751138770E+02 -0.73535752044E+02  0.32245604129E+03  0.35500988678E+03  0.12700000000E+03 0.  0.
<mgrwt>
<rscale>  0 0.31808049E+03</rscale>
<asrwt>0</asrwt>
<pdfrwt beam="1">  1        2 0.15072205E+00 0.31808049E+03</pdfrwt>
<pdfrwt beam="2">  1       -2 0.34248471E-02 0.31808049E+03</pdfrwt>
<totfact> 0.94154464E+03</totfact>
</mgrwt>
</event>
<event>
 4    1  0.9032007E-005  0.3662117E+03  0.7818608E-02  0.1056151E+00
         -2   -1    0    0    0  501 -0.00000000000E+00  0.00000000000E+00  0.42259733247E+02  0.42259733324E+02  0.25500000000E-02 0.  1.
          2   -1    0    0  501    0  0.00000000000E+00 -0.00000000000E+00 -0.79337342354E+03  0.79337342354E+03  0.25500000000E-02 0. -1.
    5000001    1    1    2    0    0  0.11437566844E+03  0.10402608815E+02 -0.52359020391E+03  0.55087721811E+03  0.12700000000E+03 0.  0.
   -5000001    1    1    2    0    0 -0.11437566844E+03 -0.10402608815E+02 -0.22752348639E+03  0.28475593876E+03  0.12700000000E+03 0.  0.
<mgrwt>
<rscale>  0 0.36621168E+03</rscale>
<asrwt>0</asrwt>
<pdfrwt beam="1">  1        2 0.11333905E+00 0.36621168E+03</pdfrwt>
<pdfrwt beam="2">  1       -2 0.60371052E-02 0.36621168E+03</pdfrwt>
<totfact> 0.58064640E+03</totfact>
</mgrwt>
</event>
<event>
 4    1  0.9032007E-005  0.4191052E+03  0.7818608E-02  0.1037358E+00
         -2   -1    0    0    0  501 -0.00000000000E+00  0.00000000000E+00  0.14383825114E+03  0.14383825117E+03  0.25500000000E-02 0. -1.
          2   -1    0    0  501    0  0.00000000000E+00 -0.00000000000E+00 -0.30528938371E+03  0.30528938373E+03  0.25500000000E-02 0.  1.
    5000001    1    1    2    0    0 -0.35646633232E+02 -0.14561356625E+03 -0.15881014688E+03  0.25263344174E+03  0.12700000000E+03 0.  0.
   -5000001    1    1    2    0    0  0.35646633232E+02  0.14561356625E+03 -0.26409856934E+01  0.19649419315E+03  0.12700000000E+03 0.  0.
<mgrwt>
<rscale>  0 0.41910519E+03</rscale>
<asrwt>0</asrwt>
<pdfrwt beam="1">  1        2 0.43612769E-01 0.41910519E+03</pdfrwt>
<pdfrwt beam="2">  1       -2 0.20548322E-01 0.41910519E+03</pdfrwt>
<totfact> 0.23508502E+03</totfact>
</mgrwt>
</event>
<event>
 4    1  0.9032007E-005  0.4215066E+03  0.7818608E-02  0.1036577E+00
          2   -1    0    0  501    0  0.00000000000E+00  0.00000000000E+00  0.31228453122E+03  0.31228453123E+03  0.25500000000E-02 0.  1.
         -2   -1    0    0    0  501 -0.00000000000E+00 -0.00000000000E+00 -0.14223231046E+03  0.14223231048E+03  0.25500000000E-02 0. -1.
    5000001    1    1    2    0    0 -0.15231545711E+03 -0.63959378900E+02  0.11907679237E+03  0.23999808979E+03  0.12700000000E+03 0.  0.
   -5000001    1    1    2    0    0  0.15231545711E+03  0.63959378900E+02  0.50975428401E+02  0.21451875192E+03  0.12700000000E+03 0.  0.
<mgrwt>
<rscale>  0 0.42150659E+03</rscale>
<asrwt>0</asrwt>
<pdfrwt beam="1">  1        2 0.44612076E-01 0.42150659E+03</pdfrwt>
<pdfrwt beam="2">  1       -2 0.20318902E-01 0.42150659E+03</pdfrwt>
<totfact> 0.23386640E+03</totfact>
</mgrwt>
</event>
<event>
 4    1  0.9032007E-005  0.3654234E+03  0.7818608E-02  0.1056457E+00
          2   -1    0    0  501    0  0.00000000000E+00  0.00000000000E+00  0.12197549683E+04  0.12197549683E+04  0.25500000000E-02 0.  1.
         -2   -1    0    0    0  501 -0.00000000000E+00 -0.00000000000E+00 -0.27369068726E+02  0.27369068845E+02  0.25500000000E-02 0. -1.
    5000001    1    1    2    0    0  0.11092354890E+03 -0.14368769310E+02  0.83125825972E+03  0.84830996079E+03  0.12700000000E+03 0.  0.
   -5000001    1    1    2    0    0 -0.11092354890E+03  0.14368769310E+02  0.36112763989E+03  0.39881407639E+03  0.12700000000E+03 0.  0.
<mgrwt>
<rscale>  0 0.36542336E+03</rscale>
<asrwt>0</asrwt>
<pdfrwt beam="1">  1        2 0.17425075E+00 0.36542336E+03</pdfrwt>
<pdfrwt beam="2">  1       -2 0.39098661E-02 0.36542336E+03</pdfrwt>
<totfact> 0.62511386E+03</totfact>
</mgrwt>
</event>
<event>
 4    1  0.9032007E-005  0.3522841E+03  0.7818608E-02  0.1061681E+00
          2   -1    0    0  501    0  0.00000000000E+00  0.00000000000E+00  0.13889617324E+04  0.13889617324E+04  0.25500000000E-02 0.  1.
         -2   -1    0    0    0  501 -0.00000000000E+00 -0.00000000000E+00 -0.22337570092E+02  0.22337570237E+02  0.25500000000E-02 0. -1.
    5000001    1    1    2    0    0 -0.69204621368E+02  0.95484630151E+02  0.80939005542E+03  0.82773658613E+03  0.12700000000E+03 0.  0.
   -5000001    1    1    2    0    0  0.69204621368E+02 -0.95484630151E+02  0.55723410687E+03  0.58356271649E+03  0.12700000000E+03 0.  0.
<mgrwt>
<rscale>  0 0.35228415E+03</rscale>
<asrwt>0</asrwt>
<pdfrwt beam="1">  1        2 0.19842312E+00 0.35228415E+03</pdfrwt>
<pdfrwt beam="2">  1       -2 0.31910813E-02 0.35228415E+03</pdfrwt>
<totfact> 0.68977105E+03</totfact>
</mgrwt>
</event>
<event>
 4    1  0.9032007E-005  0.4374446E+03  0.7818608E-02  0.1031534E+00
         -2   -1    0    0    0  501 -0.00000000000E+00  0.00000000000E+00  0.21527521073E+02  0.21527521224E+02  0.25500000000E-02 0.  1.
          2   -1    0    0  501    0  0.00000000000E+00 -0.00000000000E+00 -0.22222458155E+04  0.22222458155E+04  0.25500000000E-02 0. -1.
    5000001    1    1    2    0    0  0.12614104755E+02 -0.16630484521E+03 -0.78028147196E+03  0.80795086030E+03  0.12700000000E+03 0.  0.
   -5000001    1    1    2    0    0 -0.12614104755E+02  0.16630484521E+03 -0.14204368225E+04  0.14358224765E+04  0.12700000000E+03 0.  0.
<mgrwt>
<rscale>  0 0.43744460E+03</rscale>
<asrwt>0</asrwt>
<pdfrwt beam="1">  1        2 0.31746354E+00 0.43744460E+03</pdfrwt>
<pdfrwt beam="2">  1       -2 0.30753616E-02 0.43744460E+03</pdfrwt>
<totfact> 0.27866141E+03</totfact>
</mgrwt>
</event>
<event>
 4    1  0.9032007E-005  0.3537329E+03  0.7818608E-02  0.1061093E+00
          2   -1    0    0  501    0  0.00000000000E+00  0.00000000000E+00  0.12207167918E+04  0.12207167918E+04  0.25500000000E-02 0.  1.
         -2   -1    0    0    0  501 -0.00000000000E+00 -0.00000000000E+00 -0.25625709626E+02  0.25625709753E+02  0.25500000000E-02 0. -1.
    5000001    1    1    2    0    0 -0.83949474146E+02 -0.75350803717E+02  0.77114145468E+03  0.78962864750E+03  0.12700000000E+03 0.  0.
   -5000001    1    1    2    0    0  0.83949474146E+02  0.75350803717E+02  0.42394962748E+03  0.45671385403E+03  0.12700000000E+03 0.  0.
<mgrwt>
<rscale>  0 0.35373286E+03</rscale>
<asrwt>0</asrwt>
<pdfrwt beam="1">  1        2 0.17438815E+00 0.35373286E+03</pdfrwt>
<pdfrwt beam="2">  1       -2 0.36608148E-02 0.35373286E+03</pdfrwt>
<totfact> 0.68936138E+03</totfact>
</mgrwt>
</event>
<event>
 4    1  0.9032007E-005  0.4624631E+03  0.7818608E-02  0.1024069E+00
          2   -1    0    0  501    0  0.00000000000E+00  0.00000000000E+00  0.20044381900E+04  0.20044381900E+04  0.25500000000E-02 0. -1.
         -2   -1    0    0    0  501 -0.00000000000E+00 -0.00000000000E+00 -0.26674823676E+02  0.26674823798E+02  0.25500000000E-02 0.  1.
    5000001    1    1    2    0    0  0.13734638883E+03  0.12008858107E+03  0.70925101822E+03  0.74327068063E+03  0.12700000000E+03 0.  0.
   -5000001    1    1    2    0    0 -0.13734638883E+03 -0.12008858107E+03  0.12685123481E+04  0.12878423332E+04  0.12700000000E+03 0.  0.
<mgrwt>
<rscale>  0 0.46246312E+03</rscale>
<asrwt>0</asrwt>
<pdfrwt beam="1">  1        2 0.28634845E+00 0.46246312E+03</pdfrwt>
<pdfrwt beam="2">  1       -2 0.38106873E-02 0.46246312E+03</pdfrwt>
<totfact> 0.25813757E+03</totfact>
</mgrwt>
</event>
<event>
 4    1  0.9032007E-005  0.3539902E+03  0.7818608E-02  0.1060989E+00
         -2   -1    0    0    0  501 -0.00000000000E+00  0.00000000000E+00  0.20012009985E+03  0.20012009987E+03  0.25500000000E-02 0. -1.
          2   -1    0    0  501    0  0.00000000000E+00 -0.00000000000E+00 -0.15654234377E+03  0.15654234379E+03  0.25500000000E-02 0.  1.
    5000001    1    1    2    0    0 -0.76153019599E+02  0.79401800428E+02 -0.34257843220E+02  0.17148331734E+03  0.12700000000E+03 0.  0.
   -5000001    1    1    2    0    0  0.76153019599E+02 -0.79401800428E+02  0.77835599299E+02  0.18517912632E+03  0.12700000000E+03 0.  0.
<mgrwt>
<rscale>  0 0.35399022E+03</rscale>
<asrwt>0</asrwt>
<pdfrwt beam="1">  1        2 0.22363192E-01 0.35399022E+03</pdfrwt>
<pdfrwt beam="2">  1       -2 0.28588586E-01 0.35399022E+03</pdfrwt>
<totfact> 0.27400823E+03</totfact>
</mgrwt>
</event>
<event>
 4    1  0.9032007E-005  0.5652853E+03  0.7818608E-02  0.9980166E-01
         -2   -1    0    0    0  501 -0.00000000000E+00  0.00000000000E+00  0.25907321262E+03  0.25907321263E+03  0.25500000000E-02 0. -1.
          2   -1    0    0  501    0  0.00000000000E+00 -0.00000000000E+00 -0.30835631517E+03  0.30835631518E+03  0.25500000000E-02 0.  1.
    5000001    1    1    2    0    0  0.21379509979E+03  0.27374327843E+02  0.10738745387E+03  0.27224761480E+03  0.12700000000E+03 0.  0.
   -5000001    1    1    2    0    0 -0.21379509979E+03 -0.27374327843E+02 -0.15667055642E+03  0.29518191301E+03  0.12700000000E+03 0.  0.
<mgrwt>
<rscale>  0 0.56528528E+03</rscale>
<asrwt>0</asrwt>
<pdfrwt beam="1">  1        2 0.44050902E-01 0.56528528E+03</pdfrwt>
<pdfrwt beam="2">  1       -2 0.37010459E-01 0.56528528E+03</pdfrwt>
<totfact> 0.79907670E+02</totfact>
</mgrwt>
</event>
<event>
 4    1  0.9032007E-005  0.4435361E+03  0.7818608E-02  0.1029667E+00
          2   -1    0    0  501    0  0.00000000000E+00  0.00000000000E+00  0.98901967566E+02  0.98901967599E+02  0.25500000000E-02 0.  1.
         -2   -1    0    0    0  501 -0.00000000000E+00 -0.00000000000E+00 -0.49727088820E+03  0.49727088821E+03  0.25500000000E-02 0. -1.
    5000001    1    1    2    0    0  0.59300569632E+02 -0.86585047505E+02 -0.39872660782E+03  0.43142257219E+03  0.12700000000E+03 0.  0.
   -5000001    1    1    2    0    0 -0.59300569632E+02  0.86585047505E+02  0.35768719070E+00  0.16475028361E+03  0.12700000000E+03 0.  0.
<mgrwt>
<rscale>  0 0.44353611E+03</rscale>
<asrwt>0</asrwt>
<pdfrwt beam="1">  1        2 0.14128853E-01 0.44353611E+03</pdfrwt>
<pdfrwt beam="2">  1       -2 0.71038697E-01 0.44353611E+03</pdfrwt>
<totfact> 0.77976309E+02</totfact>
</mgrwt>
</event>
<event>
 4    1  0.9032007E-005  0.1117388E+04  0.7818608E-02  0.9188409E-01
          2   -1    0    0  501    0  0.00000000000E+00  0.00000000000E+00  0.29183291306E+03  0.29183291307E+03  0.25500000000E-02 0.  1.
         -2   -1    0    0    0  501 -0.00000000000E+00 -0.00000000000E+00 -0.10695803505E+04  0.10695803505E+04  0.25500000000E-02 0. -1.
    5000001    1    1    2    0    0  0.50454163830E+03  0.10083204000E+03 -0.60436126664E+03  0.80381024234E+03  0.12700000000E+03 0.  0.
   -5000001    1    1    2    0    0 -0.50454163830E+03 -0.10083204000E+03 -0.17338617079E+03  0.55760302124E+03  0.12700000000E+03 0.  0.
<mgrwt>
<rscale>  0 0.11173876E+04</rscale>
<asrwt>0</asrwt>
<pdfrwt beam="1">  1        2 0.41690417E-01 0.11173876E+04</pdfrwt>
<pdfrwt beam="2">  1       -2 0.15279719E+00 0.11173876E+04</pdfrwt>
<totfact> 0.34790239E+01</totfact>
</mgrwt>
</event>
<event>
 4    1  0.9032007E-005  0.2982714E+03  0.7818608E-02  0.1086108E+00
          2   -1    0    0  501    0  0.00000000000E+00  0.00000000000E+00  0.12463774953E+03  0.12463774956E+03  0.25500000000E-02 0.  1.
         -2   -1    0    0    0  501 -0.00000000000E+00 -0.00000000000E+00 -0.17844884190E+03  0.17844884192E+03  0.25500000000E-02 0. -1.
    5000001    1    1    2    0    0 -0.31600634219E+02 -0.75736548493E+01 -0.99162582058E+02  0.16437207187E+03  0.12700000000E+03 0.  0.
   -5000001    1    1    2    0    0  0.31600634219E+02  0.75736548493E+01  0.45351489690E+02  0.13871451960E+03  0.12700000000E+03 0.  0.
<mgrwt>
<rscale>  0 0.29827143E+03</rscale>
<asrwt>0</asrwt>
<pdfrwt beam="1">  1        2 0.17805393E-01 0.29827143E+03</pdfrwt>
<pdfrwt beam="2">  1       -2 0.25492692E-01 0.29827143E+03</pdfrwt>
<totfact> 0.43552755E+03</totfact>
</mgrwt>
</event>
<event>
 4    1  0.9032007E-005  0.7056678E+03  0.7818608E-02  0.9707588E-01
          2   -1    0    0  501    0  0.00000000000E+00  0.00000000000E+00  0.15382305271E+03  0.15382305273E+03  0.25500000000E-02 0.  1.
         -2   -1    0    0    0  501 -0.00000000000E+00 -0.00000000000E+00 -0.80931806553E+03  0.80931806553E+03  0.25500000000E-02 0. -1.
    5000001    1    1    2    0    0  0.15393249662E+03 -0.21977728394E+03 -0.58802368630E+03  0.65870943799E+03  0.12700000000E+03 0.  0.
   -5000001    1    1    2    0    0 -0.15393249662E+03  0.21977728394E+03 -0.67471326519E+02  0.30443168027E+03  0.12700000000E+03 0.  0.
<mgrwt>
<rscale>  0 0.70566784E+03</rscale>
<asrwt>0</asrwt>
<pdfrwt beam="1">  1        2 0.21974722E-01 0.70566784E+03</pdfrwt>
<pdfrwt beam="2">  1       -2 0.11561686E+00 0.70566784E+03</pdfrwt>
<totfact> 0.14966233E+02</totfact>
</mgrwt>
</event>
<event>
 4    1  0.9032007E-005  0.2911900E+03  0.7818608E-02  0.1089729E+00
          2   -1    0    0  501    0  0.00000000000E+00  0.00000000000E+00  0.37494855434E+02  0.37494855521E+02  0.25500000000E-02 0.  1.
         -2   -1    0    0    0  501 -0.00000000000E+00 -0.00000000000E+00 -0.56535509914E+03  0.56535509914E+03  0.25500000000E-02 0. -1.
    5000001    1    1    2    0    0  0.30869422461E+02 -0.59158989728E+02 -0.21253833279E+03  0.25642591565E+03  0.12700000000E+03 0.  0.
   -5000001    1    1    2    0    0 -0.30869422461E+02  0.59158989728E+02 -0.31532191091E+03  0.34642403902E+03  0.12700000000E+03 0.  0.
<mgrwt>
<rscale>  0 0.29119003E+03</rscale>
<asrwt>0</asrwt>
<pdfrwt beam="1">  1        2 0.53564083E-02 0.29119003E+03</pdfrwt>
<pdfrwt beam="2">  1       -2 0.80765009E-01 0.29119003E+03</pdfrwt>
<totfact> 0.20024086E+03</totfact>
</mgrwt>
</event>
<event>
 4    1  0.9032007E-005  0.3603168E+03  0.7818608E-02  0.1058458E+00
          2   -1    0    0  501    0  0.00000000000E+00  0.00000000000E+00  0.11261965047E+03  0.11261965050E+03  0.25500000000E-02 0.  1.
         -2   -1    0    0    0  501 -0.00000000000E+00 -0.00000000000E+00 -0.28820057344E+03  0.28820057345E+03  0.25500000000E-02 0. -1.
    5000001    1    1    2    0    0 -0.32250797594E+02  0.11696158384E+03 -0.13239690381E+03  0.21995014476E+03  0.12700000000E+03 0.  0.
   -5000001    1    1    2    0    0  0.32250797594E+02 -0.11696158384E+03 -0.43184019153E+02  0.18087007920E+03  0.12700000000E+03 0.  0.
<mgrwt>
<rscale>  0 0.36031679E+03</rscale>
<asrwt>0</asrwt>
<pdfrwt beam="1">  1        2 0.16088522E-01 0.36031679E+03</pdfrwt>
<pdfrwt beam="2">  1       -2 0.41171510E-01 0.36031679E+03</pdfrwt>
<totfact> 0.20319136E+03</totfact>
</mgrwt>
</event>
<event>
 4    1  0.9032007E-005  0.2909222E+03  0.7818608E-02  0.1089869E+00
         -2   -1    0    0    0  501 -0.00000000000E+00  0.00000000000E+00  0.39047926100E+03  0.39047926101E+03  0.25500000000E-02 0. -1.
          2   -1    0    0  501    0  0.00000000000E+00 -0.00000000000E+00 -0.54187064914E+02  0.54187064974E+02  0.25500000000E-02 0.  1.
    5000001    1    1    2    0    0 -0.39030490862E+02  0.39792489909E+02  0.23517448797E+03  0.27302538575E+03  0.12700000000E+03 0.  0.
   -5000001    1    1    2    0    0  0.39030490862E+02 -0.39792489909E+02  0.10111770811E+03  0.17164094023E+03  0.12700000000E+03 0.  0.
<mgrwt>
<rscale>  0 0.29092216E+03</rscale>
<asrwt>0</asrwt>
<pdfrwt beam="1">  1        2 0.77410096E-02 0.29092216E+03</pdfrwt>
<pdfrwt beam="2">  1       -2 0.55782749E-01 0.29092216E+03</pdfrwt>
<totfact> 0.27258496E+03</totfact>
</mgrwt>
</event>
<event>
 4    1  0.9032007E-005  0.4279181E+03  0.7818608E-02  0.1034520E+00
         -2   -1    0    0    0  501 -0.00000000000E+00  0.00000000000E+00  0.84130068356E+02  0.84130068395E+02  0.25500000000E-02 0. -1.
          2   -1    0    0  501    0  0.00000000000E+00 -0.00000000000E+00 -0.54413929704E+03  0.54413929705E+03  0.25500000000E-02 0.  1.
    5000001    1    1    2    0    0 -0.87366832086E+02 -0.12591271390E+03 -0.11474856288E+03  0.22974596308E+03  0.12700000000E+03 0.  0.
   -5000001    1    1    2    0    0  0.87366832086E+02  0.12591271390E+03 -0.34526066581E+03  0.39852340236E+03  0.12700000000E+03 0.  0.
<mgrwt>
<rscale>  0 0.42791811E+03</rscale>
<asrwt>0</asrwt>
<pdfrwt beam="1">  1        2 0.77734183E-01 0.42791811E+03</pdfrwt>
<pdfrwt beam="2">  1       -2 0.12018582E-01 0.42791811E+03</pdfrwt>
<totfact> 0.30560895E+03</totfact>
</mgrwt>
</event>
<event>
 4    1  0.9032007E-005  0.8631622E+03  0.7818608E-02  0.9472839E-01
         -2   -1    0    0    0  501 -0.00000000000E+00  0.00000000000E+00  0.14547157807E+03  0.14547157809E+03  0.25500000000E-02 0. -1.
          2   -1    0    0  501    0  0.00000000000E+00 -0.00000000000E+00 -0.12804028925E+04  0.12804028925E+04  0.25500000000E-02 0.  1.
    5000001    1    1    2    0    0 -0.99425106690E+02 -0.34302886994E+03 -0.90833425554E+03  0.98425315709E+03  0.12700000000E+03 0.  0.
   -5000001    1    1    2    0    0  0.99425106690E+02  0.34302886994E+03 -0.22659705893E+03  0.44162131354E+03  0.12700000000E+03 0.  0.
<mgrwt>
<rscale>  0 0.86316216E+03</rscale>
<asrwt>0</asrwt>
<pdfrwt beam="1">  1        2 0.18291469E+00 0.86316216E+03</pdfrwt>
<pdfrwt beam="2">  1       -2 0.20781655E-01 0.86316216E+03</pdfrwt>
<totfact> 0.38475732E+02</totfact>
</mgrwt>
</event>
<event>
 4    1  0.9032007E-005  0.3426493E+03  0.7818608E-02  0.1065673E+00
          2   -1    0    0  501    0  0.00000000000E+00  0.00000000000E+00  0.66641998172E+02  0.66641998220E+02  0.25500000000E-02 0.  1.
         -2   -1    0    0    0  501 -0.00000000000E+00 -0.00000000000E+00 -0.44044503596E+03  0.44044503597E+03  0.25500000000E-02 0. -1.
    5000001    1    1    2    0    0 -0.60031604337E+02 -0.97527583748E+02 -0.20226073654E+03  0.26486568041E+03  0.12700000000E+03 0.  0.
   -5000001    1    1    2    0    0  0.60031604337E+02  0.97527583748E+02 -0.17154230125E+03  0.24222135378E+03  0.12700000000E+03 0.  0.
<mgrwt>
<rscale>  0 0.34264931E+03</rscale>
<asrwt>0</asrwt>
<pdfrwt beam="1">  1        2 0.95202857E-02 0.34264931E+03</pdfrwt>
<pdfrwt beam="2">  1       -2 0.62920718E-01 0.34264931E+03</pdfrwt>
<totfact> 0.16404704E+03</totfact>
</mgrwt>
</event>
<event>
 4    1  0.9032007E-005  0.3355719E+03  0.7818608E-02  0.1068698E+00
          2   -1    0    0  501    0  0.00000000000E+00  0.00000000000E+00  0.15207331021E+03  0.15207331024E+03  0.25500000000E-02 0.  1.
         -2   -1    0    0    0  501 -0.00000000000E+00 -0.00000000000E+00 -0.18512211687E+03  0.18512211689E+03  0.25500000000E-02 0. -1.
    5000001    1    1    2    0    0 -0.10893096830E+03 -0.11554922253E+02 -0.11636609735E+02  0.16811865681E+03  0.12700000000E+03 0.  0.
   -5000001    1    1    2    0    0  0.10893096830E+03  0.11554922253E+02 -0.21412196924E+02  0.16907677031E+03  0.12700000000E+03 0.  0.
<mgrwt>
<rscale>  0 0.33557195E+03</rscale>
<asrwt>0</asrwt>
<pdfrwt beam="1">  1        2 0.21724758E-01 0.33557195E+03</pdfrwt>
<pdfrwt beam="2">  1       -2 0.26446017E-01 0.33557195E+03</pdfrwt>
<totfact> 0.32546027E+03</totfact>
</mgrwt>
</event>
<event>
 4    1  0.9032007E-005  0.4004580E+03  0.7818608E-02  0.1043621E+00
          2   -1    0    0  501    0  0.00000000000E+00  0.00000000000E+00  0.15103355172E+03  0.15103355174E+03  0.25500000000E-02 0.  1.
         -2   -1    0    0    0  501 -0.00000000000E+00 -0.00000000000E+00 -0.26544866266E+03  0.26544866267E+03  0.25500000000E-02 0. -1.
    5000001    1    1    2    0    0 -0.90292510721E+02 -0.11540328711E+03 -0.52901077655E+01  0.19397845604E+03  0.12700000000E+03 0.  0.
   -5000001    1    1    2    0    0  0.90292510721E+02  0.11540328711E+03 -0.10912500317E+03  0.22250375836E+03  0.12700000000E+03 0.  0.
<mgrwt>
<rscale>  0 0.40045801E+03</rscale>
<asrwt>0</asrwt>
<pdfrwt beam="1">  1        2 0.21576222E-01 0.40045801E+03</pdfrwt>
<pdfrwt beam="2">  1       -2 0.37921237E-01 0.40045801E+03</pdfrwt>
<totfact> 0.16922757E+03</totfact>
</mgrwt>
</event>
<event>
 4    1  0.9032007E-005  0.5226760E+03  0.7818608E-02  0.1008024E+00
          2   -1    0    0  501    0  0.00000000000E+00  0.00000000000E+00  0.85533508053E+03  0.85533508053E+03  0.25500000000E-02 0.  1.
         -2   -1    0    0    0  501 -0.00000000000E+00 -0.00000000000E+00 -0.79848885621E+02  0.79848885662E+02  0.25500000000E-02 0. -1.
    5000001    1    1    2    0    0  0.12046887809E+03 -0.13023999213E+03  0.64512609448E+03  0.68102267504E+03  0.12700000000E+03 0.  0.
   -5000001    1    1    2    0    0 -0.12046887809E+03  0.13023999213E+03  0.13036010043E+03  0.25416129116E+03  0.12700000000E+03 0.  0.
<mgrwt>
<rscale>  0 0.52267601E+03</rscale>
<asrwt>0</asrwt>
<pdfrwt beam="1">  1        2 0.12219072E+00 0.52267601E+03</pdfrwt>
<pdfrwt beam="2">  1       -2 0.11406984E-01 0.52267601E+03</pdfrwt>
<totfact> 0.19276825E+03</totfact>
</mgrwt>
</event>
<event>
 4    1  0.9032007E-005  0.2873622E+03  0.7818608E-02  0.1091734E+00
          2   -1    0    0  501    0  0.00000000000E+00  0.00000000000E+00  0.32049284143E+03  0.32049284144E+03  0.25500000000E-02 0.  1.
         -2   -1    0    0    0  501 -0.00000000000E+00 -0.00000000000E+00 -0.64414084251E+02  0.64414084302E+02  0.25500000000E-02 0. -1.
    5000001    1    1    2    0    0 -0.67144983809E+02 -0.24480207308E+01  0.12924580871E+03  0.19325610139E+03  0.12700000000E+03 0.  0.
   -5000001    1    1    2    0    0  0.67144983809E+02  0.24480207308E+01  0.12683294847E+03  0.19165082435E+03  0.12700000000E+03 0.  0.
<mgrwt>
<rscale>  0 0.28736216E+03</rscale>
<asrwt>0</asrwt>
<pdfrwt beam="1">  1        2 0.45784692E-01 0.28736216E+03</pdfrwt>
<pdfrwt beam="2">  1       -2 0.92020120E-02 0.28736216E+03</pdfrwt>
<totfact> 0.83127748E+03</totfact>
</mgrwt>
</event>
<event>
 4    1  0.9032007E-005  0.3124729E+03  0.7818608E-02  0.1079167E+00
          2   -1    0    0  501    0  0.00000000000E+00  0.00000000000E+00  0.17169124444E+04  0.17169124444E+04  0.25500000000E-02 0.  1.
         -2   -1    0    0    0  501 -0.00000000000E+00 -0.00000000000E+00 -0.14217278762E+02  0.14217278990E+02  0.25500000000E-02 0. -1.
    5000001    1    1    2    0    0  0.35275479451E+02 -0.82259306914E+02  0.94235873502E+03  0.95508111618E+03  0.12700000000E+03 0.  0.
   -5000001    1    1    2    0    0 -0.35275479451E+02  0.82259306914E+02  0.76033643065E+03  0.77604860724E+03  0.12700000000E+03 0.  0.
<mgrwt>
<rscale>  0 0.31247287E+03</rscale>
<asrwt>0</asrwt>
<pdfrwt beam="1">  1        2 0.24527304E+00 0.31247287E+03</pdfrwt>
<pdfrwt beam="2">  1       -2 0.20310412E-02 0.31247287E+03</pdfrwt>
<totfact> 0.92089676E+03</totfact>
</mgrwt>
</event>
<event>
 4    1  0.9032007E-005  0.3965376E+03  0.7818608E-02  0.1044985E+00
          2   -1    0    0  501    0  0.00000000000E+00  0.00000000000E+00  0.29702295047E+04  0.29702295047E+04  0.25500000000E-02 0.  1.
         -2   -1    0    0    0  501 -0.00000000000E+00 -0.00000000000E+00 -0.13234842258E+02  0.13234842504E+02  0.25500000000E-02 0. -1.
    5000001    1    1    2    0    0  0.12986910126E+03 -0.29225223173E+02  0.92247870317E+03  0.94064661533E+03  0.12700000000E+03 0.  0.
   -5000001    1    1    2    0    0 -0.12986910126E+03  0.29225223173E+02  0.20345159593E+04  0.20428177319E+04  0.12700000000E+03 0.  0.
<mgrwt>
<rscale>  0 0.39653761E+03</rscale>
<asrwt>0</asrwt>
<pdfrwt beam="1">  1        2 0.42431905E+00 0.39653761E+03</pdfrwt>
<pdfrwt beam="2">  1       -2 0.18906893E-02 0.39653761E+03</pdfrwt>
<totfact> 0.23911169E+03</totfact>
</mgrwt>
</event>
<event>
 4    1  0.9032007E-005  0.3714754E+03  0.7818608E-02  0.1054130E+00
          2   -1    0    0  501    0  0.00000000000E+00  0.00000000000E+00  0.16756793971E+04  0.16756793971E+04  0.25500000000E-02 0.  1.
         -2   -1    0    0    0  501 -0.00000000000E+00 -0.00000000000E+00 -0.20587766822E+02  0.20587766979E+02  0.25500000000E-02 0. -1.
    5000001    1    1    2    0    0 -0.42082270868E+02 -0.12591865071E+03  0.70307147564E+03  0.72668075796E+03  0.12700000000E+03 0.  0.
   -5000001    1    1    2    0    0  0.42082270868E+02  0.12591865071E+03  0.95202015467E+03  0.96958640616E+03  0.12700000000E+03 0.  0.
<mgrwt>
<rscale>  0 0.37147542E+03</rscale>
<asrwt>0</asrwt>
<pdfrwt beam="1">  1        2 0.23938280E+00 0.37147542E+03</pdfrwt>
<pdfrwt beam="2">  1       -2 0.29411091E-02 0.37147542E+03</pdfrwt>
<totfact> 0.55733658E+03</totfact>
</mgrwt>
</event>
<event>
 4    1  0.9032007E-005  0.4562868E+03  0.7818608E-02  0.1025864E+00
         -2   -1    0    0    0  501 -0.00000000000E+00  0.00000000000E+00  0.80742360456E+02  0.80742360496E+02  0.25500000000E-02 0. -1.
          2   -1    0    0  501    0  0.00000000000E+00 -0.00000000000E+00 -0.64463574680E+03  0.64463574680E+03  0.25500000000E-02 0.  1.
    5000001    1    1    2    0    0 -0.76367087147E+02 -0.15794369459E+03 -0.39594645362E+03  0.45131002293E+03  0.12700000000E+03 0.  0.
   -5000001    1    1    2    0    0  0.76367087147E+02  0.15794369459E+03 -0.16794693272E+03  0.27406808437E+03  0.12700000000E+03 0.  0.
<mgrwt>
<rscale>  0 0.45628680E+03</rscale>
<asrwt>0</asrwt>
<pdfrwt beam="1">  1        2 0.92090819E-01 0.45628680E+03</pdfrwt>
<pdfrwt beam="2">  1       -2 0.11534623E-01 0.45628680E+03</pdfrwt>
<totfact> 0.26861019E+03</totfact>
</mgrwt>
</event>
<event>
 4    1  0.9032007E-005  0.3296655E+03  0.7818608E-02  0.1071285E+00
         -2   -1    0    0    0  501 -0.00000000000E+00  0.00000000000E+00  0.17042037185E+02  0.17042037376E+02  0.25500000000E-02 0. -1.
          2   -1    0    0  501    0  0.00000000000E+00 -0.00000000000E+00 -0.15942837413E+04  0.15942837413E+04  0.25500000000E-02 0.  1.
    5000001    1    1    2    0    0 -0.83330963327E+02  0.63011024262E+02 -0.84357377167E+03  0.85945340006E+03  0.12700000000E+03 0.  0.
   -5000001    1    1    2    0    0  0.83330963327E+02 -0.63011024262E+02 -0.73366793245E+03  0.75187237862E+03  0.12700000000E+03 0.  0.
<mgrwt>
<rscale>  0 0.32966555E+03</rscale>
<asrwt>0</asrwt>
<pdfrwt beam="1">  1        2 0.22775473E+00 0.32966555E+03</pdfrwt>
<pdfrwt beam="2">  1       -2 0.24345778E-02 0.32966555E+03</pdfrwt>
<totfact> 0.81100383E+03</totfact>
</mgrwt>
</event>
<event>
 4    1  0.9032007E-005  0.4115354E+03  0.7818608E-02  0.1039857E+00
         -2   -1    0    0    0  501 -0.00000000000E+00  0.00000000000E+00  0.25213639938E+03  0.25213639939E+03  0.25500000000E-02 0. -1.
          2   -1    0    0  501    0  0.00000000000E+00 -0.00000000000E+00 -0.16792632608E+03  0.16792632610E+03  0.25500000000E-02 0.  1.
    5000001    1    1    2    0    0  0.13947579724E+03  0.79283183978E+02  0.19928882125E+02  0.20558570384E+03  0.12700000000E+03 0.  0.
   -5000001    1    1    2    0    0 -0.13947579724E+03 -0.79283183978E+02  0.64281191174E+02  0.21447702165E+03  0.12700000000E+03 0.  0.
<mgrwt>
<rscale>  0 0.41153537E+03</rscale>
<asrwt>0</asrwt>
<pdfrwt beam="1">  1        2 0.23989475E-01 0.41153537E+03</pdfrwt>
<pdfrwt beam="2">  1       -2 0.36019485E-01 0.41153537E+03</pdfrwt>
<totfact> 0.16536615E+03</totfact>
</mgrwt>
</event>
<event>
 4    1  0.9032007E-005  0.5287213E+03  0.7818608E-02  0.1006543E+00
          2   -1    0    0  501    0  0.00000000000E+00  0.00000000000E+00  0.11873742795E+03  0.11873742798E+03  0.25500000000E-02 0.  1.
         -2   -1    0    0    0  501 -0.00000000000E+00 -0.00000000000E+00 -0.58858073405E+03  0.58858073405E+03  0.25500000000E-02 0. -1.
    5000001    1    1    2    0    0 -0.17648179606E+03  0.10204990353E+03 -0.87172713183E+02  0.25551534019E+03  0.12700000000E+03 0.  0.
   -5000001    1    1    2    0    0  0.17648179606E+03 -0.10204990353E+03 -0.38267059291E+03  0.45180282185E+03  0.12700000000E+03 0.  0.
<mgrwt>
<rscale>  0 0.52872133E+03</rscale>
<asrwt>0</asrwt>
<pdfrwt beam="1">  1        2 0.16962490E-01 0.52872133E+03</pdfrwt>
<pdfrwt beam="2">  1       -2 0.84082961E-01 0.52872133E+03</pdfrwt>
<totfact> 0.43099469E+02</totfact>
</mgrwt>
</event>
<event>
 4    1  0.9032007E-005  0.7081142E+03  0.7818608E-02  0.9703456E-01
         -2   -1    0    0    0  501 -0.00000000000E+00  0.00000000000E+00  0.76797115643E+02  0.76797115685E+02  0.25500000000E-02 0. -1.
          2   -1    0    0  501    0  0.00000000000E+00 -0.00000000000E+00 -0.16323066264E+04  0.16323066264E+04  0.25500000000E-02 0.  1.
    5000001    1    1    2    0    0 -0.32820969754E+03  0.19836545789E+02 -0.85825277276E+03  0.92781566923E+03  0.12700000000E+03 0.  0.
   -5000001    1    1    2    0    0  0.32820969754E+03 -0.19836545789E+02 -0.69725673798E+03  0.78128807284E+03  0.12700000000E+03 0.  0.
<mgrwt>
<rscale>  0 0.70811423E+03</rscale>
<asrwt>0</asrwt>
<pdfrwt beam="1">  1        2 0.23318664E+00 0.70811423E+03</pdfrwt>
<pdfrwt beam="2">  1       -2 0.10971018E-01 0.70811423E+03</pdfrwt>
<totfact> 0.74442639E+02</totfact>
</mgrwt>
</event>
<event>
 4    1  0.9032007E-005  0.3570555E+03  0.7818608E-02  0.1059756E+00
          2   -1    0    0  501    0  0.00000000000E+00  0.00000000000E+00  0.28788029395E+03  0.28788029396E+03  0.25500000000E-02 0.  1.
         -2   -1    0    0    0  501 -0.00000000000E+00 -0.00000000000E+00 -0.11071326196E+03  0.11071326198E+03  0.25500000000E-02 0. -1.
    5000001    1    1    2    0    0 -0.35666621663E+02 -0.11471417240E+03  0.12901452544E+03  0.21726757012E+03  0.12700000000E+03 0.  0.
   -5000001    1    1    2    0    0  0.35666621663E+02  0.11471417240E+03  0.48152506552E+02  0.18132598583E+03  0.12700000000E+03 0.  0.
<mgrwt>
<rscale>  0 0.35705555E+03</rscale>
<asrwt>0</asrwt>
<pdfrwt beam="1">  1        2 0.41125756E-01 0.35705555E+03</pdfrwt>
<pdfrwt beam="2">  1       -2 0.15816180E-01 0.35705555E+03</pdfrwt>
<totfact> 0.39010282E+03</totfact>
</mgrwt>
</event>
<event>
 4    1  0.9032007E-005  0.7341426E+03  0.7818608E-02  0.9660562E-01
         -2   -1    0    0    0  501 -0.00000000000E+00  0.00000000000E+00  0.14419677481E+03  0.14419677483E+03  0.25500000000E-02 0. -1.
          2   -1    0    0  501    0  0.00000000000E+00 -0.00000000000E+00 -0.93442695110E+03  0.93442695110E+03  0.25500000000E-02 0.  1.
    5000001    1    1    2    0    0 -0.66966634352E+02  0.26691243878E+03 -0.69937527543E+03  0.76222146124E+03  0.12700000000E+03 0.  0.
   -5000001    1    1    2    0    0  0.66966634352E+02 -0.26691243878E+03 -0.90854900859E+02  0.31640226469E+03  0.12700000000E+03 0.  0.
<mgrwt>
<rscale>  0 0.73414264E+03</rscale>
<asrwt>0</asrwt>
<pdfrwt beam="1">  1        2 0.13348956E+00 0.73414264E+03</pdfrwt>
<pdfrwt beam="2">  1       -2 0.20599540E-01 0.73414264E+03</pdfrwt>
<totfact> 0.62794597E+02</totfact>
</mgrwt>
</event>
<event>
 4    1  0.9032007E-005  0.7031672E+03  0.7818608E-02  0.9711831E-01
         -2   -1    0    0    0  501 -0.00000000000E+00  0.00000000000E+00  0.19838609347E+03  0.19838609349E+03  0.25500000000E-02 0. -1.
          2   -1    0    0  501    0  0.00000000000E+00 -0.00000000000E+00 -0.62308305968E+03  0.62308305968E+03  0.25500000000E-02 0.  1.
    5000001    1    1    2    0    0  0.21814375016E+03  0.18830937612E+03 -0.39496410988E+03  0.50514628076E+03  0.12700000000E+03 0.  0.
   -5000001    1    1    2    0    0 -0.21814375016E+03 -0.18830937612E+03 -0.29732856322E+02  0.31632287241E+03  0.12700000000E+03 0.  0.
<mgrwt>
<rscale>  0 0.70316716E+03</rscale>
<asrwt>0</asrwt>
<pdfrwt beam="1">  1        2 0.89011865E-01 0.70316716E+03</pdfrwt>
<pdfrwt beam="2">  1       -2 0.28340871E-01 0.70316716E+03</pdfrwt>
<totfact> 0.59337106E+02</totfact>
</mgrwt>
</event>
<event>
 4    1  0.9032007E-005  0.2999323E+03  0.7818608E-02  0.1085274E+00
          2   -1    0    0  501    0  0.00000000000E+00  0.00000000000E+00  0.59082630935E+03  0.59082630936E+03  0.25500000000E-02 0.  1.
         -2   -1    0    0    0  501 -0.00000000000E+00 -0.00000000000E+00 -0.38065064389E+02  0.38065064474E+02  0.25500000000E-02 0. -1.
    5000001    1    1    2    0    0 -0.53460131645E+01  0.77975772065E+02  0.30966862539E+03  0.34370402738E+03  0.12700000000E+03 0.  0.
   -5000001    1    1    2    0    0  0.53460131645E+01 -0.77975772065E+02  0.24309261958E+03  0.28518734646E+03  0.12700000000E+03 0.  0.
<mgrwt>
<rscale>  0 0.29993227E+03</rscale>
<asrwt>0</asrwt>
<pdfrwt beam="1">  1        2 0.84403748E-01 0.29993227E+03</pdfrwt>
<pdfrwt beam="2">  1       -2 0.54378670E-02 0.29993227E+03</pdfrwt>
<totfact> 0.96321558E+03</totfact>
</mgrwt>
</event>
<event>
 4    1  0.9032007E-005  0.3679140E+03  0.7818608E-02  0.1055493E+00
         -2   -1    0    0    0  501 -0.00000000000E+00  0.00000000000E+00  0.60810020646E+02  0.60810020699E+02  0.25500000000E-02 0. -1.
          2   -1    0    0  501    0  0.00000000000E+00 -0.00000000000E+00 -0.55649019679E+03  0.55649019680E+03  0.25500000000E-02 0.  1.
    5000001    1    1    2    0    0 -0.10196874923E+03  0.51101747938E+02 -0.36289338658E+03  0.40103568979E+03  0.12700000000E+03 0.  0.
   -5000001    1    1    2    0    0  0.10196874923E+03 -0.51101747938E+02 -0.13278678956E+03  0.21626452771E+03  0.12700000000E+03 0.  0.
<mgrwt>
<rscale>  0 0.36791401E+03</rscale>
<asrwt>0</asrwt>
<pdfrwt beam="1">  1        2 0.79498597E-01 0.36791401E+03</pdfrwt>
<pdfrwt beam="2">  1       -2 0.86871461E-02 0.36791401E+03</pdfrwt>
<totfact> 0.50065937E+03</totfact>
</mgrwt>
</event>
<event>
 4    1  0.9032007E-005  0.3151827E+03  0.7818608E-02  0.1077888E+00
         -2   -1    0    0    0  501 -0.00000000000E+00  0.00000000000E+00  0.41673345692E+02  0.41673345770E+02  0.25500000000E-02 0. -1.
          2   -1    0    0  501    0  0.00000000000E+00 -0.00000000000E+00 -0.59594513192E+03  0.59594513192E+03  0.25500000000E-02 0.  1.
    5000001    1    1    2    0    0  0.92338944334E+02  0.67078354818E+01 -0.30060212574E+03  0.33920806845E+03  0.12700000000E+03 0.  0.
   -5000001    1    1    2    0    0 -0.92338944334E+02 -0.67078354818E+01 -0.25366966048E+03  0.29841040925E+03  0.12700000000E+03 0.  0.
<mgrwt>
<rscale>  0 0.31518266E+03</rscale>
<asrwt>0</asrwt>
<pdfrwt beam="1">  1        2 0.85135014E-01 0.31518266E+03</pdfrwt>
<pdfrwt beam="2">  1       -2 0.59533355E-02 0.31518266E+03</pdfrwt>
<totfact> 0.83143726E+03</totfact>
</mgrwt>
</event>
<event>
 4    1  0.9032007E-005  0.3491796E+03  0.7818608E-02  0.1062952E+00
          2   -1    0    0  501    0  0.00000000000E+00  0.00000000000E+00  0.54430531360E+03  0.54430531361E+03  0.25500000000E-02 0.  1.
         -2   -1    0    0    0  501 -0.00000000000E+00 -0.00000000000E+00 -0.56000919554E+02  0.56000919612E+02  0.25500000000E-02 0. -1.
    5000001    1    1    2    0    0 -0.38291270683E+02  0.92793053641E+02  0.13173467790E+03  0.20870984063E+03  0.12700000000E+03 0.  0.
   -5000001    1    1    2    0    0  0.38291270683E+02 -0.92793053641E+02  0.35656971615E+03  0.39159639259E+03  0.12700000000E+03 0.  0.
<mgrwt>
<rscale>  0 0.34917960E+03</rscale>
<asrwt>0</asrwt>
<pdfrwt beam="1">  1        2 0.77757894E-01 0.34917960E+03</pdfrwt>
<pdfrwt beam="2">  1       -2 0.80001322E-02 0.34917960E+03</pdfrwt>
<totfact> 0.58394147E+03</totfact>
</mgrwt>
</event>
<event>
 4    1  0.9032007E-005  0.3411079E+03  0.7818608E-02  0.1066325E+00
          2   -1    0    0  501    0  0.00000000000E+00  0.00000000000E+00  0.38929678405E+03  0.38929678406E+03  0.25500000000E-02 0.  1.
         -2   -1    0    0    0  501 -0.00000000000E+00 -0.00000000000E+00 -0.74721017552E+02  0.74721017595E+02  0.25500000000E-02 0. -1.
    5000001    1    1    2    0    0 -0.69447233859E+02  0.85833554315E+02  0.11955669726E+03  0.20642945816E+03  0.12700000000E+03 0.  0.
   -5000001    1    1    2    0    0  0.69447233859E+02 -0.85833554315E+02  0.19501906924E+03  0.25758834349E+03  0.12700000000E+03 0.  0.
<mgrwt>
<rscale>  0 0.34110791E+03</rscale>
<asrwt>0</asrwt>
<pdfrwt beam="1">  1        2 0.55613826E-01 0.34110791E+03</pdfrwt>
<pdfrwt beam="2">  1       -2 0.10674431E-01 0.34110791E+03</pdfrwt>
<totfact> 0.53465643E+03</totfact>
</mgrwt>
</event>
<event>
 4    1  0.9032007E-005  0.3418005E+03  0.7818608E-02  0.1066032E+00
          2   -1    0    0  501    0  0.00000000000E+00  0.00000000000E+00  0.72343604893E+02  0.72343604937E+02  0.25500000000E-02 0.  1.
         -2   -1    0    0    0  501 -0.00000000000E+00 -0.00000000000E+00 -0.40372467160E+03  0.40372467161E+03  0.25500000000E-02 0. -1.
    5000001    1    1    2    0    0 -0.48512009541E+01  0.11258844047E+03 -0.13860350605E+03  0.21917943099E+03  0.12700000000E+03 0.  0.
   -5000001    1    1    2    0    0  0.48512009541E+01 -0.11258844047E+03 -0.19277756066E+03  0.25688884556E+03  0.12700000000E+03 0.  0.
<mgrwt>
<rscale>  0 0.34180052E+03</rscale>
<asrwt>0</asrwt>
<pdfrwt beam="1">  1        2 0.10334801E-01 0.34180052E+03</pdfrwt>
<pdfrwt beam="2">  1       -2 0.57674952E-01 0.34180052E+03</pdfrwt>
<totfact> 0.17743457E+03</totfact>
</mgrwt>
</event>
<event>
 4    1  0.9032007E-005  0.3711448E+03  0.7818608E-02  0.1054256E+00
         -2   -1    0    0    0  501 -0.00000000000E+00  0.00000000000E+00  0.67113557879E+03  0.67113557880E+03  0.25500000000E-02 0. -1.
          2   -1    0    0  501    0  0.00000000000E+00 -0.00000000000E+00 -0.51311717143E+02  0.51311717207E+02  0.25500000000E-02 0.  1.
    5000001    1    1    2    0    0 -0.13106388087E+03 -0.18709989062E+01  0.24456862195E+03  0.30516233770E+03  0.12700000000E+03 0.  0.
   -5000001    1    1    2    0    0  0.13106388087E+03  0.18709989062E+01  0.37525523970E+03  0.41728495831E+03  0.12700000000E+03 0.  0.
<mgrwt>
<rscale>  0 0.37114482E+03</rscale>
<asrwt>0</asrwt>
<pdfrwt beam="1">  1        2 0.73302458E-02 0.37114482E+03</pdfrwt>
<pdfrwt beam="2">  1       -2 0.95876504E-01 0.37114482E+03</pdfrwt>
<totfact> 0.90623779E+02</totfact>
</mgrwt>
</event>
<event>
 4    1  0.9032007E-005  0.5717064E+03  0.7818608E-02  0.9965910E-01
         -2   -1    0    0    0  501 -0.00000000000E+00  0.00000000000E+00  0.29608740951E+03  0.29608740952E+03  0.25500000000E-02 0. -1.
          2   -1    0    0  501    0  0.00000000000E+00 -0.00000000000E+00 -0.27597269573E+03  0.27597269574E+03  0.25500000000E-02 0.  1.
    5000001    1    1    2    0    0  0.24176870440E+03  0.47244202087E+02  0.80092946713E+02  0.28849263625E+03  0.12700000000E+03 0.  0.
   -5000001    1    1    2    0    0 -0.24176870440E+03 -0.47244202087E+02 -0.59978232928E+02  0.28356746901E+03  0.12700000000E+03 0.  0.
<mgrwt>
<rscale>  0 0.57170636E+03</rscale>
<asrwt>0</asrwt>
<pdfrwt beam="1">  1        2 0.39424670E-01 0.57170636E+03</pdfrwt>
<pdfrwt beam="2">  1       -2 0.42298202E-01 0.57170636E+03</pdfrwt>
<totfact> 0.69734186E+02</totfact>
</mgrwt>
</event>
<event>
 4    1  0.9032007E-005  0.3820472E+03  0.7818608E-02  0.1050180E+00
          2   -1    0    0  501    0  0.00000000000E+00  0.00000000000E+00  0.10307200869E+04  0.10307200869E+04  0.25500000000E-02 0.  1.
         -2   -1    0    0    0  501 -0.00000000000E+00 -0.00000000000E+00 -0.35402450846E+02  0.35402450938E+02  0.25500000000E-02 0. -1.
    5000001    1    1    2    0    0 -0.27611796217E+02  0.13824478040E+03  0.55924008644E+03  0.59055271135E+03  0.12700000000E+03 0.  0.
   -5000001    1    1    2    0    0  0.27611796217E+02 -0.13824478040E+03  0.43607754966E+03  0.47556982654E+03  0.12700000000E+03 0.  0.
<mgrwt>
<rscale>  0 0.38204721E+03</rscale>
<asrwt>0</asrwt>
<pdfrwt beam="1">  1        2 0.14724573E+00 0.38204721E+03</pdfrwt>
<pdfrwt beam="2">  1       -2 0.50574928E-02 0.38204721E+03</pdfrwt>
<totfact> 0.54053207E+03</totfact>
</mgrwt>
</event>
<event>
 4    1  0.9032007E-005  0.3536054E+03  0.7818608E-02  0.1061145E+00
          2   -1    0    0  501    0  0.00000000000E+00  0.00000000000E+00  0.16336858324E+04  0.16336858324E+04  0.25500000000E-02 0.  1.
         -2   -1    0    0    0  501 -0.00000000000E+00 -0.00000000000E+00 -0.19134151586E+02  0.19134151756E+02  0.25500000000E-02 0. -1.
    5000001    1    1    2    0    0 -0.52944728664E+02 -0.11028243195E+03  0.74726505539E+03  0.76778865718E+03  0.12700000000E+03 0.  0.
   -5000001    1    1    2    0    0  0.52944728664E+02  0.11028243195E+03  0.86728662547E+03  0.88503132702E+03  0.12700000000E+03 0.  0.
<mgrwt>
<rscale>  0 0.35360539E+03</rscale>
<asrwt>0</asrwt>
<pdfrwt beam="1">  1        2 0.23338376E+00 0.35360539E+03</pdfrwt>
<pdfrwt beam="2">  1       -2 0.27334495E-02 0.35360539E+03</pdfrwt>
<totfact> 0.65257650E+03</totfact>
</mgrwt>
</event>
<event>
 4    1  0.9032007E-005  0.3445149E+03  0.7818608E-02  0.1064889E+00
          2   -1    0    0  501    0  0.00000000000E+00  0.00000000000E+00  0.32020931705E+04  0.32020931705E+04  0.25500000000E-02 0.  1.
         -2   -1    0    0    0  501 -0.00000000000E+00 -0.00000000000E+00 -0.92666358915E+01  0.92666362424E+01  0.25500000000E-02 0. -1.
    5000001    1    1    2    0    0 -0.96560599703E+02  0.64723235412E+02  0.15448621160E+04  0.15544262620E+04  0.12700000000E+03 0.  0.
   -5000001    1    1    2    0    0  0.96560599703E+02 -0.64723235412E+02  0.16479644186E+04  0.16569335447E+04  0.12700000000E+03 0.  0.
<mgrwt>
<rscale>  0 0.34451492E+03</rscale>
<asrwt>0</asrwt>
<pdfrwt beam="1">  1        2 0.45744197E+00 0.34451492E+03</pdfrwt>
<pdfrwt beam="2">  1       -2 0.13238049E-02 0.34451492E+03</pdfrwt>
<totfact> 0.30418174E+03</totfact>
</mgrwt>
</event>
<event>
 4    1  0.9032007E-005  0.2880569E+03  0.7818608E-02  0.1091368E+00
          2   -1    0    0  501    0  0.00000000000E+00  0.00000000000E+00  0.22289122798E+04  0.22289122798E+04  0.25500000000E-02 0.  1.
         -2   -1    0    0    0  501 -0.00000000000E+00 -0.00000000000E+00 -0.93068709122E+01  0.93068712615E+01  0.25500000000E-02 0. -1.
    5000001    1    1    2    0    0  0.29566707964E+02 -0.58914837160E+02  0.98211556221E+03  0.99248432017E+03  0.12700000000E+03 0.  0.
   -5000001    1    1    2    0    0 -0.29566707964E+02  0.58914837160E+02  0.12374898467E+04  0.12457348309E+04  0.12700000000E+03 0.  0.
<mgrwt>
<rscale>  0 0.28805693E+03</rscale>
<asrwt>0</asrwt>
<pdfrwt beam="1">  1        2 0.31841608E+00 0.28805693E+03</pdfrwt>
<pdfrwt beam="2">  1       -2 0.13295528E-02 0.28805693E+03</pdfrwt>
<totfact> 0.96158300E+03</totfact>
</mgrwt>
</event>
<event>
 4    1  0.9032007E-005  0.2936718E+03  0.7818608E-02  0.1088447E+00
          2   -1    0    0  501    0  0.00000000000E+00  0.00000000000E+00  0.17401979918E+03  0.17401979920E+03  0.25500000000E-02 0.  1.
         -2   -1    0    0    0  501 -0.00000000000E+00 -0.00000000000E+00 -0.12389846739E+03  0.12389846741E+03  0.25500000000E-02 0. -1.
    5000001    1    1    2    0    0 -0.48301974008E+02 -0.32589072542E+02  0.70842575138E+02  0.15666141450E+03  0.12700000000E+03 0.  0.
   -5000001    1    1    2    0    0  0.48301974008E+02  0.32589072542E+02 -0.20721243344E+02  0.14125685211E+03  0.12700000000E+03 0.  0.
<mgrwt>
<rscale>  0 0.29367183E+03</rscale>
<asrwt>0</asrwt>
<pdfrwt beam="1">  1        2 0.24859971E-01 0.29367183E+03</pdfrwt>
<pdfrwt beam="2">  1       -2 0.17699781E-01 0.29367183E+03</pdfrwt>
<totfact> 0.55866018E+03</totfact>
</mgrwt>
</event>
<event>
 4    1  0.9032007E-005  0.5648475E+03  0.7818608E-02  0.9981146E-01
         -2   -1    0    0    0  501 -0.00000000000E+00  0.00000000000E+00  0.21733835339E+02  0.21733835489E+02  0.25500000000E-02 0. -1.
          2   -1    0    0  501    0  0.00000000000E+00 -0.00000000000E+00 -0.36699995432E+04  0.36699995432E+04  0.25500000000E-02 0.  1.
    5000001    1    1    2    0    0 -0.20144938016E+03  0.12284388474E+03 -0.24073118330E+04  0.24221791292E+04  0.12700000000E+03 0.  0.
   -5000001    1    1    2    0    0  0.20144938016E+03 -0.12284388474E+03 -0.12409538749E+04  0.12695542495E+04  0.12700000000E+03 0.  0.
<mgrwt>
<rscale>  0 0.56484747E+03</rscale>
<asrwt>0</asrwt>
<pdfrwt beam="1">  1        2 0.52428525E+00 0.56484747E+03</pdfrwt>
<pdfrwt beam="2">  1       -2 0.31048360E-02 0.56484747E+03</pdfrwt>
<totfact> 0.44400497E+02</totfact>
</mgrwt>
</event>
<event>
 4    1  0.9032007E-005  0.3833747E+03  0.7818608E-02  0.1049693E+00
         -2   -1    0    0    0  501 -0.00000000000E+00  0.00000000000E+00  0.69387041296E+02  0.69387041343E+02  0.25500000000E-02 0. -1.
          2   -1    0    0  501    0  0.00000000000E+00 -0.00000000000E+00 -0.52955190739E+03  0.52955190740E+03  0.25500000000E-02 0.  1.
    5000001    1    1    2    0    0  0.95537445980E+02  0.10663988796E+03 -0.21328731126E+03  0.28656578029E+03  0.12700000000E+03 0.  0.
   -5000001    1    1    2    0    0 -0.95537445980E+02 -0.10663988796E+03 -0.24687755484E+03  0.31237316845E+03  0.12700000000E+03 0.  0.
<mgrwt>
<rscale>  0 0.38337470E+03</rscale>
<asrwt>0</asrwt>
<pdfrwt beam="1">  1        2 0.75650270E-01 0.38337470E+03</pdfrwt>
<pdfrwt beam="2">  1       -2 0.99124348E-02 0.38337470E+03</pdfrwt>
<totfact> 0.42962657E+03</totfact>
</mgrwt>
</event>
<event>
 4    1  0.9032007E-005  0.3245796E+03  0.7818608E-02  0.1073561E+00
         -2   -1    0    0    0  501 -0.00000000000E+00  0.00000000000E+00  0.16725410173E+02  0.16725410368E+02  0.25500000000E-02 0.  1.
          2   -1    0    0  501    0  0.00000000000E+00 -0.00000000000E+00 -0.15747281467E+04  0.15747281467E+04  0.25500000000E-02 0. -1.
    5000001    1    1    2    0    0 -0.78415221298E+01 -0.53911606905E+02 -0.36177402074E+03  0.38726914789E+03  0.12700000000E+03 0.  0.
   -5000001    1    1    2    0    0  0.78415221298E+01  0.53911606905E+02 -0.11962287158E+04  0.12041844092E+04  0.12700000000E+03 0.  0.
<mgrwt>
<rscale>  0 0.32457957E+03</rscale>
<asrwt>0</asrwt>
<pdfrwt beam="1">  1        2 0.22496107E+00 0.32457957E+03</pdfrwt>
<pdfrwt beam="2">  1       -2 0.23893453E-02 0.32457957E+03</pdfrwt>
<totfact> 0.85281717E+03</totfact>
</mgrwt>
</event>
<event>
 4    1  0.9032007E-005  0.4104691E+03  0.7818608E-02  0.1040214E+00
          2   -1    0    0  501    0  0.00000000000E+00  0.00000000000E+00  0.40647872741E+03  0.40647872742E+03  0.25500000000E-02 0.  1.
         -2   -1    0    0    0  501 -0.00000000000E+00 -0.00000000000E+00 -0.10362464292E+03  0.10362464295E+03  0.25500000000E-02 0. -1.
    5000001    1    1    2    0    0 -0.70768700926E+02 -0.10445420244E+03  0.27615509853E+03  0.32910412924E+03  0.12700000000E+03 0.  0.
   -5000001    1    1    2    0    0  0.70768700926E+02  0.10445420244E+03  0.26698985964E+02  0.18099924113E+03  0.12700000000E+03 0.  0.
<mgrwt>
<rscale>  0 0.41046906E+03</rscale>
<asrwt>0</asrwt>
<pdfrwt beam="1">  1        2 0.58068388E-01 0.41046906E+03</pdfrwt>
<pdfrwt beam="2">  1       -2 0.14803521E-01 0.41046906E+03</pdfrwt>
<totfact> 0.29993229E+03</totfact>
</mgrwt>
</event>
<event>
 4    1  0.9032007E-005  0.5554202E+03  0.7818608E-02  0.1000247E+00
          2   -1    0    0  501    0  0.00000000000E+00  0.00000000000E+00  0.64792893687E+03  0.64792893688E+03  0.25500000000E-02 0.  1.
         -2   -1    0    0    0  501 -0.00000000000E+00 -0.00000000000E+00 -0.11902987340E+03  0.11902987342E+03  0.25500000000E-02 0. -1.
    5000001    1    1    2    0    0  0.71022710149E+02 -0.22603887442E+03  0.36067593142E+03  0.44983766584E+03  0.12700000000E+03 0.  0.
   -5000001    1    1    2    0    0 -0.71022710149E+02  0.22603887442E+03  0.16822313205E+03  0.31712114446E+03  0.12700000000E+03 0.  0.
<mgrwt>
<rscale>  0 0.55542020E+03</rscale>
<asrwt>0</asrwt>
<pdfrwt beam="1">  1        2 0.92561277E-01 0.55542020E+03</pdfrwt>
<pdfrwt beam="2">  1       -2 0.17004268E-01 0.55542020E+03</pdfrwt>
<totfact> 0.13995663E+03</totfact>
</mgrwt>
</event>
<event>
 4    1  0.9032007E-005  0.5201494E+03  0.7818608E-02  0.1008649E+00
         -2   -1    0    0    0  501 -0.00000000000E+00  0.00000000000E+00  0.26640047004E+02  0.26640047126E+02  0.25500000000E-02 0. -1.
          2   -1    0    0  501    0  0.00000000000E+00 -0.00000000000E+00 -0.25389913092E+04  0.25389913092E+04  0.25500000000E-02 0.  1.
    5000001    1    1    2    0    0 -0.15825354340E+03 -0.36363070968E+02 -0.20383040799E+04  0.20487017790E+04  0.12700000000E+03 0.  0.
   -5000001    1    1    2    0    0  0.15825354340E+03  0.36363070968E+02 -0.47404718230E+03  0.51692957738E+03  0.12700000000E+03 0.  0.
<mgrwt>
<rscale>  0 0.52014939E+03</rscale>
<asrwt>0</asrwt>
<pdfrwt beam="1">  1        2 0.36271289E+00 0.52014939E+03</pdfrwt>
<pdfrwt beam="2">  1       -2 0.38057226E-02 0.52014939E+03</pdfrwt>
<totfact> 0.13885402E+03</totfact>
</mgrwt>
</event>
<event>
 4    1  0.9032007E-005  0.2898739E+03  0.7818608E-02  0.1090415E+00
         -2   -1    0    0    0  501 -0.00000000000E+00  0.00000000000E+00  0.10189375100E+03  0.10189375103E+03  0.25500000000E-02 0. -1.
          2   -1    0    0  501    0  0.00000000000E+00 -0.00000000000E+00 -0.20616304236E+03  0.20616304237E+03  0.25500000000E-02 0.  1.
    5000001    1    1    2    0    0 -0.59712011189E+02 -0.35687350143E+02 -0.45530804003E+02  0.15179316636E+03  0.12700000000E+03 0.  0.
   -5000001    1    1    2    0    0  0.59712011189E+02  0.35687350143E+02 -0.58738487354E+02  0.15626362704E+03  0.12700000000E+03 0.  0.
<mgrwt>
<rscale>  0 0.28987394E+03</rscale>
<asrwt>0</asrwt>
<pdfrwt beam="1">  1        2 0.29451863E-01 0.28987394E+03</pdfrwt>
<pdfrwt beam="2">  1       -2 0.14556250E-01 0.28987394E+03</pdfrwt>
<totfact> 0.64088551E+03</totfact>
</mgrwt>
</event>
<event>
 4    1  0.9032007E-005  0.9122268E+03  0.7818608E-02  0.9410425E-01
          2   -1    0    0  501    0  0.00000000000E+00  0.00000000000E+00  0.76728785527E+03  0.76728785527E+03  0.25500000000E-02 0.  1.
         -2   -1    0    0    0  501 -0.00000000000E+00 -0.00000000000E+00 -0.27113608860E+03  0.27113608862E+03  0.25500000000E-02 0. -1.
    5000001    1    1    2    0    0 -0.28804414008E+03 -0.32206971701E+03  0.33025816349E+03  0.55847809608E+03  0.12700000000E+03 0.  0.
   -5000001    1    1    2    0    0  0.28804414008E+03  0.32206971701E+03  0.16589360317E+03  0.47994584780E+03  0.12700000000E+03 0.  0.
<mgrwt>
<rscale>  0 0.91222679E+03</rscale>
<asrwt>0</asrwt>
<pdfrwt beam="1">  1        2 0.10961255E+00 0.91222679E+03</pdfrwt>
<pdfrwt beam="2">  1       -2 0.38733727E-01 0.91222679E+03</pdfrwt>
<totfact> 0.25274870E+02</totfact>
</mgrwt>
</event>
<event>
 4    1  0.9032007E-005  0.3646150E+03  0.7818608E-02  0.1056771E+00
         -2   -1    0    0    0  501 -0.00000000000E+00  0.00000000000E+00  0.87959408884E+02  0.87959408921E+02  0.25500000000E-02 0. -1.
          2   -1    0    0  501    0  0.00000000000E+00 -0.00000000000E+00 -0.37785630538E+03  0.37785630539E+03  0.25500000000E-02 0.  1.
    5000001    1    1    2    0    0 -0.54029373286E+02  0.10563532567E+03 -0.21526067797E+03  0.27666614301E+03  0.12700000000E+03 0.  0.
   -5000001    1    1    2    0    0  0.54029373286E+02 -0.10563532567E+03 -0.74636218519E+02  0.18914957130E+03  0.12700000000E+03 0.  0.
<mgrwt>
<rscale>  0 0.36461496E+03</rscale>
<asrwt>0</asrwt>
<pdfrwt beam="1">  1        2 0.53979471E-01 0.36461496E+03</pdfrwt>
<pdfrwt beam="2">  1       -2 0.12565630E-01 0.36461496E+03</pdfrwt>
<totfact> 0.42477167E+03</totfact>
</mgrwt>
</event>
<event>
 4    1  0.9032007E-005  0.3719889E+03  0.7818608E-02  0.1053935E+00
         -2   -1    0    0    0  501 -0.00000000000E+00  0.00000000000E+00  0.16938317039E+02  0.16938317231E+02  0.25500000000E-02 0.  1.
          2   -1    0    0  501    0  0.00000000000E+00 -0.00000000000E+00 -0.20423481288E+04  0.20423481288E+04  0.25500000000E-02 0. -1.
    5000001    1    1    2    0    0 -0.12846935270E+03 -0.57395116055E+01 -0.12557561686E+04  0.12686961305E+04  0.12700000000E+03 0.  0.
   -5000001    1    1    2    0    0  0.12846935270E+03  0.57395116055E+01 -0.76965364319E+03  0.79059031556E+03  0.12700000000E+03 0.  0.
<mgrwt>
<rscale>  0 0.37198893E+03</rscale>
<asrwt>0</asrwt>
<pdfrwt beam="1">  1        2 0.29176386E+00 0.37198893E+03</pdfrwt>
<pdfrwt beam="2">  1       -2 0.24197609E-02 0.37198893E+03</pdfrwt>
<totfact> 0.49120732E+03</totfact>
</mgrwt>
</event>
<event>
 4    1  0.9032007E-005  0.3485929E+03  0.7818608E-02  0.1063194E+00
         -2   -1    0    0    0  501 -0.00000000000E+00  0.00000000000E+00  0.19653117683E+02  0.19653117848E+02  0.25500000000E-02 0. -1.
          2   -1    0    0  501    0  0.00000000000E+00 -0.00000000000E+00 -0.15457726565E+04  0.15457726565E+04  0.25500000000E-02 0.  1.
    5000001    1    1    2    0    0  0.34522235169E+02 -0.11395958649E+03 -0.80107983845E+03  0.81977831128E+03  0.12700000000E+03 0.  0.
   -5000001    1    1    2    0    0 -0.34522235169E+02  0.11395958649E+03 -0.72503970033E+03  0.74564746304E+03  0.12700000000E+03 0.  0.
<mgrwt>
<rscale>  0 0.34859290E+03</rscale>
<asrwt>0</asrwt>
<pdfrwt beam="1">  1        2 0.22082459E+00 0.34859290E+03</pdfrwt>
<pdfrwt beam="2">  1       -2 0.28075892E-02 0.34859290E+03</pdfrwt>
<totfact> 0.69421425E+03</totfact>
</mgrwt>
</event>
<event>
 4    1  0.9032007E-005  0.3706728E+03  0.7818608E-02  0.1054436E+00
          2   -1    0    0  501    0  0.00000000000E+00  0.00000000000E+00  0.10570799849E+04  0.10570799849E+04  0.25500000000E-02 0.  1.
         -2   -1    0    0    0  501 -0.00000000000E+00 -0.00000000000E+00 -0.32494773414E+02  0.32494773515E+02  0.25500000000E-02 0. -1.
    5000001    1    1    2    0    0  0.12663349729E+03 -0.16191266787E+02  0.38341264393E+03  0.42359468279E+03  0.12700000000E+03 0.  0.
   -5000001    1    1    2    0    0 -0.12663349729E+03  0.16191266787E+02  0.64117256754E+03  0.66598007562E+03  0.12700000000E+03 0.  0.
<mgrwt>
<rscale>  0 0.37067276E+03</rscale>
<asrwt>0</asrwt>
<pdfrwt beam="1">  1        2 0.15101142E+00 0.37067276E+03</pdfrwt>
<pdfrwt beam="2">  1       -2 0.46421108E-02 0.37067276E+03</pdfrwt>
<totfact> 0.59450618E+03</totfact>
</mgrwt>
</event>
<event>
 4    1  0.9032007E-005  0.9561631E+03  0.7818608E-02  0.9357976E-01
          2   -1    0    0  501    0  0.00000000000E+00  0.00000000000E+00  0.58269830884E+03  0.58269830885E+03  0.25500000000E-02 0.  1.
         -2   -1    0    0    0  501 -0.00000000000E+00 -0.00000000000E+00 -0.39224748738E+03  0.39224748739E+03  0.25500000000E-02 0. -1.
    5000001    1    1    2    0    0 -0.22482100726E+03  0.15596384773E+03 -0.28295628027E+03  0.41359698215E+03  0.12700000000E+03 0.  0.
   -5000001    1    1    2    0    0  0.22482100726E+03 -0.15596384773E+03  0.47340710173E+03  0.56134881408E+03  0.12700000000E+03 0.  0.
<mgrwt>
<rscale>  0 0.95616306E+03</rscale>
<asrwt>0</asrwt>
<pdfrwt beam="1">  1        2 0.83242616E-01 0.95616306E+03</pdfrwt>
<pdfrwt beam="2">  1       -2 0.56035355E-01 0.95616306E+03</pdfrwt>
<totfact> 0.16812848E+02</totfact>
</mgrwt>
</event>
<event>
 4    1  0.9032007E-005  0.4737877E+03  0.7818608E-02  0.1020857E+00
          2   -1    0    0  501    0  0.00000000000E+00  0.00000000000E+00  0.45873577605E+03  0.45873577606E+03  0.25500000000E-02 0.  1.
         -2   -1    0    0    0  501 -0.00000000000E+00 -0.00000000000E+00 -0.12233337153E+03  0.12233337155E+03  0.25500000000E-02 0. -1.
    5000001    1    1    2    0    0 -0.67477004350E+02 -0.15667171485E+03  0.29618894711E+03  0.36463140943E+03  0.12700000000E+03 0.  0.
   -5000001    1    1    2    0    0  0.67477004350E+02  0.15667171485E+03  0.40213457413E+02  0.21643773818E+03  0.12700000000E+03 0.  0.
<mgrwt>
<rscale>  0 0.47378769E+03</rscale>
<asrwt>0</asrwt>
<pdfrwt beam="1">  1        2 0.65533683E-01 0.47378769E+03</pdfrwt>
<pdfrwt beam="2">  1       -2 0.17476196E-01 0.47378769E+03</pdfrwt>
<totfact> 0.19868667E+03</totfact>
</mgrwt>
</event>
<event>
 4    1  0.9032007E-005  0.5742322E+03  0.7818608E-02  0.9960357E-01
         -2   -1    0    0    0  501 -0.00000000000E+00  0.00000000000E+00  0.10929137266E+03  0.10929137269E+03  0.25500000000E-02 0. -1.
          2   -1    0    0  501    0  0.00000000000E+00 -0.00000000000E+00 -0.75427411869E+03  0.75427411870E+03  0.25500000000E-02 0.  1.
    5000001    1    1    2    0    0 -0.12005749343E+03 -0.22511514668E+03 -0.37493329521E+03  0.47095074779E+03  0.12700000000E+03 0.  0.
   -5000001    1    1    2    0    0  0.12005749343E+03  0.22511514668E+03 -0.27004945083E+03  0.39261474359E+03  0.12700000000E+03 0.  0.
<mgrwt>
<rscale>  0 0.57423220E+03</rscale>
<asrwt>0</asrwt>
<pdfrwt beam="1">  1        2 0.10775344E+00 0.57423220E+03</pdfrwt>
<pdfrwt beam="2">  1       -2 0.15613054E-01 0.57423220E+03</pdfrwt>
<totfact> 0.13433828E+03</totfact>
</mgrwt>
</event>
<event>
 4    1  0.9032007E-005  0.2853865E+03  0.7818608E-02  0.1092783E+00
          2   -1    0    0  501    0  0.00000000000E+00  0.00000000000E+00  0.82763005160E+03  0.82763005161E+03  0.25500000000E-02 0.  1.
         -2   -1    0    0    0  501 -0.00000000000E+00 -0.00000000000E+00 -0.24602016912E+02  0.24602017045E+02  0.25500000000E-02 0. -1.
    5000001    1    1    2    0    0  0.48086351416E+02  0.43787818490E+02  0.39660863278E+03  0.42149386453E+03  0.12700000000E+03 0.  0.
   -5000001    1    1    2    0    0 -0.48086351416E+02 -0.43787818490E+02  0.40641940190E+03  0.43073820412E+03  0.12700000000E+03 0.  0.
<mgrwt>
<rscale>  0 0.28538653E+03</rscale>
<asrwt>0</asrwt>
<pdfrwt beam="1">  1        2 0.11823289E+00 0.28538653E+03</pdfrwt>
<pdfrwt beam="2">  1       -2 0.35145730E-02 0.28538653E+03</pdfrwt>
<totfact> 0.12450632E+04</totfact>
</mgrwt>
</event>
<event>
 4    1  0.9032007E-005  0.5526676E+03  0.7818608E-02  0.1000878E+00
         -2   -1    0    0    0  501 -0.00000000000E+00  0.00000000000E+00  0.81654383343E+02  0.81654383383E+02  0.25500000000E-02 0. -1.
          2   -1    0    0  501    0  0.00000000000E+00 -0.00000000000E+00 -0.93516543659E+03  0.93516543659E+03  0.25500000000E-02 0.  1.
    5000001    1    1    2    0    0 -0.17818230307E+03 -0.10467039079E+03 -0.18318314514E+03  0.30395705042E+03  0.12700000000E+03 0.  0.
   -5000001    1    1    2    0    0  0.17818230307E+03  0.10467039079E+03 -0.67032790811E+03  0.71286276956E+03  0.12700000000E+03 0.  0.
<mgrwt>
<rscale>  0 0.55266756E+03</rscale>
<asrwt>0</asrwt>
<pdfrwt beam="1">  1        2 0.13359506E+00 0.55266756E+03</pdfrwt>
<pdfrwt beam="2">  1       -2 0.11664912E-01 0.55266756E+03</pdfrwt>
<totfact> 0.16502000E+03</totfact>
</mgrwt>
</event>
<event>
 4    1  0.9032007E-005  0.4106723E+03  0.7818608E-02  0.1040146E+00
          2   -1    0    0  501    0  0.00000000000E+00  0.00000000000E+00  0.64522067103E+03  0.64522067103E+03  0.25500000000E-02 0.  1.
         -2   -1    0    0    0  501 -0.00000000000E+00 -0.00000000000E+00 -0.65346545271E+02  0.65346545321E+02  0.25500000000E-02 0. -1.
    5000001    1    1    2    0    0  0.69963087395E+02 -0.56282360919E+02  0.57983673662E+02  0.16599290394E+03  0.12700000000E+03 0.  0.
   -5000001    1    1    2    0    0 -0.69963087395E+02  0.56282360919E+02  0.52189045209E+03  0.54457431241E+03  0.12700000000E+03 0.  0.
<mgrwt>
<rscale>  0 0.41067234E+03</rscale>
<asrwt>0</asrwt>
<pdfrwt beam="1">  1        2 0.92174388E-01 0.41067234E+03</pdfrwt>
<pdfrwt beam="2">  1       -2 0.93352201E-02 0.41067234E+03</pdfrwt>
<totfact> 0.37700985E+03</totfact>
</mgrwt>
</event>
<event>
 4    1  0.9032007E-005  0.5317975E+03  0.7818608E-02  0.1005797E+00
          2   -1    0    0  501    0  0.00000000000E+00  0.00000000000E+00  0.22752862785E+03  0.22752862787E+03  0.25500000000E-02 0.  1.
         -2   -1    0    0    0  501 -0.00000000000E+00 -0.00000000000E+00 -0.31073952876E+03  0.31073952877E+03  0.25500000000E-02 0. -1.
    5000001    1    1    2    0    0 -0.16674952236E+03 -0.16181962325E+03 -0.66026705337E+02  0.27290936132E+03  0.12700000000E+03 0.  0.
   -5000001    1    1    2    0    0  0.16674952236E+03  0.16181962325E+03 -0.17184195570E+02  0.26535879532E+03  0.12700000000E+03 0.  0.
<mgrwt>
<rscale>  0 0.53179748E+03</rscale>
<asrwt>0</asrwt>
<pdfrwt beam="1">  1        2 0.32504090E-01 0.53179748E+03</pdfrwt>
<pdfrwt beam="2">  1       -2 0.44391361E-01 0.53179748E+03</pdfrwt>
<totfact> 0.78577462E+02</totfact>
</mgrwt>
</event>
<event>
 4    1  0.9032007E-005  0.4446492E+03  0.7818608E-02  0.1029330E+00
         -2   -1    0    0    0  501 -0.00000000000E+00  0.00000000000E+00  0.62945181642E+02  0.62945181694E+02  0.25500000000E-02 0. -1.
          2   -1    0    0  501    0  0.00000000000E+00 -0.00000000000E+00 -0.78525816865E+03  0.78525816866E+03  0.25500000000E-02 0.  1.
    5000001    1    1    2    0    0  0.82913263978E+02 -0.15243274854E+03 -0.46887755887E+03  0.51583477722E+03  0.12700000000E+03 0.  0.
   -5000001    1    1    2    0    0 -0.82913263978E+02  0.15243274854E+03 -0.25343542813E+03  0.33236857313E+03  0.12700000000E+03 0.  0.
<mgrwt>
<rscale>  0 0.44464916E+03</rscale>
<asrwt>0</asrwt>
<pdfrwt beam="1">  1        2 0.11217973E+00 0.44464916E+03</pdfrwt>
<pdfrwt beam="2">  1       -2 0.89921693E-02 0.44464916E+03</pdfrwt>
<totfact> 0.31552763E+03</totfact>
</mgrwt>
</event>
<event>
 4    1  0.9032007E-005  0.3027709E+03  0.7818608E-02  0.1083864E+00
          2   -1    0    0  501    0  0.00000000000E+00  0.00000000000E+00  0.54538570686E+03  0.54538570687E+03  0.25500000000E-02 0.  1.
         -2   -1    0    0    0  501 -0.00000000000E+00 -0.00000000000E+00 -0.42020822142E+02  0.42020822220E+02  0.25500000000E-02 0. -1.
    5000001    1    1    2    0    0  0.35708581440E+02 -0.71121307461E+02  0.29307590764E+03  0.32917446863E+03  0.12700000000E+03 0.  0.
   -5000001    1    1    2    0    0 -0.35708581440E+02  0.71121307461E+02  0.21028897708E+03  0.25823206045E+03  0.12700000000E+03 0.  0.
<mgrwt>
<rscale>  0 0.30277091E+03</rscale>
<asrwt>0</asrwt>
<pdfrwt beam="1">  1        2 0.77912236E-01 0.30277091E+03</pdfrwt>
<pdfrwt beam="2">  1       -2 0.60029752E-02 0.30277091E+03</pdfrwt>
<totfact> 0.90659558E+03</totfact>
</mgrwt>
</event>
<event>
 4    1  0.9032007E-005  0.3978380E+03  0.7818608E-02  0.1044531E+00
         -2   -1    0    0    0  501 -0.00000000000E+00  0.00000000000E+00  0.86692020668E+02  0.86692020706E+02  0.25500000000E-02 0. -1.
          2   -1    0    0  501    0  0.00000000000E+00 -0.00000000000E+00 -0.45642908778E+03  0.45642908779E+03  0.25500000000E-02 0.  1.
    5000001    1    1    2    0    0 -0.68914920433E+01  0.73181601295E+02 -0.15234561706E+01  0.14674590403E+03  0.12700000000E+03 0.  0.
   -5000001    1    1    2    0    0  0.68914920433E+01 -0.73181601295E+02 -0.36821361094E+03  0.39637520446E+03  0.12700000000E+03 0.  0.
<mgrwt>
<rscale>  0 0.39783796E+03</rscale>
<asrwt>0</asrwt>
<pdfrwt beam="1">  1        2 0.65204154E-01 0.39783796E+03</pdfrwt>
<pdfrwt beam="2">  1       -2 0.12384575E-01 0.39783796E+03</pdfrwt>
<totfact> 0.35411343E+03</totfact>
</mgrwt>
</event>
<event>
 4    1  0.9032007E-005  0.3377115E+03  0.7818608E-02  0.1067775E+00
         -2   -1    0    0    0  501 -0.00000000000E+00  0.00000000000E+00  0.11774118703E+03  0.11774118705E+03  0.25500000000E-02 0. -1.
          2   -1    0    0  501    0  0.00000000000E+00 -0.00000000000E+00 -0.24216047467E+03  0.24216047468E+03  0.25500000000E-02 0.  1.
    5000001    1    1    2    0    0 -0.76785159976E+02 -0.63786195846E+02 -0.97986932389E+01  0.16183217839E+03  0.12700000000E+03 0.  0.
   -5000001    1    1    2    0    0  0.76785159976E+02  0.63786195846E+02 -0.11462059441E+03  0.19806948335E+03  0.12700000000E+03 0.  0.
<mgrwt>
<rscale>  0 0.33771148E+03</rscale>
<asrwt>0</asrwt>
<pdfrwt beam="1">  1        2 0.34594353E-01 0.33771148E+03</pdfrwt>
<pdfrwt beam="2">  1       -2 0.16820170E-01 0.33771148E+03</pdfrwt>
<totfact> 0.42427417E+03</totfact>
</mgrwt>
</event>
<event>
 4    1  0.9032007E-005  0.2995644E+03  0.7818608E-02  0.1085459E+00
          2   -1    0    0  501    0  0.00000000000E+00  0.00000000000E+00  0.11851171665E+04  0.11851171665E+04  0.25500000000E-02 0.  1.
         -2   -1    0    0    0  501 -0.00000000000E+00 -0.00000000000E+00 -0.18930376397E+02  0.18930376569E+02  0.25500000000E-02 0. -1.
    5000001    1    1    2    0    0 -0.10576502181E+02 -0.52997476596E+02  0.34924179045E+03  0.37552552925E+03  0.12700000000E+03 0.  0.
   -5000001    1    1    2    0    0  0.10576502181E+02  0.52997476596E+02  0.81694499966E+03  0.82852201382E+03  0.12700000000E+03 0.  0.
<mgrwt>
<rscale>  0 0.29956444E+03</rscale>
<asrwt>0</asrwt>
<pdfrwt beam="1">  1        2 0.16930246E+00 0.29956444E+03</pdfrwt>
<pdfrwt beam="2">  1       -2 0.27043393E-02 0.29956444E+03</pdfrwt>
<totfact> 0.11305584E+04</totfact>
</mgrwt>
</event>
<event>
 4    1  0.9032007E-005  0.4276429E+03  0.7818608E-02  0.1034607E+00
         -2   -1    0    0    0  501 -0.00000000000E+00  0.00000000000E+00  0.95538672639E+02  0.95538672673E+02  0.25500000000E-02 0. -1.
          2   -1    0    0  501    0  0.00000000000E+00 -0.00000000000E+00 -0.47854567668E+03  0.47854567668E+03  0.25500000000E-02 0.  1.
    5000001    1    1    2    0    0 -0.17044312331E+03 -0.74388057696E+00 -0.16033095994E+03  0.26624505321E+03  0.12700000000E+03 0.  0.
   -5000001    1    1    2    0    0  0.17044312331E+03  0.74388057696E+00 -0.22267604409E+03  0.30783929615E+03  0.12700000000E+03 0.  0.
<mgrwt>
<rscale>  0 0.42764293E+03</rscale>
<asrwt>0</asrwt>
<pdfrwt beam="1">  1        2 0.68363667E-01 0.42764293E+03</pdfrwt>
<pdfrwt beam="2">  1       -2 0.13648382E-01 0.42764293E+03</pdfrwt>
<totfact> 0.28665424E+03</totfact>
</mgrwt>
</event>
<event>
 4    1  0.9032007E-005  0.1016019E+04  0.7818608E-02  0.9291148E-01
          2   -1    0    0  501    0  0.00000000000E+00  0.00000000000E+00  0.71657328809E+03  0.71657328810E+03  0.25500000000E-02 0.  1.
         -2   -1    0    0    0  501 -0.00000000000E+00 -0.00000000000E+00 -0.36014976689E+03  0.36014976689E+03  0.25500000000E-02 0. -1.
    5000001    1    1    2    0    0  0.64838072076E+02 -0.81526140479E+02 -0.33123250450E+03  0.36972213784E+03  0.12700000000E+03 0.  0.
   -5000001    1    1    2    0    0 -0.64838072076E+02  0.81526140479E+02  0.68765602570E+03  0.70700091716E+03  0.12700000000E+03 0.  0.
<mgrwt>
<rscale>  0 0.10160191E+04</rscale>
<asrwt>0</asrwt>
<pdfrwt beam="1">  1        2 0.10236761E+00 0.10160191E+04</pdfrwt>
<pdfrwt beam="2">  1       -2 0.51449967E-01 0.10160191E+04</pdfrwt>
<totfact> 0.15563182E+02</totfact>
</mgrwt>
</event>
<event>
 4    1  0.9032007E-005  0.7381879E+03  0.7818608E-02  0.9654066E-01
         -2   -1    0    0    0  501 -0.00000000000E+00  0.00000000000E+00  0.65234507647E+02  0.65234507697E+02  0.25500000000E-02 0. -1.
          2   -1    0    0  501    0  0.00000000000E+00 -0.00000000000E+00 -0.20883172416E+04  0.20883172416E+04  0.25500000000E-02 0.  1.
    5000001    1    1    2    0    0 -0.31244654557E+03  0.12839424839E+02 -0.57575492237E+03  0.66739075908E+03  0.12700000000E+03 0.  0.
   -5000001    1    1    2    0    0  0.31244654557E+03 -0.12839424839E+02 -0.14473278115E+04  0.14861609902E+04  0.12700000000E+03 0.  0.
<mgrwt>
<rscale>  0 0.73818791E+03</rscale>
<asrwt>0</asrwt>
<pdfrwt beam="1">  1        2 0.29833099E+00 0.73818791E+03</pdfrwt>
<pdfrwt beam="2">  1       -2 0.93192168E-02 0.73818791E+03</pdfrwt>
<totfact> 0.56860577E+02</totfact>
</mgrwt>
</event>
<event>
 4    1  0.9032007E-005  0.3590465E+03  0.7818608E-02  0.1058962E+00
         -2   -1    0    0    0  501 -0.00000000000E+00  0.00000000000E+00  0.65095683777E+01  0.65095688772E+01  0.25500000000E-02 0. -1.
          2   -1    0    0  501    0  0.00000000000E+00 -0.00000000000E+00 -0.49509574237E+04  0.49509574237E+04  0.25500000000E-02 0.  1.
    5000001    1    1    2    0    0  0.18218714859E+02 -0.99174318869E+02 -0.14087803180E+04  0.14180826674E+04  0.12700000000E+03 0.  0.
   -5000001    1    1    2    0    0 -0.18218714859E+02  0.99174318869E+02 -0.35356675374E+04  0.35393843252E+04  0.12700000000E+03 0.  0.
<mgrwt>
<rscale>  0 0.35904650E+03</rscale>
<asrwt>0</asrwt>
<pdfrwt beam="1">  1        2 0.70727722E+00 0.35904650E+03</pdfrwt>
<pdfrwt beam="2">  1       -2 0.92994155E-03 0.35904650E+03</pdfrwt>
<totfact> 0.31691129E+02</totfact>
</mgrwt>
</event>
<event>
 4    1  0.9032007E-005  0.3770956E+03  0.7818608E-02  0.1052012E+00
         -2   -1    0    0    0  501 -0.00000000000E+00  0.00000000000E+00  0.54937024339E+02  0.54937024399E+02  0.25500000000E-02 0. -1.
          2   -1    0    0  501    0  0.00000000000E+00 -0.00000000000E+00 -0.64710968883E+03  0.64710968884E+03  0.25500000000E-02 0.  1.
    5000001    1    1    2    0    0  0.25659802055E+02  0.83872310488E+02 -0.49770552007E+03  0.52108806801E+03  0.12700000000E+03 0.  0.
   -5000001    1    1    2    0    0 -0.25659802055E+02 -0.83872310488E+02 -0.94467144419E+02  0.18095864523E+03  0.12700000000E+03 0.  0.
<mgrwt>
<rscale>  0 0.37709564E+03</rscale>
<asrwt>0</asrwt>
<pdfrwt beam="1">  1        2 0.92444237E-01 0.37709564E+03</pdfrwt>
<pdfrwt beam="2">  1       -2 0.78481467E-02 0.37709564E+03</pdfrwt>
<totfact> 0.49388105E+03</totfact>
</mgrwt>
</event>
<event>
 4    1  0.9032007E-005  0.3502192E+03  0.7818608E-02  0.1062525E+00
          2   -1    0    0  501    0  0.00000000000E+00  0.00000000000E+00  0.21432478850E+04  0.21432478850E+04  0.25500000000E-02 0.  1.
         -2   -1    0    0    0  501 -0.00000000000E+00 -0.00000000000E+00 -0.14306962254E+02  0.14306962481E+02  0.25500000000E-02 0. -1.
    5000001    1    1    2    0    0 -0.80323536617E+02  0.58774832025E+02  0.14835720708E+04  0.14923208236E+04  0.12700000000E+03 0.  0.
   -5000001    1    1    2    0    0  0.80323536617E+02 -0.58774832025E+02  0.64536885194E+03  0.66523402383E+03  0.12700000000E+03 0.  0.
<mgrwt>
<rscale>  0 0.35021917E+03</rscale>
<asrwt>0</asrwt>
<pdfrwt beam="1">  1        2 0.30617831E+00 0.35021917E+03</pdfrwt>
<pdfrwt beam="2">  1       -2 0.20438515E-02 0.35021917E+03</pdfrwt>
<totfact> 0.56316199E+03</totfact>
</mgrwt>
</event>
<event>
 4    1  0.9032007E-005  0.4115758E+03  0.7818608E-02  0.1039844E+00
          2   -1    0    0  501    0  0.00000000000E+00  0.00000000000E+00  0.22821897006E+04  0.22821897006E+04  0.25500000000E-02 0.  1.
         -2   -1    0    0    0  501 -0.00000000000E+00 -0.00000000000E+00 -0.18556148596E+02  0.18556148771E+02  0.25500000000E-02 0. -1.
    5000001    1    1    2    0    0 -0.11723244055E+03  0.32973400121E+02  0.17283860966E+04  0.17373192536E+04  0.12700000000E+03 0.  0.
   -5000001    1    1    2    0    0  0.11723244055E+03 -0.32973400121E+02  0.53524745538E+03  0.56342659569E+03  0.12700000000E+03 0.  0.
<mgrwt>
<rscale>  0 0.41157576E+03</rscale>
<asrwt>0</asrwt>
<pdfrwt beam="1">  1        2 0.32602717E+00 0.41157576E+03</pdfrwt>
<pdfrwt beam="2">  1       -2 0.26508778E-02 0.41157576E+03</pdfrwt>
<totfact> 0.32559789E+03</totfact>
</mgrwt>
</event>
<event>
 4    1  0.9032007E-005  0.6673697E+03  0.7818608E-02  0.9774721E-01
          2   -1    0    0  501    0  0.00000000000E+00  0.00000000000E+00  0.65234221131E+03  0.65234221131E+03  0.25500000000E-02 0. -1.
         -2   -1    0    0    0  501 -0.00000000000E+00 -0.00000000000E+00 -0.17068585770E+03  0.17068585772E+03  0.25500000000E-02 0.  1.
    5000001    1    1    2    0    0  0.16667638552E+03 -0.12248064861E+03 -0.41565453954E+02  0.24625030708E+03  0.12700000000E+03 0.  0.
   -5000001    1    1    2    0    0 -0.16667638552E+03  0.12248064861E+03  0.52322180756E+03  0.57677776195E+03  0.12700000000E+03 0.  0.
<mgrwt>
<rscale>  0 0.66736973E+03</rscale>
<asrwt>0</asrwt>
<pdfrwt beam="1">  1        2 0.93191744E-01 0.66736973E+03</pdfrwt>
<pdfrwt beam="2">  1       -2 0.24383694E-01 0.66736973E+03</pdfrwt>
<totfact> 0.73837096E+02</totfact>
</mgrwt>
</event>
<event>
 4    1  0.9032007E-005  0.3299703E+03  0.7818608E-02  0.1071150E+00
         -2   -1    0    0    0  501 -0.00000000000E+00  0.00000000000E+00  0.13363931090E+02  0.13363931333E+02  0.25500000000E-02 0. -1.
          2   -1    0    0  501    0  0.00000000000E+00 -0.00000000000E+00 -0.20368327018E+04  0.20368327018E+04  0.25500000000E-02 0.  1.
    5000001    1    1    2    0    0 -0.83945120541E+02 -0.58528042310E+02 -0.11662910896E+04  0.11776401066E+04  0.12700000000E+03 0.  0.
   -5000001    1    1    2    0    0  0.83945120541E+02  0.58528042310E+02 -0.85717768110E+03  0.87255652652E+03  0.12700000000E+03 0.  0.
<mgrwt>
<rscale>  0 0.32997025E+03</rscale>
<asrwt>0</asrwt>
<pdfrwt beam="1">  1        2 0.29097590E+00 0.32997025E+03</pdfrwt>
<pdfrwt beam="2">  1       -2 0.19091343E-02 0.32997025E+03</pdfrwt>
<totfact> 0.70272482E+03</totfact>
</mgrwt>
</event>
<event>
 4    1  0.9032007E-005  0.3225940E+03  0.7818608E-02  0.1074462E+00
          2   -1    0    0  501    0  0.00000000000E+00  0.00000000000E+00  0.48234950435E+03  0.48234950436E+03  0.25500000000E-02 0.  1.
         -2   -1    0    0    0  501 -0.00000000000E+00 -0.00000000000E+00 -0.53937505489E+02  0.53937505549E+02  0.25500000000E-02 0. -1.
    5000001    1    1    2    0    0  0.89457719324E+01  0.97496212520E+02  0.24310491386E+03  0.29122935538E+03  0.12700000000E+03 0.  0.
   -5000001    1    1    2    0    0 -0.89457719324E+01 -0.97496212520E+02  0.18530708501E+03  0.24505765453E+03  0.12700000000E+03 0.  0.
<mgrwt>
<rscale>  0 0.32259404E+03</rscale>
<asrwt>0</asrwt>
<pdfrwt beam="1">  1        2 0.68907075E-01 0.32259404E+03</pdfrwt>
<pdfrwt beam="2">  1       -2 0.77053576E-02 0.32259404E+03</pdfrwt>
<totfact> 0.70740062E+03</totfact>
</mgrwt>
</event>
<event>
 4    1  0.9032007E-005  0.5148278E+03  0.7818608E-02  0.1009980E+00
          2   -1    0    0  501    0  0.00000000000E+00  0.00000000000E+00  0.47220272367E+03  0.47220272368E+03  0.25500000000E-02 0.  1.
         -2   -1    0    0    0  501 -0.00000000000E+00 -0.00000000000E+00 -0.14032513143E+03  0.14032513145E+03  0.25500000000E-02 0. -1.
    5000001    1    1    2    0    0 -0.12830272604E+03 -0.10400433560E+03  0.34580474677E+03  0.40371823618E+03  0.12700000000E+03 0.  0.
   -5000001    1    1    2    0    0  0.12830272604E+03  0.10400433560E+03 -0.13927154529E+02  0.20880961895E+03  0.12700000000E+03 0.  0.
<mgrwt>
<rscale>  0 0.51482777E+03</rscale>
<asrwt>0</asrwt>
<pdfrwt beam="1">  1        2 0.67457533E-01 0.51482777E+03</pdfrwt>
<pdfrwt beam="2">  1       -2 0.20046447E-01 0.51482777E+03</pdfrwt>
<totfact> 0.15198053E+03</totfact>
</mgrwt>
</event>
<event>
 4    1  0.9032007E-005  0.4615980E+03  0.7818608E-02  0.1024319E+00
          2   -1    0    0  501    0  0.00000000000E+00  0.00000000000E+00  0.18182126975E+03  0.18182126976E+03  0.25500000000E-02 0.  1.
         -2   -1    0    0    0  501 -0.00000000000E+00 -0.00000000000E+00 -0.29296999488E+03  0.29296999489E+03  0.25500000000E-02 0. -1.
    5000001    1    1    2    0    0  0.79994600700E+02 -0.14617744564E+03  0.44002734428E+02  0.21408461503E+03  0.12700000000E+03 0.  0.
   -5000001    1    1    2    0    0 -0.79994600700E+02  0.14617744564E+03 -0.15515145956E+03  0.26070664962E+03  0.12700000000E+03 0.  0.
<mgrwt>
<rscale>  0 0.46159799E+03</rscale>
<asrwt>0</asrwt>
<pdfrwt beam="1">  1        2 0.25974467E-01 0.46159799E+03</pdfrwt>
<pdfrwt beam="2">  1       -2 0.41852856E-01 0.46159799E+03</pdfrwt>
<totfact> 0.11340213E+03</totfact>
</mgrwt>
</event>
<event>
 4    1  0.9032007E-005  0.5525862E+03  0.7818608E-02  0.1000897E+00
          2   -1    0    0  501    0  0.00000000000E+00  0.00000000000E+00  0.10732365422E+04  0.10732365422E+04  0.25500000000E-02 0.  1.
         -2   -1    0    0    0  501 -0.00000000000E+00 -0.00000000000E+00 -0.71128647452E+02  0.71128647498E+02  0.25500000000E-02 0. -1.
    5000001    1    1    2    0    0  0.80913612139E+01  0.23497173209E+03  0.35562126054E+03  0.44482880522E+03  0.12700000000E+03 0.  0.
   -5000001    1    1    2    0    0 -0.80913612139E+01 -0.23497173209E+03  0.64648663424E+03  0.69953638451E+03  0.12700000000E+03 0.  0.
<mgrwt>
<rscale>  0 0.55258615E+03</rscale>
<asrwt>0</asrwt>
<pdfrwt beam="1">  1        2 0.15331952E+00 0.55258615E+03</pdfrwt>
<pdfrwt beam="2">  1       -2 0.10161234E-01 0.55258615E+03</pdfrwt>
<totfact> 0.17037054E+03</totfact>
</mgrwt>
</event>
<event>
 4    1  0.9032007E-005  0.1069449E+04  0.7818608E-02  0.9235491E-01
         -2   -1    0    0    0  501 -0.00000000000E+00  0.00000000000E+00  0.18726557905E+03  0.18726557907E+03  0.25500000000E-02 0. -1.
          2   -1    0    0  501    0  0.00000000000E+00 -0.00000000000E+00 -0.15268713181E+04  0.15268713181E+04  0.25500000000E-02 0.  1.
    5000001    1    1    2    0    0  0.26250265190E+03 -0.36067078913E+03 -0.24328839314E+03  0.52374545594E+03  0.12700000000E+03 0.  0.
   -5000001    1    1    2    0    0 -0.26250265190E+03  0.36067078913E+03 -0.10963173459E+04  0.11903914412E+04  0.12700000000E+03 0.  0.
<mgrwt>
<rscale>  0 0.10694493E+04</rscale>
<asrwt>0</asrwt>
<pdfrwt beam="1">  1        2 0.21812447E+00 0.10694493E+04</pdfrwt>
<pdfrwt beam="2">  1       -2 0.26752226E-01 0.10694493E+04</pdfrwt>
<totfact> 0.17801822E+02</totfact>
</mgrwt>
</event>
<event>
 4    1  0.9032007E-005  0.5533875E+03  0.7818608E-02  0.1000713E+00
          2   -1    0    0  501    0  0.00000000000E+00  0.00000000000E+00  0.39604984496E+03  0.39604984497E+03  0.25500000000E-02 0.  1.
         -2   -1    0    0    0  501 -0.00000000000E+00 -0.00000000000E+00 -0.19330758851E+03  0.19330758852E+03  0.25500000000E-02 0. -1.
    5000001    1    1    2    0    0 -0.84599242392E+02  0.19531853819E+03 -0.29602494021E+02  0.24962305748E+03  0.12700000000E+03 0.  0.
   -5000001    1    1    2    0    0  0.84599242392E+02 -0.19531853819E+03  0.23234475047E+03  0.33973437601E+03  0.12700000000E+03 0.  0.
<mgrwt>
<rscale>  0 0.55338753E+03</rscale>
<asrwt>0</asrwt>
<pdfrwt beam="1">  1        2 0.56578549E-01 0.55338753E+03</pdfrwt>
<pdfrwt beam="2">  1       -2 0.27615370E-01 0.55338753E+03</pdfrwt>
<totfact> 0.10465774E+03</totfact>
</mgrwt>
</event>
<event>
 4    1  0.9032007E-005  0.5172989E+03  0.7818608E-02  0.1009360E+00
          2   -1    0    0  501    0  0.00000000000E+00  0.00000000000E+00  0.56482695583E+03  0.56482695584E+03  0.25500000000E-02 0.  1.
         -2   -1    0    0    0  501 -0.00000000000E+00 -0.00000000000E+00 -0.11844252551E+03  0.11844252553E+03  0.25500000000E-02 0. -1.
    5000001    1    1    2    0    0  0.53495926200E+02 -0.44924426718E+02  0.50614367978E+03  0.52648878698E+03  0.12700000000E+03 0.  0.
   -5000001    1    1    2    0    0 -0.53495926200E+02  0.44924426718E+02 -0.59759249458E+02  0.15678069438E+03  0.12700000000E+03 0.  0.
<mgrwt>
<rscale>  0 0.51729887E+03</rscale>
<asrwt>0</asrwt>
<pdfrwt beam="1">  1        2 0.80689566E-01 0.51729887E+03</pdfrwt>
<pdfrwt beam="2">  1       -2 0.16920361E-01 0.51729887E+03</pdfrwt>
<totfact> 0.16584522E+03</totfact>
</mgrwt>
</event>
<event>
 4    1  0.9032007E-005  0.2684699E+03  0.7818608E-02  0.1102158E+00
         -2   -1    0    0    0  501 -0.00000000000E+00  0.00000000000E+00  0.34951540369E+02  0.34951540462E+02  0.25500000000E-02 0. -1.
          2   -1    0    0  501    0  0.00000000000E+00 -0.00000000000E+00 -0.51554316802E+03  0.51554316803E+03  0.25500000000E-02 0.  1.
    5000001    1    1    2    0    0 -0.29212836088E+01 -0.42239407857E+02 -0.22006688855E+03  0.25758714430E+03  0.12700000000E+03 0.  0.
   -5000001    1    1    2    0    0  0.29212836088E+01  0.42239407857E+02 -0.26052473910E+03  0.29290756419E+03  0.12700000000E+03 0.  0.
<mgrwt>
<rscale>  0 0.26846995E+03</rscale>
<asrwt>0</asrwt>
<pdfrwt beam="1">  1        2 0.73649019E-01 0.26846995E+03</pdfrwt>
<pdfrwt beam="2">  1       -2 0.49930775E-02 0.26846995E+03</pdfrwt>
<totfact> 0.12731626E+04</totfact>
</mgrwt>
</event>
<event>
 4    1  0.9032007E-005  0.3832675E+03  0.7818608E-02  0.1049733E+00
         -2   -1    0    0    0  501 -0.00000000000E+00  0.00000000000E+00  0.20250882613E+02  0.20250882773E+02  0.25500000000E-02 0. -1.
          2   -1    0    0  501    0  0.00000000000E+00 -0.00000000000E+00 -0.18134269850E+04  0.18134269850E+04  0.25500000000E-02 0.  1.
    5000001    1    1    2    0    0 -0.38207348916E+02 -0.13705742618E+03 -0.80708687858E+03  0.82931463821E+03  0.12700000000E+03 0.  0.
   -5000001    1    1    2    0    0  0.38207348916E+02  0.13705742618E+03 -0.98608922380E+03  0.10043632296E+04  0.12700000000E+03 0.  0.
<mgrwt>
<rscale>  0 0.38326752E+03</rscale>
<asrwt>0</asrwt>
<pdfrwt beam="1">  1        2 0.25906090E+00 0.38326752E+03</pdfrwt>
<pdfrwt beam="2">  1       -2 0.28929844E-02 0.38326752E+03</pdfrwt>
<totfact> 0.48786501E+03</totfact>
</mgrwt>
</event>
<event>
 4    1  0.9032007E-005  0.3510142E+03  0.7818608E-02  0.1062200E+00
          2   -1    0    0  501    0  0.00000000000E+00  0.00000000000E+00  0.14502643940E+03  0.14502643942E+03  0.25500000000E-02 0.  1.
         -2   -1    0    0    0  501 -0.00000000000E+00 -0.00000000000E+00 -0.21239399761E+03  0.21239399762E+03  0.25500000000E-02 0. -1.
    5000001    1    1    2    0    0 -0.34830171735E+01 -0.66654792250E+02  0.69248979979E+02  0.15930917728E+03  0.12700000000E+03 0.  0.
   -5000001    1    1    2    0    0  0.34830171735E+01  0.66654792250E+02 -0.13661653819E+03  0.19811125976E+03  0.12700000000E+03 0.  0.
<mgrwt>
<rscale>  0 0.35101422E+03</rscale>
<asrwt>0</asrwt>
<pdfrwt beam="1">  1        2 0.20718063E-01 0.35101422E+03</pdfrwt>
<pdfrwt beam="2">  1       -2 0.30342000E-01 0.35101422E+03</pdfrwt>
<totfact> 0.26827762E+03</totfact>
</mgrwt>
</event>
<event>
 4    1  0.9032007E-005  0.4338931E+03  0.7818608E-02  0.1032637E+00
         -2   -1    0    0    0  501 -0.00000000000E+00  0.00000000000E+00  0.29026669985E+02  0.29026670097E+02  0.25500000000E-02 0. -1.
          2   -1    0    0  501    0  0.00000000000E+00 -0.00000000000E+00 -0.16214675670E+04  0.16214675670E+04  0.25500000000E-02 0.  1.
    5000001    1    1    2    0    0 -0.10149047101E+03 -0.81791185279E+02 -0.34699241001E+03  0.39181991565E+03  0.12700000000E+03 0.  0.
   -5000001    1    1    2    0    0  0.10149047101E+03  0.81791185279E+02 -0.12454484870E+04  0.12586743215E+04  0.12700000000E+03 0.  0.
<mgrwt>
<rscale>  0 0.43389309E+03</rscale>
<asrwt>0</asrwt>
<pdfrwt beam="1">  1        2 0.23163817E+00 0.43389309E+03</pdfrwt>
<pdfrwt beam="2">  1       -2 0.41466682E-02 0.43389309E+03</pdfrwt>
<totfact> 0.35295106E+03</totfact>
</mgrwt>
</event>
<event>
 4    1  0.9032007E-005  0.3680747E+03  0.7818608E-02  0.1055432E+00
          2   -1    0    0  501    0  0.00000000000E+00  0.00000000000E+00  0.19989908273E+04  0.19989908273E+04  0.25500000000E-02 0.  1.
         -2   -1    0    0    0  501 -0.00000000000E+00 -0.00000000000E+00 -0.16943423818E+02  0.16943424010E+02  0.25500000000E-02 0. -1.
    5000001    1    1    2    0    0 -0.11681401251E+03  0.58595756449E+02  0.85012894390E+03  0.86944073831E+03  0.12700000000E+03 0.  0.
   -5000001    1    1    2    0    0  0.11681401251E+03 -0.58595756449E+02  0.11319184596E+04  0.11464935130E+04  0.12700000000E+03 0.  0.
<mgrwt>
<rscale>  0 0.36807472E+03</rscale>
<asrwt>0</asrwt>
<pdfrwt beam="1">  1        2 0.28557031E+00 0.36807472E+03</pdfrwt>
<pdfrwt beam="2">  1       -2 0.24204875E-02 0.36807472E+03</pdfrwt>
<totfact> 0.51577923E+03</totfact>
</mgrwt>
</event>
<event>
 4    1  0.9032007E-005  0.5800520E+03  0.7818608E-02  0.9947678E-01
         -2   -1    0    0    0  501 -0.00000000000E+00  0.00000000000E+00  0.11016163733E+03  0.11016163735E+03  0.25500000000E-02 0. -1.
          2   -1    0    0  501    0  0.00000000000E+00 -0.00000000000E+00 -0.76356054083E+03  0.76356054084E+03  0.25500000000E-02 0.  1.
    5000001    1    1    2    0    0 -0.15767159101E+03 -0.19199515417E+03 -0.44591112220E+03  0.52601159563E+03  0.12700000000E+03 0.  0.
   -5000001    1    1    2    0    0  0.15767159101E+03  0.19199515417E+03 -0.20748778131E+03  0.34771058257E+03  0.12700000000E+03 0.  0.
<mgrwt>
<rscale>  0 0.58005200E+03</rscale>
<asrwt>0</asrwt>
<pdfrwt beam="1">  1        2 0.10908007E+00 0.58005200E+03</pdfrwt>
<pdfrwt beam="2">  1       -2 0.15737377E-01 0.58005200E+03</pdfrwt>
<totfact> 0.13052445E+03</totfact>
</mgrwt>
</event>
<event>
 4    1  0.9032007E-005  0.3592032E+03  0.7818608E-02  0.1058900E+00
          2   -1    0    0  501    0  0.00000000000E+00  0.00000000000E+00  0.45665849745E+02  0.45665849817E+02  0.25500000000E-02 0.  1.
         -2   -1    0    0    0  501 -0.00000000000E+00 -0.00000000000E+00 -0.70636455886E+03  0.70636455886E+03  0.25500000000E-02 0. -1.
    5000001    1    1    2    0    0  0.49352093506E+02  0.67602567557E+02 -0.13039067735E+03  0.20034087205E+03  0.12700000000E+03 0.  0.
   -5000001    1    1    2    0    0 -0.49352093506E+02 -0.67602567557E+02 -0.53030803176E+03  0.55168953663E+03  0.12700000000E+03 0.  0.
<mgrwt>
<rscale>  0 0.35920322E+03</rscale>
<asrwt>0</asrwt>
<pdfrwt beam="1">  1        2 0.65236933E-02 0.35920322E+03</pdfrwt>
<pdfrwt beam="2">  1       -2 0.10090922E+00 0.35920322E+03</pdfrwt>
<totfact> 0.93579974E+02</totfact>
</mgrwt>
</event>
<event>
 4    1  0.9032007E-005  0.5578109E+03  0.7818608E-02  0.9997020E-01
         -2   -1    0    0    0  501 -0.00000000000E+00  0.00000000000E+00  0.28601766950E+02  0.28601767063E+02  0.25500000000E-02 0. -1.
          2   -1    0    0  501    0  0.00000000000E+00 -0.00000000000E+00 -0.27197007038E+04  0.27197007038E+04  0.25500000000E-02 0.  1.
    5000001    1    1    2    0    0  0.23575016726E+03 -0.30079377760E+02 -0.99107190367E+03  0.10270518140E+04  0.12700000000E+03 0.  0.
   -5000001    1    1    2    0    0 -0.23575016726E+03  0.30079377760E+02 -0.17000270332E+04  0.17212506569E+04  0.12700000000E+03 0.  0.
<mgrwt>
<rscale>  0 0.55781089E+03</rscale>
<asrwt>0</asrwt>
<pdfrwt beam="1">  1        2 0.38852851E+00 0.55781089E+03</pdfrwt>
<pdfrwt beam="2">  1       -2 0.40859684E-02 0.55781089E+03</pdfrwt>
<totfact> 0.10011924E+03</totfact>
</mgrwt>
</event>
<event>
 4    1  0.9032007E-005  0.3492425E+03  0.7818608E-02  0.1062926E+00
          2   -1    0    0  501    0  0.00000000000E+00  0.00000000000E+00  0.83567216945E+03  0.83567216945E+03  0.25500000000E-02 0.  1.
         -2   -1    0    0    0  501 -0.00000000000E+00 -0.00000000000E+00 -0.36488679674E+02  0.36488679764E+02  0.25500000000E-02 0. -1.
    5000001    1    1    2    0    0 -0.96817841949E+02  0.64364811511E+02  0.32691018472E+03  0.36948043568E+03  0.12700000000E+03 0.  0.
   -5000001    1    1    2    0    0  0.96817841949E+02 -0.64364811511E+02  0.47227330505E+03  0.50268041353E+03  0.12700000000E+03 0.  0.
<mgrwt>
<rscale>  0 0.34924246E+03</rscale>
<asrwt>0</asrwt>
<pdfrwt beam="1">  1        2 0.11938174E+00 0.34924246E+03</pdfrwt>
<pdfrwt beam="2">  1       -2 0.52126686E-02 0.34924246E+03</pdfrwt>
<totfact> 0.68111447E+03</totfact>
</mgrwt>
</event>
<event>
 4    1  0.9032007E-005  0.4665768E+03  0.7818608E-02  0.1022891E+00
         -2   -1    0    0    0  501 -0.00000000000E+00  0.00000000000E+00  0.31702322723E+03  0.31702322724E+03  0.25500000000E-02 0. -1.
          2   -1    0    0  501    0  0.00000000000E+00 -0.00000000000E+00 -0.17167034311E+03  0.17167034313E+03  0.25500000000E-02 0.  1.
    5000001    1    1    2    0    0  0.19546327947E+03  0.27936139417E+01  0.82090734488E+02  0.24714689274E+03  0.12700000000E+03 0.  0.
   -5000001    1    1    2    0    0 -0.19546327947E+03 -0.27936139417E+01  0.63262149634E+02  0.24154667764E+03  0.12700000000E+03 0.  0.
<mgrwt>
<rscale>  0 0.46657684E+03</rscale>
<asrwt>0</asrwt>
<pdfrwt beam="1">  1        2 0.24524335E-01 0.46657684E+03</pdfrwt>
<pdfrwt beam="2">  1       -2 0.45289032E-01 0.46657684E+03</pdfrwt>
<totfact> 0.10368019E+03</totfact>
</mgrwt>
</event>
<event>
 4    1  0.9032007E-005  0.4062365E+03  0.7818608E-02  0.1041641E+00
         -2   -1    0    0    0  501 -0.00000000000E+00  0.00000000000E+00  0.43608878227E+02  0.43608878302E+02  0.25500000000E-02 0. -1.
          2   -1    0    0  501    0  0.00000000000E+00 -0.00000000000E+00 -0.94606951128E+03  0.94606951128E+03  0.25500000000E-02 0.  1.
    5000001    1    1    2    0    0 -0.14510373761E+03 -0.47503481972E+02 -0.55505854385E+03  0.58951731321E+03  0.12700000000E+03 0.  0.
   -5000001    1    1    2    0    0  0.14510373761E+03  0.47503481972E+02 -0.34740208920E+03  0.40016107638E+03  0.12700000000E+03 0.  0.
<mgrwt>
<rscale>  0 0.40623653E+03</rscale>
<asrwt>0</asrwt>
<pdfrwt beam="1">  1        2 0.13515277E+00 0.40623653E+03</pdfrwt>
<pdfrwt beam="2">  1       -2 0.62298403E-02 0.40623653E+03</pdfrwt>
<totfact> 0.44103527E+03</totfact>
</mgrwt>
</event>
<event>
 4    1  0.9032007E-005  0.3600258E+03  0.7818608E-02  0.1058574E+00
         -2   -1    0    0    0  501 -0.00000000000E+00  0.00000000000E+00  0.27933303678E+02  0.27933303795E+02  0.25500000000E-02 0. -1.
          2   -1    0    0  501    0  0.00000000000E+00 -0.00000000000E+00 -0.11600718320E+04  0.11600718320E+04  0.25500000000E-02 0.  1.
    5000001    1    1    2    0    0 -0.11462790476E+03  0.66125819827E+01 -0.38257204964E+03  0.41913441275E+03  0.12700000000E+03 0.  0.
   -5000001    1    1    2    0    0  0.11462790476E+03 -0.66125819827E+01 -0.74956647870E+03  0.76887072306E+03  0.12700000000E+03 0.  0.
<mgrwt>
<rscale>  0 0.36002577E+03</rscale>
<asrwt>0</asrwt>
<pdfrwt beam="1">  1        2 0.16572452E+00 0.36002577E+03</pdfrwt>
<pdfrwt beam="2">  1       -2 0.39904727E-02 0.36002577E+03</pdfrwt>
<totfact> 0.65362073E+03</totfact>
</mgrwt>
</event>
<event>
 4    1  0.9032007E-005  0.2916010E+03  0.7818608E-02  0.1089516E+00
         -2   -1    0    0    0  501 -0.00000000000E+00  0.00000000000E+00  0.12316739226E+03  0.12316739229E+03  0.25500000000E-02 0. -1.
          2   -1    0    0  501    0  0.00000000000E+00 -0.00000000000E+00 -0.17259265091E+03  0.17259265093E+03  0.25500000000E-02 0.  1.
    5000001    1    1    2    0    0  0.18932983169E+02 -0.65111412035E+02 -0.13442064030E+01  0.14397486142E+03  0.12700000000E+03 0.  0.
   -5000001    1    1    2    0    0 -0.18932983169E+02  0.65111412035E+02 -0.48081052249E+02  0.15178518180E+03  0.12700000000E+03 0.  0.
<mgrwt>
<rscale>  0 0.29160101E+03</rscale>
<asrwt>0</asrwt>
<pdfrwt beam="1">  1        2 0.24656093E-01 0.29160101E+03</pdfrwt>
<pdfrwt beam="2">  1       -2 0.17595342E-01 0.29160101E+03</pdfrwt>
<totfact> 0.56935625E+03</totfact>
</mgrwt>
</event>
<event>
 4    1  0.9032007E-005  0.3500264E+03  0.7818608E-02  0.1062604E+00
         -2   -1    0    0    0  501 -0.00000000000E+00  0.00000000000E+00  0.66672289377E+02  0.66672289426E+02  0.25500000000E-02 0. -1.
          2   -1    0    0  501    0  0.00000000000E+00 -0.00000000000E+00 -0.45940552528E+03  0.45940552529E+03  0.25500000000E-02 0.  1.
    5000001    1    1    2    0    0 -0.75161724111E+02 -0.89757138269E+02 -0.23874358745E+03  0.29467461579E+03  0.12700000000E+03 0.  0.
   -5000001    1    1    2    0    0  0.75161724111E+02  0.89757138269E+02 -0.15398964845E+03  0.23140319892E+03  0.12700000000E+03 0.  0.
<mgrwt>
<rscale>  0 0.35002639E+03</rscale>
<asrwt>0</asrwt>
<pdfrwt beam="1">  1        2 0.65629359E-01 0.35002639E+03</pdfrwt>
<pdfrwt beam="2">  1       -2 0.95246130E-02 0.35002639E+03</pdfrwt>
<totfact> 0.53552282E+03</totfact>
</mgrwt>
</event>
<event>
 4    1  0.9032007E-005  0.5591973E+03  0.7818608E-02  0.9993873E-01
          2   -1    0    0  501    0  0.00000000000E+00  0.00000000000E+00  0.29779661261E+04  0.29779661261E+04  0.25500000000E-02 0.  1.
         -2   -1    0    0    0  501 -0.00000000000E+00 -0.00000000000E+00 -0.26251272748E+02  0.26251272872E+02  0.25500000000E-02 0. -1.
    5000001    1    1    2    0    0 -0.11568461502E+03  0.21962740669E+03  0.15869075813E+04  0.16112181105E+04  0.12700000000E+03 0.  0.
   -5000001    1    1    2    0    0  0.11568461502E+03 -0.21962740669E+03  0.13648072721E+04  0.13929992885E+04  0.12700000000E+03 0.  0.
<mgrwt>
<rscale>  0 0.55919729E+03</rscale>
<asrwt>0</asrwt>
<pdfrwt beam="1">  1        2 0.42542352E+00 0.55919729E+03</pdfrwt>
<pdfrwt beam="2">  1       -2 0.37501837E-02 0.55919729E+03</pdfrwt>
<totfact> 0.83212941E+02</totfact>
</mgrwt>
</event>
<event>
 4    1  0.9032007E-005  0.3751226E+03  0.7818608E-02  0.1052751E+00
         -2   -1    0    0    0  501 -0.00000000000E+00  0.00000000000E+00  0.39821141975E+02  0.39821142057E+02  0.25500000000E-02 0. -1.
          2   -1    0    0  501    0  0.00000000000E+00 -0.00000000000E+00 -0.88343104040E+03  0.88343104040E+03  0.25500000000E-02 0.  1.
    5000001    1    1    2    0    0  0.53224734791E+02  0.24252904771E+02 -0.11411384285E+03  0.18047726980E+03  0.12700000000E+03 0.  0.
   -5000001    1    1    2    0    0 -0.53224734791E+02 -0.24252904771E+02 -0.72949605557E+03  0.74277491266E+03  0.12700000000E+03 0.  0.
<mgrwt>
<rscale>  0 0.37512256E+03</rscale>
<asrwt>0</asrwt>
<pdfrwt beam="1">  1        2 0.12620442E+00 0.37512256E+03</pdfrwt>
<pdfrwt beam="2">  1       -2 0.56887351E-02 0.37512256E+03</pdfrwt>
<totfact> 0.55517673E+03</totfact>
</mgrwt>
</event>
<event>
 4    1  0.9032007E-005  0.3842543E+03  0.7818608E-02  0.1049372E+00
         -2   -1    0    0    0  501 -0.00000000000E+00  0.00000000000E+00  0.70187863227E+02  0.70187863273E+02  0.25500000000E-02 0. -1.
          2   -1    0    0  501    0  0.00000000000E+00 -0.00000000000E+00 -0.52591486189E+03  0.52591486189E+03  0.25500000000E-02 0.  1.
    5000001    1    1    2    0    0 -0.12588324605E+03 -0.70261522685E+02 -0.22669515111E+03  0.29715814770E+03  0.12700000000E+03 0.  0.
   -5000001    1    1    2    0    0  0.12588324605E+03  0.70261522685E+02 -0.22903184755E+03  0.29894457747E+03  0.12700000000E+03 0.  0.
<mgrwt>
<rscale>  0 0.38425429E+03</rscale>
<asrwt>0</asrwt>
<pdfrwt beam="1">  1        2 0.75130693E-01 0.38425429E+03</pdfrwt>
<pdfrwt beam="2">  1       -2 0.10026838E-01 0.38425429E+03</pdfrwt>
<totfact> 0.42511335E+03</totfact>
</mgrwt>
</event>
<event>
 4    1  0.9032007E-005  0.4703405E+03  0.7818608E-02  0.1021824E+00
          2   -1    0    0  501    0  0.00000000000E+00  0.00000000000E+00  0.13754770679E+04  0.13754770679E+04  0.25500000000E-02 0.  1.
         -2   -1    0    0    0  501 -0.00000000000E+00 -0.00000000000E+00 -0.40207896550E+02  0.40207896631E+02  0.25500000000E-02 0. -1.
    5000001    1    1    2    0    0 -0.90133195300E+02  0.17346274890E+03  0.76102549812E+03  0.79592846848E+03  0.12700000000E+03 0.  0.
   -5000001    1    1    2    0    0  0.90133195300E+02 -0.17346274890E+03  0.57424367321E+03  0.61975649603E+03  0.12700000000E+03 0.  0.
<mgrwt>
<rscale>  0 0.47034047E+03</rscale>
<asrwt>0</asrwt>
<pdfrwt beam="1">  1        2 0.19649673E+00 0.47034047E+03</pdfrwt>
<pdfrwt beam="2">  1       -2 0.57439850E-02 0.47034047E+03</pdfrwt>
<totfact> 0.28627259E+03</totfact>
</mgrwt>
</event>
<event>
 4    1  0.9032007E-005  0.3326059E+03  0.7818608E-02  0.1069990E+00
          2   -1    0    0  501    0  0.00000000000E+00  0.00000000000E+00  0.19592927282E+04  0.19592927282E+04  0.25500000000E-02 0.  1.
         -2   -1    0    0    0  501 -0.00000000000E+00 -0.00000000000E+00 -0.14115643845E+02  0.14115644075E+02  0.25500000000E-02 0. -1.
    5000001    1    1    2    0    0  0.49556491840E+02  0.72170994360E+02  0.60381526220E+03  0.62320652209E+03  0.12700000000E+03 0.  0.
   -5000001    1    1    2    0    0 -0.49556491840E+02 -0.72170994360E+02  0.13413618222E+04  0.13502018502E+04  0.12700000000E+03 0.  0.
<mgrwt>
<rscale>  0 0.33260594E+03</rscale>
<asrwt>0</asrwt>
<pdfrwt beam="1">  1        2 0.27989931E+00 0.33260594E+03</pdfrwt>
<pdfrwt beam="2">  1       -2 0.20165180E-02 0.33260594E+03</pdfrwt>
<totfact> 0.70750940E+03</totfact>
</mgrwt>
</event>
<event>
 4    1  0.9032007E-005  0.3188264E+03  0.7818608E-02  0.1076191E+00
         -2   -1    0    0    0  501 -0.00000000000E+00  0.00000000000E+00  0.26913202080E+02  0.26913202201E+02  0.25500000000E-02 0. -1.
          2   -1    0    0  501    0  0.00000000000E+00 -0.00000000000E+00 -0.94424168975E+03  0.94424168975E+03  0.25500000000E-02 0.  1.
    5000001    1    1    2    0    0  0.28095655167E+02  0.65623897677E+02 -0.26154804764E+03  0.29938644427E+03  0.12700000000E+03 0.  0.
   -5000001    1    1    2    0    0 -0.28095655167E+02 -0.65623897677E+02 -0.65578044002E+03  0.67176844768E+03  0.12700000000E+03 0.  0.
<mgrwt>
<rscale>  0 0.31882639E+03</rscale>
<asrwt>0</asrwt>
<pdfrwt beam="1">  1        2 0.13489165E+00 0.31882639E+03</pdfrwt>
<pdfrwt beam="2">  1       -2 0.38447437E-02 0.31882639E+03</pdfrwt>
<totfact> 0.92080516E+03</totfact>
</mgrwt>
</event>
<event>
 4    1  0.9032007E-005  0.5373274E+03  0.7818608E-02  0.1004470E+00
         -2   -1    0    0    0  501 -0.00000000000E+00  0.00000000000E+00  0.22102021929E+03  0.22102021930E+03  0.25500000000E-02 0. -1.
          2   -1    0    0  501    0  0.00000000000E+00 -0.00000000000E+00 -0.32657725988E+03  0.32657725989E+03  0.25500000000E-02 0.  1.
    5000001    1    1    2    0    0 -0.18592893486E+03 -0.10154693789E+03 -0.16048596382E+03  0.29456084940E+03  0.12700000000E+03 0.  0.
   -5000001    1    1    2    0    0  0.18592893486E+03  0.10154693789E+03  0.54928923222E+02  0.25303662980E+03  0.12700000000E+03 0.  0.
<mgrwt>
<rscale>  0 0.53732738E+03</rscale>
<asrwt>0</asrwt>
<pdfrwt beam="1">  1        2 0.46653894E-01 0.53732738E+03</pdfrwt>
<pdfrwt beam="2">  1       -2 0.31574317E-01 0.53732738E+03</pdfrwt>
<totfact> 0.10121390E+03</totfact>
</mgrwt>
</event>
<event>
 4    1  0.9032007E-005  0.4277528E+03  0.7818608E-02  0.1034572E+00
          2   -1    0    0  501    0  0.00000000000E+00  0.00000000000E+00  0.15548692179E+03  0.15548692181E+03  0.25500000000E-02 0.  1.
         -2   -1    0    0    0  501 -0.00000000000E+00 -0.00000000000E+00 -0.29419267119E+03  0.29419267121E+03  0.25500000000E-02 0. -1.
    5000001    1    1    2    0    0  0.37538372233E+02 -0.14323577871E+03 -0.16153166382E+03  0.25327277017E+03  0.12700000000E+03 0.  0.
   -5000001    1    1    2    0    0 -0.37538372233E+02  0.14323577871E+03  0.22825914417E+02  0.19640682285E+03  0.12700000000E+03 0.  0.
<mgrwt>
<rscale>  0 0.42775279E+03</rscale>
<asrwt>0</asrwt>
<pdfrwt beam="1">  1        2 0.22212418E-01 0.42775279E+03</pdfrwt>
<pdfrwt beam="2">  1       -2 0.42027524E-01 0.42775279E+03</pdfrwt>
<totfact> 0.13436078E+03</totfact>
</mgrwt>
</event>
<event>
 4    1  0.9032007E-005  0.2744023E+03  0.7818608E-02  0.1098786E+00
         -2   -1    0    0    0  501 -0.00000000000E+00  0.00000000000E+00  0.10212177183E+02  0.10212177501E+02  0.25500000000E-02 0. -1.
          2   -1    0    0  501    0  0.00000000000E+00 -0.00000000000E+00 -0.18433045221E+04  0.18433045221E+04  0.25500000000E-02 0.  1.
    5000001    1    1    2    0    0 -0.10202344288E+02 -0.50879903302E+02 -0.90630145496E+03  0.91662652136E+03  0.12700000000E+03 0.  0.
   -5000001    1    1    2    0    0  0.10202344288E+02  0.50879903302E+02 -0.92679088996E+03  0.93689017825E+03  0.12700000000E+03 0.  0.
<mgrwt>
<rscale>  0 0.27440228E+03</rscale>
<asrwt>0</asrwt>
<pdfrwt beam="1">  1        2 0.26332901E+00 0.27440228E+03</pdfrwt>
<pdfrwt beam="2">  1       -2 0.14588837E-02 0.27440228E+03</pdfrwt>
<totfact> 0.12945805E+04</totfact>
</mgrwt>
</event>
<event>
 4    1  0.9032007E-005  0.3645412E+03  0.7818608E-02  0.1056800E+00
          2   -1    0    0  501    0  0.00000000000E+00  0.00000000000E+00  0.62402425893E+02  0.62402425945E+02  0.25500000000E-02 0.  1.
         -2   -1    0    0    0  501 -0.00000000000E+00 -0.00000000000E+00 -0.53239231112E+03  0.53239231113E+03  0.25500000000E-02 0. -1.
    5000001    1    1    2    0    0  0.47803566065E+02 -0.11083466380E+03 -0.31696798122E+03  0.36217013233E+03  0.12700000000E+03 0.  0.
   -5000001    1    1    2    0    0 -0.47803566065E+02  0.11083466380E+03 -0.15302190401E+03  0.23262460475E+03  0.12700000000E+03 0.  0.
<mgrwt>
<rscale>  0 0.36454120E+03</rscale>
<asrwt>0</asrwt>
<pdfrwt beam="1">  1        2 0.89146326E-02 0.36454120E+03</pdfrwt>
<pdfrwt beam="2">  1       -2 0.76056042E-01 0.36454120E+03</pdfrwt>
<totfact> 0.11875523E+03</totfact>
</mgrwt>
</event>
<event>
 4    1  0.9032007E-005  0.3079265E+03  0.7818608E-02  0.1081344E+00
          2   -1    0    0  501    0  0.00000000000E+00  0.00000000000E+00  0.53541421983E+03  0.53541421984E+03  0.25500000000E-02 0.  1.
         -2   -1    0    0    0  501 -0.00000000000E+00 -0.00000000000E+00 -0.44273548533E+02  0.44273548606E+02  0.25500000000E-02 0. -1.
    5000001    1    1    2    0    0  0.46619656607E+02  0.47193934961E+02  0.13949344625E+03  0.19997020135E+03  0.12700000000E+03 0.  0.
   -5000001    1    1    2    0    0 -0.46619656607E+02 -0.47193934961E+02  0.35164722504E+03  0.37971756709E+03  0.12700000000E+03 0.  0.
<mgrwt>
<rscale>  0 0.30792653E+03</rscale>
<asrwt>0</asrwt>
<pdfrwt beam="1">  1        2 0.76487744E-01 0.30792653E+03</pdfrwt>
<pdfrwt beam="2">  1       -2 0.63247928E-02 0.30792653E+03</pdfrwt>
<totfact> 0.85453457E+03</totfact>
</mgrwt>
</event>
<event>
 4    1  0.9032007E-005  0.4704757E+03  0.7818608E-02  0.1021786E+00
         -2   -1    0    0    0  501 -0.00000000000E+00  0.00000000000E+00  0.26503400712E+03  0.26503400713E+03  0.25500000000E-02 0. -1.
          2   -1    0    0  501    0  0.00000000000E+00 -0.00000000000E+00 -0.20879149957E+03  0.20879149959E+03  0.25500000000E-02 0.  1.
    5000001    1    1    2    0    0  0.18756169434E+03  0.30831498677E+02  0.83994883171E+02  0.24354488476E+03  0.12700000000E+03 0.  0.
   -5000001    1    1    2    0    0 -0.18756169434E+03 -0.30831498677E+02 -0.27752375627E+02  0.23028062196E+03  0.12700000000E+03 0.  0.
<mgrwt>
<rscale>  0 0.47047571E+03</rscale>
<asrwt>0</asrwt>
<pdfrwt beam="1">  1        2 0.29827357E-01 0.47047571E+03</pdfrwt>
<pdfrwt beam="2">  1       -2 0.37862001E-01 0.47047571E+03</pdfrwt>
<totfact> 0.11780502E+03</totfact>
</mgrwt>
</event>
<event>
 4    1  0.9032007E-005  0.3131094E+03  0.7818608E-02  0.1078865E+00
          2   -1    0    0  501    0  0.00000000000E+00  0.00000000000E+00  0.41724971534E+04  0.41724971534E+04  0.25500000000E-02 0.  1.
         -2   -1    0    0    0  501 -0.00000000000E+00 -0.00000000000E+00 -0.58740296669E+01  0.58740302204E+01  0.25500000000E-02 0. -1.
    5000001    1    1    2    0    0 -0.64558037118E+02  0.20347158867E+02  0.12608337351E+04  0.12690202735E+04  0.12700000000E+03 0.  0.
   -5000001    1    1    2    0    0  0.64558037118E+02 -0.20347158867E+02  0.29057893887E+04  0.29093509101E+04  0.12700000000E+03 0.  0.
<mgrwt>
<rscale>  0 0.31310939E+03</rscale>
<asrwt>0</asrwt>
<pdfrwt beam="1">  1        2 0.59606841E+00 0.31310939E+03</pdfrwt>
<pdfrwt beam="2">  1       -2 0.83915081E-03 0.31310939E+03</pdfrwt>
<totfact> 0.15177770E+03</totfact>
</mgrwt>
</event>
<event>
 4    1  0.9032007E-005  0.4095688E+03  0.7818608E-02  0.1040516E+00
         -2   -1    0    0    0  501 -0.00000000000E+00  0.00000000000E+00  0.10407468242E+02  0.10407468554E+02  0.25500000000E-02 0. -1.
          2   -1    0    0  501    0  0.00000000000E+00 -0.00000000000E+00 -0.40294772744E+04  0.40294772744E+04  0.25500000000E-02 0.  1.
    5000001    1    1    2    0    0  0.75017786755E+02 -0.97404063381E+02 -0.98958125948E+03  0.10052438953E+04  0.12700000000E+03 0.  0.
   -5000001    1    1    2    0    0 -0.75017786755E+02  0.97404063381E+02 -0.30294885467E+04  0.30346408477E+04  0.12700000000E+03 0.  0.
<mgrwt>
<rscale>  0 0.40956883E+03</rscale>
<asrwt>0</asrwt>
<pdfrwt beam="1">  1        2 0.57563861E+00 0.40956883E+03</pdfrwt>
<pdfrwt beam="2">  1       -2 0.14867838E-02 0.40956883E+03</pdfrwt>
<totfact> 0.80634445E+02</totfact>
</mgrwt>
</event>
<event>
 4    1  0.9032007E-005  0.4049142E+03  0.7818608E-02  0.1042091E+00
         -2   -1    0    0    0  501 -0.00000000000E+00  0.00000000000E+00  0.22480061278E+03  0.22480061279E+03  0.25500000000E-02 0. -1.
          2   -1    0    0  501    0  0.00000000000E+00 -0.00000000000E+00 -0.18233435985E+03  0.18233435987E+03  0.25500000000E-02 0.  1.
    5000001    1    1    2    0    0  0.65183315526E+02 -0.76307672522E+02 -0.10104037205E+03  0.19081373717E+03  0.12700000000E+03 0.  0.
   -5000001    1    1    2    0    0 -0.65183315526E+02  0.76307672522E+02  0.14350662498E+03  0.21632123549E+03  0.12700000000E+03 0.  0.
<mgrwt>
<rscale>  0 0.40491419E+03</rscale>
<asrwt>0</asrwt>
<pdfrwt beam="1">  1        2 0.26047766E-01 0.40491419E+03</pdfrwt>
<pdfrwt beam="2">  1       -2 0.32114373E-01 0.40491419E+03</pdfrwt>
<totfact> 0.18671323E+03</totfact>
</mgrwt>
</event>
<event>
 4    1  0.9032007E-005  0.6993602E+03  0.7818608E-02  0.9718327E-01
          2   -1    0    0  501    0  0.00000000000E+00  0.00000000000E+00  0.27590785047E+04  0.27590785047E+04  0.25500000000E-02 0.  1.
         -2   -1    0    0    0  501 -0.00000000000E+00 -0.00000000000E+00 -0.44317761822E+02  0.44317761895E+02  0.25500000000E-02 0. -1.
    5000001    1    1    2    0    0  0.12440871033E+03 -0.20692092248E+03  0.22342598477E+04  0.22508531410E+04  0.12700000000E+03 0.  0.
   -5000001    1    1    2    0    0 -0.12440871033E+03  0.20692092248E+03  0.48050089518E+03  0.55254312559E+03  0.12700000000E+03 0.  0.
<mgrwt>
<rscale>  0 0.69936023E+03</rscale>
<asrwt>0</asrwt>
<pdfrwt beam="1">  1        2 0.39415409E+00 0.69936023E+03</pdfrwt>
<pdfrwt beam="2">  1       -2 0.63311086E-02 0.69936023E+03</pdfrwt>
<totfact> 0.47745712E+02</totfact>
</mgrwt>
</event>
<event>
 4    1  0.9032007E-005  0.1346526E+04  0.7818608E-02  0.8993462E-01
         -2   -1    0    0    0  501 -0.00000000000E+00  0.00000000000E+00  0.20213967262E+03  0.20213967264E+03  0.25500000000E-02 0. -1.
          2   -1    0    0  501    0  0.00000000000E+00 -0.00000000000E+00 -0.22424250200E+04  0.22424250200E+04  0.25500000000E-02 0.  1.
    5000001    1    1    2    0    0 -0.55199689569E+03  0.44670047394E+02 -0.16758684794E+04  0.17695649596E+04  0.12700000000E+03 0.  0.
   -5000001    1    1    2    0    0  0.55199689569E+03 -0.44670047394E+02 -0.36441686805E+03  0.67499973311E+03  0.12700000000E+03 0.  0.
<mgrwt>
<rscale>  0 0.13465260E+04</rscale>
<asrwt>0</asrwt>
<pdfrwt beam="1">  1        2 0.32034642E+00 0.13465260E+04</pdfrwt>
<pdfrwt beam="2">  1       -2 0.28877097E-01 0.13465260E+04</pdfrwt>
<totfact> 0.64787493E+01</totfact>
</mgrwt>
</event>
<event>
 4    1  0.9032007E-005  0.4554231E+03  0.7818608E-02  0.1026117E+00
         -2   -1    0    0    0  501 -0.00000000000E+00  0.00000000000E+00  0.13564809332E+03  0.13564809335E+03  0.25500000000E-02 0. -1.
          2   -1    0    0  501    0  0.00000000000E+00 -0.00000000000E+00 -0.38225793862E+03  0.38225793863E+03  0.25500000000E-02 0.  1.
    5000001    1    1    2    0    0 -0.12873577939E+03 -0.80933014673E+02 -0.25095758476E+03  0.31973702180E+03  0.12700000000E+03 0.  0.
   -5000001    1    1    2    0    0  0.12873577939E+03  0.80933014673E+02  0.43477394588E+01  0.19816901018E+03  0.12700000000E+03 0.  0.
<mgrwt>
<rscale>  0 0.45542315E+03</rscale>
<asrwt>0</asrwt>
<pdfrwt beam="1">  1        2 0.54608277E-01 0.45542315E+03</pdfrwt>
<pdfrwt beam="2">  1       -2 0.19378299E-01 0.45542315E+03</pdfrwt>
<totfact> 0.20360674E+03</totfact>
</mgrwt>
</event>
<event>
 4    1  0.9032007E-005  0.4070537E+03  0.7818608E-02  0.1041364E+00
          2   -1    0    0  501    0  0.00000000000E+00  0.00000000000E+00  0.58431320456E+03  0.58431320456E+03  0.25500000000E-02 0.  1.
         -2   -1    0    0    0  501 -0.00000000000E+00 -0.00000000000E+00 -0.70892074286E+02  0.70892074332E+02  0.25500000000E-02 0. -1.
    5000001    1    1    2    0    0 -0.14609541746E+03 -0.43423453199E+02  0.32985057292E+03  0.38491540336E+03  0.12700000000E+03 0.  0.
   -5000001    1    1    2    0    0  0.14609541746E+03  0.43423453199E+02  0.18357055736E+03  0.27028987554E+03  0.12700000000E+03 0.  0.
<mgrwt>
<rscale>  0 0.40705368E+03</rscale>
<asrwt>0</asrwt>
<pdfrwt beam="1">  1        2 0.83473318E-01 0.40705368E+03</pdfrwt>
<pdfrwt beam="2">  1       -2 0.10127439E-01 0.40705368E+03</pdfrwt>
<totfact> 0.37139415E+03</totfact>
</mgrwt>
</event>
<event>
 4    1  0.9032007E-005  0.5094595E+03  0.7818608E-02  0.1011339E+00
          2   -1    0    0  501    0  0.00000000000E+00  0.00000000000E+00  0.32247742770E+03  0.32247742771E+03  0.25500000000E-02 0.  1.
         -2   -1    0    0    0  501 -0.00000000000E+00 -0.00000000000E+00 -0.20121488401E+03  0.20121488402E+03  0.25500000000E-02 0. -1.
    5000001    1    1    2    0    0  0.11776095888E+03  0.17958756843E+03  0.11343682628E+03  0.27407344221E+03  0.12700000000E+03 0.  0.
   -5000001    1    1    2    0    0 -0.11776095888E+03 -0.17958756843E+03  0.78257174110E+01  0.24961886952E+03  0.12700000000E+03 0.  0.
<mgrwt>
<rscale>  0 0.50945955E+03</rscale>
<asrwt>0</asrwt>
<pdfrwt beam="1">  1        2 0.46068204E-01 0.50945955E+03</pdfrwt>
<pdfrwt beam="2">  1       -2 0.28744984E-01 0.50945955E+03</pdfrwt>
<totfact> 0.12202247E+03</totfact>
</mgrwt>
</event>
<event>
 4    1  0.9032007E-005  0.3097053E+03  0.7818608E-02  0.1080487E+00
          2   -1    0    0  501    0  0.00000000000E+00  0.00000000000E+00  0.28637808517E+04  0.28637808517E+04  0.25500000000E-02 0.  1.
         -2   -1    0    0    0  501 -0.00000000000E+00 -0.00000000000E+00 -0.83733167505E+01  0.83733171388E+01  0.25500000000E-02 0. -1.
    5000001    1    1    2    0    0  0.68523578610E+02 -0.55723714833E+02  0.13623041904E+04  0.13710588319E+04  0.12700000000E+03 0.  0.
   -5000001    1    1    2    0    0 -0.68523578610E+02  0.55723714833E+02  0.14931033445E+04  0.15010953370E+04  0.12700000000E+03 0.  0.
<mgrwt>
<rscale>  0 0.30970531E+03</rscale>
<asrwt>0</asrwt>
<pdfrwt beam="1">  1        2 0.40911225E+00 0.30970531E+03</pdfrwt>
<pdfrwt beam="2">  1       -2 0.11961861E-02 0.30970531E+03</pdfrwt>
<totfact> 0.53710435E+03</totfact>
</mgrwt>
</event>
<event>
 4    1  0.9032007E-005  0.6110315E+03  0.7818608E-02  0.9882780E-01
          2   -1    0    0  501    0  0.00000000000E+00  0.00000000000E+00  0.14130556878E+04  0.14130556878E+04  0.25500000000E-02 0. -1.
         -2   -1    0    0    0  501 -0.00000000000E+00 -0.00000000000E+00 -0.66055342370E+02  0.66055342419E+02  0.25500000000E-02 0.  1.
    5000001    1    1    2    0    0 -0.14658828783E+03  0.21397539839E+03  0.43219261083E+03  0.51980097162E+03  0.12700000000E+03 0.  0.
   -5000001    1    1    2    0    0  0.14658828783E+03 -0.21397539839E+03  0.91480773460E+03  0.95931005860E+03  0.12700000000E+03 0.  0.
<mgrwt>
<rscale>  0 0.61103151E+03</rscale>
<asrwt>0</asrwt>
<pdfrwt beam="1">  1        2 0.20186509E+00 0.61103151E+03</pdfrwt>
<pdfrwt beam="2">  1       -2 0.94364780E-02 0.61103151E+03</pdfrwt>
<totfact> 0.12427936E+03</totfact>
</mgrwt>
</event>
<event>
 4    1  0.9032007E-005  0.3201581E+03  0.7818608E-02  0.1075577E+00
         -2   -1    0    0    0  501 -0.00000000000E+00  0.00000000000E+00  0.62334227603E+02  0.62334227655E+02  0.25500000000E-02 0. -1.
          2   -1    0    0  501    0  0.00000000000E+00 -0.00000000000E+00 -0.41109509728E+03  0.41109509729E+03  0.25500000000E-02 0.  1.
    5000001    1    1    2    0    0 -0.92474912392E+02 -0.29628074782E+02 -0.18647204384E+03  0.24562218013E+03  0.12700000000E+03 0.  0.
   -5000001    1    1    2    0    0  0.92474912392E+02  0.29628074782E+02 -0.16228882584E+03  0.22780714482E+03  0.12700000000E+03 0.  0.
<mgrwt>
<rscale>  0 0.32015806E+03</rscale>
<asrwt>0</asrwt>
<pdfrwt beam="1">  1        2 0.58727869E-01 0.32015806E+03</pdfrwt>
<pdfrwt beam="2">  1       -2 0.89048899E-02 0.32015806E+03</pdfrwt>
<totfact> 0.67130360E+03</totfact>
</mgrwt>
</event>
<event>
 4    1  0.9032007E-005  0.6618395E+03  0.7818608E-02  0.9784813E-01
         -2   -1    0    0    0  501 -0.00000000000E+00  0.00000000000E+00  0.13893397349E+03  0.13893397351E+03  0.25500000000E-02 0. -1.
          2   -1    0    0  501    0  0.00000000000E+00 -0.00000000000E+00 -0.78820096636E+03  0.78820096636E+03  0.25500000000E-02 0.  1.
    5000001    1    1    2    0    0 -0.25218882425E+03  0.13749831123E+03 -0.17855611331E+03  0.36127036173E+03  0.12700000000E+03 0.  0.
   -5000001    1    1    2    0    0  0.25218882425E+03 -0.13749831123E+03 -0.47071087956E+03  0.56586457815E+03  0.12700000000E+03 0.  0.
<mgrwt>
<rscale>  0 0.66183953E+03</rscale>
<asrwt>0</asrwt>
<pdfrwt beam="1">  1        2 0.11260014E+00 0.66183953E+03</pdfrwt>
<pdfrwt beam="2">  1       -2 0.19847711E-01 0.66183953E+03</pdfrwt>
<totfact> 0.84065893E+02</totfact>
</mgrwt>
</event>
<event>
 4    1  0.9032007E-005  0.4408696E+03  0.7818608E-02  0.1030480E+00
         -2   -1    0    0    0  501 -0.00000000000E+00  0.00000000000E+00  0.53416135162E+02  0.53416135223E+02  0.25500000000E-02 0. -1.
          2   -1    0    0  501    0  0.00000000000E+00 -0.00000000000E+00 -0.90967853080E+03  0.90967853081E+03  0.25500000000E-02 0.  1.
    5000001    1    1    2    0    0  0.42492614334E+02 -0.16779690874E+03 -0.31888077236E+03  0.38441562382E+03  0.12700000000E+03 0.  0.
   -5000001    1    1    2    0    0 -0.42492614334E+02  0.16779690874E+03 -0.53738162328E+03  0.57867904221E+03  0.12700000000E+03 0.  0.
<mgrwt>
<rscale>  0 0.44086965E+03</rscale>
<asrwt>0</asrwt>
<pdfrwt beam="1">  1        2 0.12995407E+00 0.44086965E+03</pdfrwt>
<pdfrwt beam="2">  1       -2 0.76308770E-02 0.44086965E+03</pdfrwt>
<totfact> 0.33860195E+03</totfact>
</mgrwt>
</event>
<event>
 4    1  0.9032007E-005  0.9857844E+03  0.7818608E-02  0.9324275E-01
         -2   -1    0    0    0  501 -0.00000000000E+00  0.00000000000E+00  0.36531543317E+03  0.36531543318E+03  0.25500000000E-02 0. -1.
          2   -1    0    0  501    0  0.00000000000E+00 -0.00000000000E+00 -0.66502177381E+03  0.66502177381E+03  0.25500000000E-02 0.  1.
    5000001    1    1    2    0    0  0.30516367710E+03 -0.33519111220E+03 -0.30252241724E+03  0.55957730873E+03  0.12700000000E+03 0.  0.
   -5000001    1    1    2    0    0 -0.30516367710E+03  0.33519111220E+03  0.28160766031E+01  0.47075989825E+03  0.12700000000E+03 0.  0.
<mgrwt>
<rscale>  0 0.98578439E+03</rscale>
<asrwt>0</asrwt>
<pdfrwt beam="1">  1        2 0.95003109E-01 0.98578439E+03</pdfrwt>
<pdfrwt beam="2">  1       -2 0.52187920E-01 0.98578439E+03</pdfrwt>
<totfact> 0.16598836E+02</totfact>
</mgrwt>
</event>
<event>
 4    1  0.9032007E-005  0.4400652E+03  0.7818608E-02  0.1030727E+00
         -2   -1    0    0    0  501 -0.00000000000E+00  0.00000000000E+00  0.18545743286E+02  0.18545743462E+02  0.25500000000E-02 0. -1.
          2   -1    0    0  501    0  0.00000000000E+00 -0.00000000000E+00 -0.26105370100E+04  0.26105370100E+04  0.25500000000E-02 0.  1.
    5000001    1    1    2    0    0  0.12991589952E+03 -0.77907408211E+02 -0.18733013691E+04  0.18837023981E+04  0.12700000000E+03 0.  0.
   -5000001    1    1    2    0    0 -0.12991589952E+03  0.77907408211E+02 -0.71868989763E+03  0.74538035537E+03  0.12700000000E+03 0.  0.
<mgrwt>
<rscale>  0 0.44006522E+03</rscale>
<asrwt>0</asrwt>
<pdfrwt beam="1">  1        2 0.37293362E+00 0.44006522E+03</pdfrwt>
<pdfrwt beam="2">  1       -2 0.26493936E-02 0.44006522E+03</pdfrwt>
<totfact> 0.22208471E+03</totfact>
</mgrwt>
</event>
<event>
 4    1  0.9032007E-005  0.8439794E+03  0.7818608E-02  0.9498453E-01
          2   -1    0    0  501    0  0.00000000000E+00  0.00000000000E+00  0.10406700344E+03  0.10406700347E+03  0.25500000000E-02 0.  1.
         -2   -1    0    0    0  501 -0.00000000000E+00 -0.00000000000E+00 -0.17111602328E+04  0.17111602328E+04  0.25500000000E-02 0. -1.
    5000001    1    1    2    0    0  0.27910873364E+03 -0.14388696877E+03 -0.13448518032E+04  0.13868527382E+04  0.12700000000E+03 0.  0.
   -5000001    1    1    2    0    0 -0.27910873364E+03  0.14388696877E+03 -0.26224142614E+03  0.42837449803E+03  0.12700000000E+03 0.  0.
<mgrwt>
<rscale>  0 0.84397943E+03</rscale>
<asrwt>0</asrwt>
<pdfrwt beam="1">  1        2 0.14866716E-01 0.84397943E+03</pdfrwt>
<pdfrwt beam="2">  1       -2 0.24445144E+00 0.84397943E+03</pdfrwt>
<totfact> 0.28734011E+01</totfact>
</mgrwt>
</event>
<event>
 4    1  0.9032007E-005  0.5881554E+03  0.7818608E-02  0.9930289E-01
         -2   -1    0    0    0  501 -0.00000000000E+00  0.00000000000E+00  0.20552272405E+02  0.20552272563E+02  0.25500000000E-02 0. -1.
          2   -1    0    0  501    0  0.00000000000E+00 -0.00000000000E+00 -0.42078899613E+04  0.42078899613E+04  0.25500000000E-02 0.  1.
    5000001    1    1    2    0    0 -0.99152206185E+02  0.23841187322E+03 -0.25298732697E+04  0.25461852136E+04  0.12700000000E+03 0.  0.
   -5000001    1    1    2    0    0  0.99152206185E+02 -0.23841187322E+03 -0.16574644192E+04  0.16822570202E+04  0.12700000000E+03 0.  0.
<mgrwt>
<rscale>  0 0.58815543E+03</rscale>
<asrwt>0</asrwt>
<pdfrwt beam="1">  1        2 0.60112659E+00 0.58815543E+03</pdfrwt>
<pdfrwt beam="2">  1       -2 0.29360416E-02 0.58815543E+03</pdfrwt>
<totfact> 0.21341817E+02</totfact>
</mgrwt>
</event>
<event>
 4    1  0.9032007E-005  0.5144889E+03  0.7818608E-02  0.1010065E+00
         -2   -1    0    0    0  501 -0.00000000000E+00  0.00000000000E+00  0.20949510498E+03  0.20949510500E+03  0.25500000000E-02 0.  1.
          2   -1    0    0  501    0  0.00000000000E+00 -0.00000000000E+00 -0.31587714291E+03  0.31587714292E+03  0.25500000000E-02 0. -1.
    5000001    1    1    2    0    0 -0.46099225674E+02 -0.59623209226E+02  0.16189615528E+03  0.21913336300E+03  0.12700000000E+03 0.  0.
   -5000001    1    1    2    0    0  0.46099225674E+02  0.59623209226E+02 -0.26827819321E+03  0.30623888492E+03  0.12700000000E+03 0.  0.
<mgrwt>
<rscale>  0 0.51448893E+03</rscale>
<asrwt>0</asrwt>
<pdfrwt beam="1">  1        2 0.45125306E-01 0.51448893E+03</pdfrwt>
<pdfrwt beam="2">  1       -2 0.29927872E-01 0.51448893E+03</pdfrwt>
<totfact> 0.11592439E+03</totfact>
</mgrwt>
</event>
<event>
 4    1  0.9032007E-005  0.4221050E+03  0.7818608E-02  0.1036383E+00
          2   -1    0    0  501    0  0.00000000000E+00  0.00000000000E+00  0.10872770644E+04  0.10872770644E+04  0.25500000000E-02 0.  1.
         -2   -1    0    0    0  501 -0.00000000000E+00 -0.00000000000E+00 -0.40967631168E+02  0.40967631247E+02  0.25500000000E-02 0. -1.
    5000001    1    1    2    0    0 -0.15091992165E+03  0.56866924590E+02  0.39211454272E+03  0.44259855905E+03  0.12700000000E+03 0.  0.
   -5000001    1    1    2    0    0  0.15091992165E+03 -0.56866924590E+02  0.65419489056E+03  0.68564613664E+03  0.12700000000E+03 0.  0.
<mgrwt>
<rscale>  0 0.42210504E+03</rscale>
<asrwt>0</asrwt>
<pdfrwt beam="1">  1        2 0.15532528E+00 0.42210504E+03</pdfrwt>
<pdfrwt beam="2">  1       -2 0.58525191E-02 0.42210504E+03</pdfrwt>
<totfact> 0.40046138E+03</totfact>
</mgrwt>
</event>
<event>
 4    1  0.9032007E-005  0.2656455E+03  0.7818608E-02  0.1103798E+00
         -2   -1    0    0    0  501 -0.00000000000E+00  0.00000000000E+00  0.15734554717E+02  0.15734554924E+02  0.25500000000E-02 0. -1.
          2   -1    0    0  501    0  0.00000000000E+00 -0.00000000000E+00 -0.11212189035E+04  0.11212189035E+04  0.25500000000E-02 0.  1.
    5000001    1    1    2    0    0  0.15381442091E+01  0.27638088628E+02 -0.43579252373E+03  0.45476406363E+03  0.12700000000E+03 0.  0.
   -5000001    1    1    2    0    0 -0.15381442091E+01 -0.27638088628E+02 -0.66969182508E+03  0.68218939482E+03  0.12700000000E+03 0.  0.
<mgrwt>
<rscale>  0 0.26564548E+03</rscale>
<asrwt>0</asrwt>
<pdfrwt beam="1">  1        2 0.16017408E+00 0.26564548E+03</pdfrwt>
<pdfrwt beam="2">  1       -2 0.22477943E-02 0.26564548E+03</pdfrwt>
<totfact> 0.16059446E+04</totfact>
</mgrwt>
</event>
<event>
 4    1  0.9032007E-005  0.3306942E+03  0.7818608E-02  0.1070830E+00
          2   -1    0    0  501    0  0.00000000000E+00  0.00000000000E+00  0.36230310246E+03  0.36230310246E+03  0.25500000000E-02 0.  1.
         -2   -1    0    0    0  501 -0.00000000000E+00 -0.00000000000E+00 -0.75460763432E+02  0.75460763475E+02  0.25500000000E-02 0. -1.
    5000001    1    1    2    0    0  0.44495749980E+02 -0.68327501708E+02  0.54008709050E+02  0.16029491542E+03  0.12700000000E+03 0.  0.
   -5000001    1    1    2    0    0 -0.44495749980E+02  0.68327501708E+02  0.23283362997E+03  0.27746895052E+03  0.12700000000E+03 0.  0.
<mgrwt>
<rscale>  0 0.33069423E+03</rscale>
<asrwt>0</asrwt>
<pdfrwt beam="1">  1        2 0.51757586E-01 0.33069423E+03</pdfrwt>
<pdfrwt beam="2">  1       -2 0.10780109E-01 0.33069423E+03</pdfrwt>
<totfact> 0.56850682E+03</totfact>
</mgrwt>
</event>
<event>
 4    1  0.9032007E-005  0.2838518E+03  0.7818608E-02  0.1093604E+00
         -2   -1    0    0    0  501 -0.00000000000E+00  0.00000000000E+00  0.42908727237E+02  0.42908727313E+02  0.25500000000E-02 0. -1.
          2   -1    0    0  501    0  0.00000000000E+00 -0.00000000000E+00 -0.46943744205E+03  0.46943744205E+03  0.25500000000E-02 0.  1.
    5000001    1    1    2    0    0  0.60149415086E+02  0.86667189951E+00 -0.24914937871E+03  0.28604740196E+03  0.12700000000E+03 0.  0.
   -5000001    1    1    2    0    0 -0.60149415086E+02 -0.86667189951E+00 -0.17737933610E+03  0.22629876741E+03  0.12700000000E+03 0.  0.
<mgrwt>
<rscale>  0 0.28385181E+03</rscale>
<asrwt>0</asrwt>
<pdfrwt beam="1">  1        2 0.67062489E-01 0.28385181E+03</pdfrwt>
<pdfrwt beam="2">  1       -2 0.61298185E-02 0.28385181E+03</pdfrwt>
<totfact> 0.10345680E+04</totfact>
</mgrwt>
</event>
<event>
 4    1  0.9032007E-005  0.3207554E+03  0.7818608E-02  0.1075302E+00
         -2   -1    0    0    0  501 -0.00000000000E+00  0.00000000000E+00  0.11019539907E+02  0.11019540202E+02  0.25500000000E-02 0. -1.
          2   -1    0    0  501    0  0.00000000000E+00 -0.00000000000E+00 -0.23341275039E+04  0.23341275039E+04  0.25500000000E-02 0.  1.
    5000001    1    1    2    0    0 -0.82440082118E+02 -0.13611822096E+01 -0.77510420388E+03  0.78975549813E+03  0.12700000000E+03 0.  0.
   -5000001    1    1    2    0    0  0.82440082118E+02  0.13611822096E+01 -0.15480037601E+04  0.15553915460E+04  0.12700000000E+03 0.  0.
<mgrwt>
<rscale>  0 0.32075543E+03</rscale>
<asrwt>0</asrwt>
<pdfrwt beam="1">  1        2 0.33344647E+00 0.32075543E+03</pdfrwt>
<pdfrwt beam="2">  1       -2 0.15742215E-02 0.32075543E+03</pdfrwt>
<totfact> 0.66646155E+03</totfact>
</mgrwt>
</event>
<event>
 4    1  0.9032007E-005  0.3967212E+03  0.7818608E-02  0.1044921E+00
          2   -1    0    0  501    0  0.00000000000E+00  0.00000000000E+00  0.71421963417E+03  0.71421963418E+03  0.25500000000E-02 0.  1.
         -2   -1    0    0    0  501 -0.00000000000E+00 -0.00000000000E+00 -0.55090786896E+02  0.55090786955E+02  0.25500000000E-02 0. -1.
    5000001    1    1    2    0    0 -0.11695494672E+03  0.92492627220E+02  0.26871718562E+03  0.33252258795E+03  0.12700000000E+03 0.  0.
   -5000001    1    1    2    0    0  0.11695494672E+03 -0.92492627220E+02  0.39041166166E+03  0.43678783318E+03  0.12700000000E+03 0.  0.
<mgrwt>
<rscale>  0 0.39672117E+03</rscale>
<asrwt>0</asrwt>
<pdfrwt beam="1">  1        2 0.10203138E+00 0.39672117E+03</pdfrwt>
<pdfrwt beam="2">  1       -2 0.78701125E-02 0.39672117E+03</pdfrwt>
<totfact> 0.43748429E+03</totfact>
</mgrwt>
</event>
<event>
 4    1  0.9032007E-005  0.3592861E+03  0.7818608E-02  0.1058867E+00
          2   -1    0    0  501    0  0.00000000000E+00  0.00000000000E+00  0.17458000241E+04  0.17458000241E+04  0.25500000000E-02 0.  1.
         -2   -1    0    0    0  501 -0.00000000000E+00 -0.00000000000E+00 -0.18485289172E+02  0.18485289348E+02  0.25500000000E-02 0. -1.
    5000001    1    1    2    0    0 -0.12639666426E+03  0.12695322205E+02  0.85231999656E+03  0.87104286030E+03  0.12700000000E+03 0.  0.
   -5000001    1    1    2    0    0  0.12639666426E+03 -0.12695322205E+02  0.87499473836E+03  0.89324245315E+03  0.12700000000E+03 0.  0.
<mgrwt>
<rscale>  0 0.35928606E+03</rscale>
<asrwt>0</asrwt>
<pdfrwt beam="1">  1        2 0.24939985E+00 0.35928606E+03</pdfrwt>
<pdfrwt beam="2">  1       -2 0.26407572E-02 0.35928606E+03</pdfrwt>
<totfact> 0.60412696E+03</totfact>
</mgrwt>
</event>
<event>
 4    1  0.9032007E-005  0.7236791E+03  0.7818608E-02  0.9677573E-01
          2   -1    0    0  501    0  0.00000000000E+00  0.00000000000E+00  0.38969988585E+04  0.38969988585E+04  0.25500000000E-02 0.  1.
         -2   -1    0    0    0  501 -0.00000000000E+00 -0.00000000000E+00 -0.33597101601E+02  0.33597101698E+02  0.25500000000E-02 0. -1.
    5000001    1    1    2    0    0  0.26798463646E+02 -0.28543763235E+03  0.29124582279E+04  0.29292891166E+04  0.12700000000E+03 0.  0.
   -5000001    1    1    2    0    0 -0.26798463646E+02  0.28543763235E+03  0.95094352905E+03  0.10013068436E+04  0.12700000000E+03 0.  0.
<mgrwt>
<rscale>  0 0.72367912E+03</rscale>
<asrwt>0</asrwt>
<pdfrwt beam="1">  1        2 0.55671414E+00 0.72367912E+03</pdfrwt>
<pdfrwt beam="2">  1       -2 0.47995858E-02 0.72367912E+03</pdfrwt>
<totfact> 0.15992861E+02</totfact>
</mgrwt>
</event>
<event>
 4    1  0.9032007E-005  0.6200579E+03  0.7818608E-02  0.9864644E-01
          2   -1    0    0  501    0  0.00000000000E+00  0.00000000000E+00  0.75705054642E+03  0.75705054643E+03  0.25500000000E-02 0.  1.
         -2   -1    0    0    0  501 -0.00000000000E+00 -0.00000000000E+00 -0.12696373480E+03  0.12696373482E+03  0.25500000000E-02 0. -1.
    5000001    1    1    2    0    0  0.19402098193E+03  0.90967146475E+02  0.51888297572E+02  0.25444166049E+03  0.12700000000E+03 0.  0.
   -5000001    1    1    2    0    0 -0.19402098193E+03 -0.90967146475E+02  0.57819851405E+03  0.62957262076E+03  0.12700000000E+03 0.  0.
<mgrwt>
<rscale>  0 0.62005795E+03</rscale>
<asrwt>0</asrwt>
<pdfrwt beam="1">  1        2 0.10815008E+00 0.62005795E+03</pdfrwt>
<pdfrwt beam="2">  1       -2 0.18137676E-01 0.62005795E+03</pdfrwt>
<totfact> 0.10349971E+03</totfact>
</mgrwt>
</event>
<event>
 4    1  0.9032007E-005  0.3820784E+03  0.7818608E-02  0.1050168E+00
          2   -1    0    0  501    0  0.00000000000E+00  0.00000000000E+00  0.14771541110E+04  0.14771541110E+04  0.25500000000E-02 0.  1.
         -2   -1    0    0    0  501 -0.00000000000E+00 -0.00000000000E+00 -0.24706951627E+02  0.24706951758E+02  0.25500000000E-02 0. -1.
    5000001    1    1    2    0    0  0.12308472827E+03 -0.66914118754E+02  0.83312494595E+03  0.85431465233E+03  0.12700000000E+03 0.  0.
   -5000001    1    1    2    0    0 -0.12308472827E+03  0.66914118754E+02  0.61932221346E+03  0.64754641047E+03  0.12700000000E+03 0.  0.
<mgrwt>
<rscale>  0 0.38207840E+03</rscale>
<asrwt>0</asrwt>
<pdfrwt beam="1">  1        2 0.21102204E+00 0.38207840E+03</pdfrwt>
<pdfrwt beam="2">  1       -2 0.35295641E-02 0.38207840E+03</pdfrwt>
<totfact> 0.53391125E+03</totfact>
</mgrwt>
</event>
<event>
 4    1  0.9032007E-005  0.3165340E+03  0.7818608E-02  0.1077256E+00
          2   -1    0    0  501    0  0.00000000000E+00  0.00000000000E+00  0.97610280659E+03  0.97610280659E+03  0.25500000000E-02 0.  1.
         -2   -1    0    0    0  501 -0.00000000000E+00 -0.00000000000E+00 -0.25661678650E+02  0.25661678777E+02  0.25500000000E-02 0. -1.
    5000001    1    1    2    0    0 -0.57457880284E+02 -0.73783074604E+02  0.43346369900E+03  0.46126470540E+03  0.12700000000E+03 0.  0.
   -5000001    1    1    2    0    0  0.57457880284E+02  0.73783074604E+02  0.51697742894E+03  0.54049977996E+03  0.12700000000E+03 0.  0.
<mgrwt>
<rscale>  0 0.31653396E+03</rscale>
<asrwt>0</asrwt>
<pdfrwt beam="1">  1        2 0.13944327E+00 0.31653396E+03</pdfrwt>
<pdfrwt beam="2">  1       -2 0.36659537E-02 0.31653396E+03</pdfrwt>
<totfact> 0.94601945E+03</totfact>
</mgrwt>
</event>
<event>
 4    1  0.9032007E-005  0.4164392E+03  0.7818608E-02  0.1038231E+00
         -2   -1    0    0    0  501 -0.00000000000E+00  0.00000000000E+00  0.72859923399E+02  0.72859923444E+02  0.25500000000E-02 0. -1.
          2   -1    0    0  501    0  0.00000000000E+00 -0.00000000000E+00 -0.59505149909E+03  0.59505149910E+03  0.25500000000E-02 0.  1.
    5000001    1    1    2    0    0  0.98360168007E+02  0.12319382271E+03 -0.18293373693E+03  0.27284646362E+03  0.12700000000E+03 0.  0.
   -5000001    1    1    2    0    0 -0.98360168007E+02 -0.12319382271E+03 -0.33925783876E+03  0.39506495892E+03  0.12700000000E+03 0.  0.
<mgrwt>
<rscale>  0 0.41643922E+03</rscale>
<asrwt>0</asrwt>
<pdfrwt beam="1">  1        2 0.85007355E-01 0.41643922E+03</pdfrwt>
<pdfrwt beam="2">  1       -2 0.10408561E-01 0.41643922E+03</pdfrwt>
<totfact> 0.34809716E+03</totfact>
</mgrwt>
</event>
<event>
 4    1  0.9032007E-005  0.6376140E+03  0.7818608E-02  0.9830302E-01
         -2   -1    0    0    0  501 -0.00000000000E+00  0.00000000000E+00  0.16595070939E+03  0.16595070941E+03  0.25500000000E-02 0. -1.
          2   -1    0    0  501    0  0.00000000000E+00 -0.00000000000E+00 -0.61245837857E+03  0.61245837858E+03  0.25500000000E-02 0.  1.
    5000001    1    1    2    0    0 -0.24512476257E+03 -0.83786180394E+02 -0.57642524593E+02  0.29420729748E+03  0.12700000000E+03 0.  0.
   -5000001    1    1    2    0    0  0.24512476257E+03  0.83786180394E+02 -0.38886514459E+03  0.48420179051E+03  0.12700000000E+03 0.  0.
<mgrwt>
<rscale>  0 0.63761400E+03</rscale>
<asrwt>0</asrwt>
<pdfrwt beam="1">  1        2 0.87494053E-01 0.63761400E+03</pdfrwt>
<pdfrwt beam="2">  1       -2 0.23707244E-01 0.63761400E+03</pdfrwt>
<totfact> 0.83774769E+02</totfact>
</mgrwt>
</event>
<event>
 4    1  0.9032007E-005  0.6242890E+03  0.7818608E-02  0.9856257E-01
          2   -1    0    0  501    0  0.00000000000E+00  0.00000000000E+00  0.58028828671E+03  0.58028828671E+03  0.25500000000E-02 0.  1.
         -2   -1    0    0    0  501 -0.00000000000E+00 -0.00000000000E+00 -0.16790652887E+03  0.16790652889E+03  0.25500000000E-02 0. -1.
    5000001    1    1    2    0    0  0.51190540715E+02  0.19697317931E+03  0.44554494563E+03  0.50602193965E+03  0.12700000000E+03 0.  0.
   -5000001    1    1    2    0    0 -0.51190540715E+02 -0.19697317931E+03 -0.33163187798E+02  0.24217287596E+03  0.12700000000E+03 0.  0.
<mgrwt>
<rscale>  0 0.62428901E+03</rscale>
<asrwt>0</asrwt>
<pdfrwt beam="1">  1        2 0.82898326E-01 0.62428901E+03</pdfrwt>
<pdfrwt beam="2">  1       -2 0.23986647E-01 0.62428901E+03</pdfrwt>
<totfact> 0.87440083E+02</totfact>
</mgrwt>
</event>
<event>
 4    1  0.9032007E-005  0.2982950E+03  0.7818608E-02  0.1086096E+00
         -2   -1    0    0    0  501 -0.00000000000E+00  0.00000000000E+00  0.31040833514E+02  0.31040833619E+02  0.25500000000E-02 0. -1.
          2   -1    0    0  501    0  0.00000000000E+00 -0.00000000000E+00 -0.71663592783E+03  0.71663592783E+03  0.25500000000E-02 0.  1.
    5000001    1    1    2    0    0  0.67817134678E+02  0.29044912405E+02 -0.27776333864E+03  0.31420414222E+03  0.12700000000E+03 0.  0.
   -5000001    1    1    2    0    0 -0.67817134678E+02 -0.29044912405E+02 -0.40783175567E+03  0.43347261923E+03  0.12700000000E+03 0.  0.
<mgrwt>
<rscale>  0 0.29829500E+03</rscale>
<asrwt>0</asrwt>
<pdfrwt beam="1">  1        2 0.10237655E+00 0.29829500E+03</pdfrwt>
<pdfrwt beam="2">  1       -2 0.44344052E-02 0.29829500E+03</pdfrwt>
<totfact> 0.10483168E+04</totfact>
</mgrwt>
</event>
<event>
 4    1  0.9032007E-005  0.3397756E+03  0.7818608E-02  0.1066892E+00
          2   -1    0    0  501    0  0.00000000000E+00  0.00000000000E+00  0.12090096604E+03  0.12090096606E+03  0.25500000000E-02 0.  1.
         -2   -1    0    0    0  501 -0.00000000000E+00 -0.00000000000E+00 -0.23872324519E+03  0.23872324520E+03  0.25500000000E-02 0. -1.
    5000001    1    1    2    0    0 -0.57219717887E+02  0.37685518553E+02 -0.15380678022E+03  0.21090239464E+03  0.12700000000E+03 0.  0.
   -5000001    1    1    2    0    0  0.57219717887E+02 -0.37685518553E+02  0.35984501067E+02  0.14872181663E+03  0.12700000000E+03 0.  0.
<mgrwt>
<rscale>  0 0.33977564E+03</rscale>
<asrwt>0</asrwt>
<pdfrwt beam="1">  1        2 0.17271567E-01 0.33977564E+03</pdfrwt>
<pdfrwt beam="2">  1       -2 0.34103321E-01 0.33977564E+03</pdfrwt>
<totfact> 0.26686601E+03</totfact>
</mgrwt>
</event>
<event>
 4    1  0.9032007E-005  0.3245706E+03  0.7818608E-02  0.1073565E+00
          2   -1    0    0  501    0  0.00000000000E+00  0.00000000000E+00  0.53174954651E+03  0.53174954652E+03  0.25500000000E-02 0.  1.
         -2   -1    0    0    0  501 -0.00000000000E+00 -0.00000000000E+00 -0.49528057101E+02  0.49528057166E+02  0.25500000000E-02 0. -1.
    5000001    1    1    2    0    0  0.49497455104E+02  0.82462503437E+02  0.29652666697E+03  0.33661123980E+03  0.12700000000E+03 0.  0.
   -5000001    1    1    2    0    0 -0.49497455104E+02 -0.82462503437E+02  0.18569482244E+03  0.24466636388E+03  0.12700000000E+03 0.  0.
<mgrwt>
<rscale>  0 0.32457062E+03</rscale>
<asrwt>0</asrwt>
<pdfrwt beam="1">  1        2 0.75964227E-01 0.32457062E+03</pdfrwt>
<pdfrwt beam="2">  1       -2 0.70754362E-02 0.32457062E+03</pdfrwt>
<totfact> 0.72499343E+03</totfact>
</mgrwt>
</event>
<event>
 4    1  0.9032007E-005  0.3764261E+03  0.7818608E-02  0.1052263E+00
         -2   -1    0    0    0  501 -0.00000000000E+00  0.00000000000E+00  0.44252782485E+02  0.44252782559E+02  0.25500000000E-02 0. -1.
          2   -1    0    0  501    0  0.00000000000E+00 -0.00000000000E+00 -0.80049534891E+03  0.80049534892E+03  0.25500000000E-02 0.  1.
    5000001    1    1    2    0    0  0.76649739315E+02  0.98857377788E+02 -0.51364843706E+03  0.54370183058E+03  0.12700000000E+03 0.  0.
   -5000001    1    1    2    0    0 -0.76649739315E+02 -0.98857377788E+02 -0.24259412937E+03  0.30104630090E+03  0.12700000000E+03 0.  0.
<mgrwt>
<rscale>  0 0.37642607E+03</rscale>
<asrwt>0</asrwt>
<pdfrwt beam="1">  1        2 0.11435647E+00 0.37642607E+03</pdfrwt>
<pdfrwt beam="2">  1       -2 0.63218266E-02 0.37642607E+03</pdfrwt>
<totfact> 0.53490589E+03</totfact>
</mgrwt>
</event>
<event>
 4    1  0.9032007E-005  0.3966191E+03  0.7818608E-02  0.1044957E+00
         -2   -1    0    0    0  501 -0.00000000000E+00  0.00000000000E+00  0.22043057168E+02  0.22043057316E+02  0.25500000000E-02 0. -1.
          2   -1    0    0  501    0  0.00000000000E+00 -0.00000000000E+00 -0.17840847383E+04  0.17840847383E+04  0.25500000000E-02 0.  1.
    5000001    1    1    2    0    0  0.10636461988E+03 -0.10851204958E+03 -0.83339384219E+03  0.85659943583E+03  0.12700000000E+03 0.  0.
   -5000001    1    1    2    0    0 -0.10636461988E+03  0.10851204958E+03 -0.92864783891E+03  0.94952835976E+03  0.12700000000E+03 0.  0.
<mgrwt>
<rscale>  0 0.39661912E+03</rscale>
<asrwt>0</asrwt>
<pdfrwt beam="1">  1        2 0.25486916E+00 0.39661912E+03</pdfrwt>
<pdfrwt beam="2">  1       -2 0.31490093E-02 0.39661912E+03</pdfrwt>
<totfact> 0.44409409E+03</totfact>
</mgrwt>
</event>
<event>
 4    1  0.9032007E-005  0.3358901E+03  0.7818608E-02  0.1068560E+00
         -2   -1    0    0    0  501 -0.00000000000E+00  0.00000000000E+00  0.16841493042E+03  0.16841493044E+03  0.25500000000E-02 0. -1.
          2   -1    0    0  501    0  0.00000000000E+00 -0.00000000000E+00 -0.16747652252E+03  0.16747652254E+03  0.25500000000E-02 0.  1.
    5000001    1    1    2    0    0 -0.10557419708E+03 -0.30347278101E+02  0.35802475052E+01  0.16795441807E+03  0.12700000000E+03 0.  0.
   -5000001    1    1    2    0    0  0.10557419708E+03  0.30347278101E+02 -0.26418396020E+01  0.16793703491E+03  0.12700000000E+03 0.  0.
<mgrwt>
<rscale>  0 0.33589014E+03</rscale>
<asrwt>0</asrwt>
<pdfrwt beam="1">  1        2 0.23925217E-01 0.33589014E+03</pdfrwt>
<pdfrwt beam="2">  1       -2 0.24059276E-01 0.33589014E+03</pdfrwt>
<totfact> 0.34502230E+03</totfact>
</mgrwt>
</event>
<event>
 4    1  0.9032007E-005  0.4926920E+03  0.7818608E-02  0.1015704E+00
         -2   -1    0    0    0  501 -0.00000000000E+00  0.00000000000E+00  0.15104357177E+03  0.15104357179E+03  0.25500000000E-02 0. -1.
          2   -1    0    0  501    0  0.00000000000E+00 -0.00000000000E+00 -0.40178037629E+03  0.40178037630E+03  0.25500000000E-02 0.  1.
    5000001    1    1    2    0    0  0.18709273171E+03  0.15880615403E+02 -0.17153541675E+02  0.22733043834E+03  0.12700000000E+03 0.  0.
   -5000001    1    1    2    0    0 -0.18709273171E+03 -0.15880615403E+02 -0.23358326285E+03  0.32549350975E+03  0.12700000000E+03 0.  0.
<mgrwt>
<rscale>  0 0.49269197E+03</rscale>
<asrwt>0</asrwt>
<pdfrwt beam="1">  1        2 0.57397196E-01 0.49269197E+03</pdfrwt>
<pdfrwt beam="2">  1       -2 0.21577653E-01 0.49269197E+03</pdfrwt>
<totfact> 0.15997551E+03</totfact>
</mgrwt>
</event>
<event>
 4    1  0.9032007E-005  0.4389759E+03  0.7818608E-02  0.1031061E+00
         -2   -1    0    0    0  501 -0.00000000000E+00  0.00000000000E+00  0.95873219945E+02  0.95873219979E+02  0.25500000000E-02 0. -1.
          2   -1    0    0  501    0  0.00000000000E+00 -0.00000000000E+00 -0.50248610878E+03  0.50248610879E+03  0.25500000000E-02 0.  1.
    5000001    1    1    2    0    0  0.15376922395E+02 -0.17108089055E+03 -0.13459800641E+03  0.25248909715E+03  0.12700000000E+03 0.  0.
   -5000001    1    1    2    0    0 -0.15376922395E+02  0.17108089055E+03 -0.27201488243E+03  0.34587023161E+03  0.12700000000E+03 0.  0.
<mgrwt>
<rscale>  0 0.43897590E+03</rscale>
<asrwt>0</asrwt>
<pdfrwt beam="1">  1        2 0.71783728E-01 0.43897590E+03</pdfrwt>
<pdfrwt beam="2">  1       -2 0.13696175E-01 0.43897590E+03</pdfrwt>
<totfact> 0.26989283E+03</totfact>
</mgrwt>
</event>
<event>
 4    1  0.9032007E-005  0.3924505E+03  0.7818608E-02  0.1046426E+00
          2   -1    0    0  501    0  0.00000000000E+00  0.00000000000E+00  0.60607002432E+03  0.60607002432E+03  0.25500000000E-02 0.  1.
         -2   -1    0    0    0  501 -0.00000000000E+00 -0.00000000000E+00 -0.63531204270E+02  0.63531204321E+02  0.25500000000E-02 0. -1.
    5000001    1    1    2    0    0 -0.75801517613E+02  0.12804700632E+03  0.24520003067E+03  0.31367811677E+03  0.12700000000E+03 0.  0.
   -5000001    1    1    2    0    0  0.75801517613E+02 -0.12804700632E+03  0.29733878938E+03  0.35592311188E+03  0.12700000000E+03 0.  0.
<mgrwt>
<rscale>  0 0.39245055E+03</rscale>
<asrwt>0</asrwt>
<pdfrwt beam="1">  1        2 0.86581429E-01 0.39245055E+03</pdfrwt>
<pdfrwt beam="2">  1       -2 0.90758866E-02 0.39245055E+03</pdfrwt>
<totfact> 0.42397328E+03</totfact>
</mgrwt>
</event>
<event>
 4    1  0.9032007E-005  0.3090589E+03  0.7818608E-02  0.1080798E+00
         -2   -1    0    0    0  501 -0.00000000000E+00  0.00000000000E+00  0.15754171365E+02  0.15754171571E+02  0.25500000000E-02 0. -1.
          2   -1    0    0  501    0  0.00000000000E+00 -0.00000000000E+00 -0.15157481163E+04  0.15157481163E+04  0.25500000000E-02 0.  1.
    5000001    1    1    2    0    0  0.63321308307E+02  0.89078313395E+01 -0.10498448773E+04  0.10594301317E+04  0.12700000000E+03 0.  0.
   -5000001    1    1    2    0    0 -0.63321308307E+02 -0.89078313395E+01 -0.45014906756E+03  0.47207215610E+03  0.12700000000E+03 0.  0.
<mgrwt>
<rscale>  0 0.30905893E+03</rscale>
<asrwt>0</asrwt>
<pdfrwt beam="1">  1        2 0.21653535E+00 0.30905893E+03</pdfrwt>
<pdfrwt beam="2">  1       -2 0.22505969E-02 0.30905893E+03</pdfrwt>
<totfact> 0.99717338E+03</totfact>
</mgrwt>
</event>
<event>
 4    1  0.9032007E-005  0.4421020E+03  0.7818608E-02  0.1030104E+00
         -2   -1    0    0    0  501 -0.00000000000E+00  0.00000000000E+00  0.19178411283E+02  0.19178411452E+02  0.25500000000E-02 0. -1.
          2   -1    0    0  501    0  0.00000000000E+00 -0.00000000000E+00 -0.25478410124E+04  0.25478410124E+04  0.25500000000E-02 0.  1.
    5000001    1    1    2    0    0 -0.38305178988E+02 -0.16592930920E+03 -0.90948870807E+03  0.93396923530E+03  0.12700000000E+03 0.  0.
   -5000001    1    1    2    0    0  0.38305178988E+02  0.16592930920E+03 -0.16191738930E+04  0.16330501885E+04  0.12700000000E+03 0.  0.
<mgrwt>
<rscale>  0 0.44210199E+03</rscale>
<asrwt>0</asrwt>
<pdfrwt beam="1">  1        2 0.36397707E+00 0.44210199E+03</pdfrwt>
<pdfrwt beam="2">  1       -2 0.27397747E-02 0.44210199E+03</pdfrwt>
<totfact> 0.22731581E+03</totfact>
</mgrwt>
</event>
<event>
 4    1  0.9032007E-005  0.3032834E+03  0.7818608E-02  0.1083611E+00
          2   -1    0    0  501    0  0.00000000000E+00  0.00000000000E+00  0.61022669786E+03  0.61022669787E+03  0.25500000000E-02 0.  1.
         -2   -1    0    0    0  501 -0.00000000000E+00 -0.00000000000E+00 -0.37683050544E+02  0.37683050630E+02  0.25500000000E-02 0. -1.
    5000001    1    1    2    0    0  0.74145499177E+02 -0.16513531410E+02  0.35699497583E+03  0.38645137409E+03  0.12700000000E+03 0.  0.
   -5000001    1    1    2    0    0 -0.74145499177E+02  0.16513531410E+02  0.21554867149E+03  0.26145837441E+03  0.12700000000E+03 0.  0.
<mgrwt>
<rscale>  0 0.30328339E+03</rscale>
<asrwt>0</asrwt>
<pdfrwt beam="1">  1        2 0.87175244E-01 0.30328339E+03</pdfrwt>
<pdfrwt beam="2">  1       -2 0.53832928E-02 0.30328339E+03</pdfrwt>
<totfact> 0.94299847E+03</totfact>
</mgrwt>
</event>
<event>
 4    1  0.9032007E-005  0.4657743E+03  0.7818608E-02  0.1023120E+00
          2   -1    0    0  501    0  0.00000000000E+00  0.00000000000E+00  0.20595885828E+03  0.20595885830E+03  0.25500000000E-02 0.  1.
         -2   -1    0    0    0  501 -0.00000000000E+00 -0.00000000000E+00 -0.26333619309E+03  0.26333619311E+03  0.25500000000E-02 0. -1.
    5000001    1    1    2    0    0 -0.85893284617E+02  0.80881938733E+02 -0.18538879258E+03  0.25380612437E+03  0.12700000000E+03 0.  0.
   -5000001    1    1    2    0    0  0.85893284617E+02 -0.80881938733E+02  0.12801145777E+03  0.21548892704E+03  0.12700000000E+03 0.  0.
<mgrwt>
<rscale>  0 0.46577429E+03</rscale>
<asrwt>0</asrwt>
<pdfrwt beam="1">  1        2 0.29422694E-01 0.46577429E+03</pdfrwt>
<pdfrwt beam="2">  1       -2 0.37619456E-01 0.46577429E+03</pdfrwt>
<totfact> 0.12108891E+03</totfact>
</mgrwt>
</event>
<event>
 4    1  0.9032007E-005  0.3333619E+03  0.7818608E-02  0.1069659E+00
          2   -1    0    0  501    0  0.00000000000E+00  0.00000000000E+00  0.40629040081E+03  0.40629040082E+03  0.25500000000E-02 0.  1.
         -2   -1    0    0    0  501 -0.00000000000E+00 -0.00000000000E+00 -0.68380977568E+02  0.68380977616E+02  0.25500000000E-02 0. -1.
    5000001    1    1    2    0    0 -0.61084602944E+02 -0.33981934056E+01  0.42311058096E+02  0.14718050847E+03  0.12700000000E+03 0.  0.
   -5000001    1    1    2    0    0  0.61084602944E+02  0.33981934056E+01  0.29559836515E+03  0.32749086997E+03  0.12700000000E+03 0.  0.
<mgrwt>
<rscale>  0 0.33336187E+03</rscale>
<asrwt>0</asrwt>
<pdfrwt beam="1">  1        2 0.58041484E-01 0.33336187E+03</pdfrwt>
<pdfrwt beam="2">  1       -2 0.97687115E-02 0.33336187E+03</pdfrwt>
<totfact> 0.58774896E+03</totfact>
</mgrwt>
</event>
<event>
 4    1  0.9032007E-005  0.7559582E+03  0.7818608E-02  0.9626049E-01
         -2   -1    0    0    0  501 -0.00000000000E+00  0.00000000000E+00  0.68219087490E+03  0.68219087490E+03  0.25500000000E-02 0. -1.
          2   -1    0    0  501    0  0.00000000000E+00 -0.00000000000E+00 -0.20942557172E+03  0.20942557174E+03  0.25500000000E-02 0.  1.
    5000001    1    1    2    0    0 -0.26521975324E+03  0.22919031765E+03  0.16301452988E+03  0.40690595494E+03  0.12700000000E+03 0.  0.
   -5000001    1    1    2    0    0  0.26521975324E+03 -0.22919031765E+03  0.30975077329E+03  0.48471049170E+03  0.12700000000E+03 0.  0.
<mgrwt>
<rscale>  0 0.75595824E+03</rscale>
<asrwt>0</asrwt>
<pdfrwt beam="1">  1        2 0.29917939E-01 0.75595824E+03</pdfrwt>
<pdfrwt beam="2">  1       -2 0.97455840E-01 0.75595824E+03</pdfrwt>
<totfact> 0.15805544E+02</totfact>
</mgrwt>
</event>
<event>
 4    1  0.9032007E-005  0.3902177E+03  0.7818608E-02  0.1047221E+00
          2   -1    0    0  501    0  0.00000000000E+00  0.00000000000E+00  0.91661024043E+03  0.91661024043E+03  0.25500000000E-02 0.  1.
         -2   -1    0    0    0  501 -0.00000000000E+00 -0.00000000000E+00 -0.41530702912E+02  0.41530702990E+02  0.25500000000E-02 0. -1.
    5000001    1    1    2    0    0  0.92166822951E+02 -0.11276207539E+03  0.50381097620E+03  0.53959661659E+03  0.12700000000E+03 0.  0.
   -5000001    1    1    2    0    0 -0.92166822951E+02  0.11276207539E+03  0.37126856131E+03  0.41854432683E+03  0.12700000000E+03 0.  0.
<mgrwt>
<rscale>  0 0.39021772E+03</rscale>
<asrwt>0</asrwt>
<pdfrwt beam="1">  1        2 0.13094430E+00 0.39021772E+03</pdfrwt>
<pdfrwt beam="2">  1       -2 0.59329585E-02 0.39021772E+03</pdfrwt>
<totfact> 0.49598326E+03</totfact>
</mgrwt>
</event>
<event>
 4    1  0.9032007E-005  0.4413454E+03  0.7818608E-02  0.1030335E+00
         -2   -1    0    0    0  501 -0.00000000000E+00  0.00000000000E+00  0.56755082355E+02  0.56755082412E+02  0.25500000000E-02 0. -1.
          2   -1    0    0  501    0  0.00000000000E+00 -0.00000000000E+00 -0.85801021060E+03  0.85801021061E+03  0.25500000000E-02 0.  1.
    5000001    1    1    2    0    0 -0.17611755600E+03 -0.32043926264E+02 -0.35321659567E+03  0.41585474651E+03  0.12700000000E+03 0.  0.
   -5000001    1    1    2    0    0  0.17611755600E+03  0.32043926264E+02 -0.44803853258E+03  0.49891054651E+03  0.12700000000E+03 0.  0.
<mgrwt>
<rscale>  0 0.44134540E+03</rscale>
<asrwt>0</asrwt>
<pdfrwt beam="1">  1        2 0.12257288E+00 0.44134540E+03</pdfrwt>
<pdfrwt beam="2">  1       -2 0.81078694E-02 0.44134540E+03</pdfrwt>
<totfact> 0.33220162E+03</totfact>
</mgrwt>
</event>
<event>
 4    1  0.9032007E-005  0.2639192E+03  0.7818608E-02  0.1104811E+00
          2   -1    0    0  501    0  0.00000000000E+00  0.00000000000E+00  0.15202497612E+03  0.15202497614E+03  0.25500000000E-02 0.  1.
         -2   -1    0    0    0  501 -0.00000000000E+00 -0.00000000000E+00 -0.11454255692E+03  0.11454255695E+03  0.25500000000E-02 0. -1.
    5000001    1    1    2    0    0 -0.29227497401E+02 -0.41267029814E+01 -0.17864457099E+01  0.13039734533E+03  0.12700000000E+03 0.  0.
   -5000001    1    1    2    0    0  0.29227497401E+02  0.41267029814E+01  0.39268864910E+02  0.13617018775E+03  0.12700000000E+03 0.  0.
<mgrwt>
<rscale>  0 0.26391915E+03</rscale>
<asrwt>0</asrwt>
<pdfrwt beam="1">  1        2 0.21717854E-01 0.26391915E+03</pdfrwt>
<pdfrwt beam="2">  1       -2 0.16363222E-01 0.26391915E+03</pdfrwt>
<totfact> 0.73899644E+03</totfact>
</mgrwt>
</event>
<event>
 4    1  0.9032007E-005  0.5056748E+03  0.7818608E-02  0.1012308E+00
          2   -1    0    0  501    0  0.00000000000E+00  0.00000000000E+00  0.27925733798E+03  0.27925733800E+03  0.25500000000E-02 0.  1.
         -2   -1    0    0    0  501 -0.00000000000E+00 -0.00000000000E+00 -0.22891703316E+03  0.22891703318E+03  0.25500000000E-02 0. -1.
    5000001    1    1    2    0    0 -0.15007816979E+03  0.61720435108E+02 -0.12206305289E+03  0.23950210445E+03  0.12700000000E+03 0.  0.
   -5000001    1    1    2    0    0  0.15007816979E+03 -0.61720435108E+02  0.17240335771E+03  0.26867226672E+03  0.12700000000E+03 0.  0.
<mgrwt>
<rscale>  0 0.50567484E+03</rscale>
<asrwt>0</asrwt>
<pdfrwt beam="1">  1        2 0.39893906E-01 0.50567484E+03</pdfrwt>
<pdfrwt beam="2">  1       -2 0.32702433E-01 0.50567484E+03</pdfrwt>
<totfact> 0.11261219E+03</totfact>
</mgrwt>
</event>
<event>
 4    1  0.9032007E-005  0.7753841E+03  0.7818608E-02  0.9596347E-01
          2   -1    0    0  501    0  0.00000000000E+00  0.00000000000E+00  0.89059039780E+03  0.89059039780E+03  0.25500000000E-02 0.  1.
         -2   -1    0    0    0  501 -0.00000000000E+00 -0.00000000000E+00 -0.16877020275E+03  0.16877020277E+03  0.25500000000E-02 0. -1.
    5000001    1    1    2    0    0  0.99304598872E+02  0.29106325120E+03  0.89042444705E+02  0.34443689773E+03  0.12700000000E+03 0.  0.
   -5000001    1    1    2    0    0 -0.99304598872E+02 -0.29106325120E+03  0.63277775034E+03  0.71492370284E+03  0.12700000000E+03 0.  0.
<mgrwt>
<rscale>  0 0.77538409E+03</rscale>
<asrwt>0</asrwt>
<pdfrwt beam="1">  1        2 0.12722720E+00 0.77538409E+03</pdfrwt>
<pdfrwt beam="2">  1       -2 0.24110029E-01 0.77538409E+03</pdfrwt>
<totfact> 0.50620847E+02</totfact>
</mgrwt>
</event>
<event>
 4    1  0.9032007E-005  0.1292524E+04  0.7818608E-02  0.9035515E-01
          2   -1    0    0  501    0  0.00000000000E+00  0.00000000000E+00  0.13896830890E+04  0.13896830890E+04  0.25500000000E-02 0.  1.
         -2   -1    0    0    0  501 -0.00000000000E+00 -0.00000000000E+00 -0.30053921437E+03  0.30053921438E+03  0.25500000000E-02 0. -1.
    5000001    1    1    2    0    0 -0.26978149776E+03  0.30664223317E+03 -0.88968933347E+02  0.43687067514E+03  0.12700000000E+03 0.  0.
   -5000001    1    1    2    0    0  0.26978149776E+03 -0.30664223317E+03  0.11781128080E+04  0.12533516283E+04  0.12700000000E+03 0.  0.
<mgrwt>
<rscale>  0 0.12925235E+04</rscale>
<asrwt>0</asrwt>
<pdfrwt beam="1">  1        2 0.19852616E+00 0.12925235E+04</pdfrwt>
<pdfrwt beam="2">  1       -2 0.42934172E-01 0.12925235E+04</pdfrwt>
<totfact> 0.84534024E+01</totfact>
</mgrwt>
</event>
<event>
 4    1  0.9032007E-005  0.3249493E+03  0.7818608E-02  0.1073394E+00
          2   -1    0    0  501    0  0.00000000000E+00  0.00000000000E+00  0.21588057897E+03  0.21588057899E+03  0.25500000000E-02 0.  1.
         -2   -1    0    0    0  501 -0.00000000000E+00 -0.00000000000E+00 -0.12228064544E+03  0.12228064547E+03  0.25500000000E-02 0. -1.
    5000001    1    1    2    0    0  0.20536567906E+02  0.98531149727E+02  0.59063782079E+02  0.17247512412E+03  0.12700000000E+03 0.  0.
   -5000001    1    1    2    0    0 -0.20536567906E+02 -0.98531149727E+02  0.34536151450E+02  0.16568610034E+03  0.12700000000E+03 0.  0.
<mgrwt>
<rscale>  0 0.32494933E+03</rscale>
<asrwt>0</asrwt>
<pdfrwt beam="1">  1        2 0.30840083E-01 0.32494933E+03</pdfrwt>
<pdfrwt beam="2">  1       -2 0.17468664E-01 0.32494933E+03</pdfrwt>
<totfact> 0.45106342E+03</totfact>
</mgrwt>
</event>
<event>
 4    1  0.9032007E-005  0.7182510E+03  0.7818608E-02  0.9686520E-01
          2   -1    0    0  501    0  0.00000000000E+00  0.00000000000E+00  0.69301605336E+03  0.69301605337E+03  0.25500000000E-02 0.  1.
         -2   -1    0    0    0  501 -0.00000000000E+00 -0.00000000000E+00 -0.18610123018E+03  0.18610123019E+03  0.25500000000E-02 0. -1.
    5000001    1    1    2    0    0 -0.56391094429E+02  0.32471800831E+03  0.33297209626E+03  0.48540823782E+03  0.12700000000E+03 0.  0.
   -5000001    1    1    2    0    0  0.56391094429E+02 -0.32471800831E+03  0.17394272692E+03  0.39370904574E+03  0.12700000000E+03 0.  0.
<mgrwt>
<rscale>  0 0.71825104E+03</rscale>
<asrwt>0</asrwt>
<pdfrwt beam="1">  1        2 0.99002293E-01 0.71825104E+03</pdfrwt>
<pdfrwt beam="2">  1       -2 0.26585890E-01 0.71825104E+03</pdfrwt>
<totfact> 0.58613458E+02</totfact>
</mgrwt>
</event>
<event>
 4    1  0.9032007E-005  0.4757759E+03  0.7818608E-02  0.1020303E+00
          2   -1    0    0  501    0  0.00000000000E+00  0.00000000000E+00  0.13115024781E+04  0.13115024781E+04  0.25500000000E-02 0. -1.
         -2   -1    0    0    0  501 -0.00000000000E+00 -0.00000000000E+00 -0.43149493567E+02  0.43149493642E+02  0.25500000000E-02 0.  1.
    5000001    1    1    2    0    0 -0.31869257421E+02 -0.18250505354E+03  0.41110911060E+03  0.46846925721E+03  0.12700000000E+03 0.  0.
   -5000001    1    1    2    0    0  0.31869257421E+02  0.18250505354E+03  0.85724387397E+03  0.88618271457E+03  0.12700000000E+03 0.  0.
<mgrwt>
<rscale>  0 0.47577586E+03</rscale>
<asrwt>0</asrwt>
<pdfrwt beam="1">  1        2 0.18735748E+00 0.47577586E+03</pdfrwt>
<pdfrwt beam="2">  1       -2 0.61642138E-02 0.47577586E+03</pdfrwt>
<totfact> 0.27742305E+03</totfact>
</mgrwt>
</event>
<event>
 4    1  0.9032007E-005  0.2026945E+04  0.7818608E-02  0.8594126E-01
          2   -1    0    0  501    0  0.00000000000E+00  0.00000000000E+00  0.75422695082E+03  0.75422695082E+03  0.25500000000E-02 0.  1.
         -2   -1    0    0    0  501 -0.00000000000E+00 -0.00000000000E+00 -0.13618269435E+04  0.13618269435E+04  0.25500000000E-02 0. -1.
    5000001    1    1    2    0    0  0.68534136603E+03 -0.46297758825E+03 -0.90073873553E+03  0.12294308866E+04  0.12700000000E+03 0.  0.
   -5000001    1    1    2    0    0 -0.68534136603E+03  0.46297758825E+03  0.29313874289E+03  0.88662300770E+03  0.12700000000E+03 0.  0.
<mgrwt>
<rscale>  0 0.20269451E+04</rscale>
<asrwt>0</asrwt>
<pdfrwt beam="1">  1        2 0.10774671E+00 0.20269451E+04</pdfrwt>
<pdfrwt beam="2">  1       -2 0.19454670E+00 0.20269451E+04</pdfrwt>
<totfact> 0.55091879E+00</totfact>
</mgrwt>
</event>
<event>
 4    1  0.9032007E-005  0.5436620E+03  0.7818608E-02  0.1002972E+00
         -2   -1    0    0    0  501 -0.00000000000E+00  0.00000000000E+00  0.16573323956E+03  0.16573323958E+03  0.25500000000E-02 0.  1.
          2   -1    0    0  501    0  0.00000000000E+00 -0.00000000000E+00 -0.44584955449E+03  0.44584955449E+03  0.25500000000E-02 0. -1.
    5000001    1    1    2    0    0 -0.23602681641E+03 -0.32394910543E+02 -0.10439581162E+03  0.28945737817E+03  0.12700000000E+03 0.  0.
   -5000001    1    1    2    0    0  0.23602681641E+03  0.32394910543E+02 -0.17572050331E+03  0.32212541591E+03  0.12700000000E+03 0.  0.
<mgrwt>
<rscale>  0 0.54366199E+03</rscale>
<asrwt>0</asrwt>
<pdfrwt beam="1">  1        2 0.63692793E-01 0.54366199E+03</pdfrwt>
<pdfrwt beam="2">  1       -2 0.23676177E-01 0.54366199E+03</pdfrwt>
<totfact> 0.12099412E+03</totfact>
</mgrwt>
</event>
<event>
 4    1  0.9032007E-005  0.3637526E+03  0.7818608E-02  0.1057108E+00
         -2   -1    0    0    0  501 -0.00000000000E+00  0.00000000000E+00  0.10390318721E+03  0.10390318724E+03  0.25500000000E-02 0. -1.
          2   -1    0    0  501    0  0.00000000000E+00 -0.00000000000E+00 -0.31836349014E+03  0.31836349015E+03  0.25500000000E-02 0.  1.
    5000001    1    1    2    0    0  0.19433083771E+02 -0.12431608579E+03 -0.68417616272E+02  0.19142127402E+03  0.12700000000E+03 0.  0.
   -5000001    1    1    2    0    0 -0.19433083771E+02  0.12431608579E+03 -0.14604268666E+03  0.23084540337E+03  0.12700000000E+03 0.  0.
<mgrwt>
<rscale>  0 0.36375256E+03</rscale>
<asrwt>0</asrwt>
<pdfrwt beam="1">  1        2 0.45480498E-01 0.36375256E+03</pdfrwt>
<pdfrwt beam="2">  1       -2 0.14843313E-01 0.36375256E+03</pdfrwt>
<totfact> 0.38891697E+03</totfact>
</mgrwt>
</event>
<event>
 4    1  0.9032007E-005  0.3413276E+03  0.7818608E-02  0.1066232E+00
         -2   -1    0    0    0  501 -0.00000000000E+00  0.00000000000E+00  0.33642966181E+03  0.33642966182E+03  0.25500000000E-02 0. -1.
          2   -1    0    0  501    0  0.00000000000E+00 -0.00000000000E+00 -0.86574214652E+02  0.86574214690E+02  0.25500000000E-02 0.  1.
    5000001    1    1    2    0    0 -0.60484267225E+02 -0.90286411284E+02  0.16762753290E+03  0.23672340913E+03  0.12700000000E+03 0.  0.
   -5000001    1    1    2    0    0  0.60484267225E+02  0.90286411284E+02  0.82227914259E+02  0.18628046738E+03  0.12700000000E+03 0.  0.
<mgrwt>
<rscale>  0 0.34132761E+03</rscale>
<asrwt>0</asrwt>
<pdfrwt beam="1">  1        2 0.12367745E-01 0.34132761E+03</pdfrwt>
<pdfrwt beam="2">  1       -2 0.48061381E-01 0.34132761E+03</pdfrwt>
<totfact> 0.20569301E+03</totfact>
</mgrwt>
</event>
<event>
 4    1  0.9032007E-005  0.3444691E+03  0.7818608E-02  0.1064908E+00
         -2   -1    0    0    0  501 -0.00000000000E+00  0.00000000000E+00  0.13802486165E+02  0.13802486400E+02  0.25500000000E-02 0. -1.
          2   -1    0    0  501    0  0.00000000000E+00 -0.00000000000E+00 -0.21492315478E+04  0.21492315478E+04  0.25500000000E-02 0.  1.
    5000001    1    1    2    0    0 -0.82111479765E+02 -0.70821755535E+02 -0.80295895687E+03  0.82014029445E+03  0.12700000000E+03 0.  0.
   -5000001    1    1    2    0    0  0.82111479765E+02  0.70821755535E+02 -0.13324701048E+04  0.13428937398E+04  0.12700000000E+03 0.  0.
<mgrwt>
<rscale>  0 0.34446909E+03</rscale>
<asrwt>0</asrwt>
<pdfrwt beam="1">  1        2 0.30703286E+00 0.34446909E+03</pdfrwt>
<pdfrwt beam="2">  1       -2 0.19717851E-02 0.34446909E+03</pdfrwt>
<totfact> 0.58991954E+03</totfact>
</mgrwt>
</event>
<event>
 4    1  0.9032007E-005  0.3276671E+03  0.7818608E-02  0.1072174E+00
         -2   -1    0    0    0  501 -0.00000000000E+00  0.00000000000E+00  0.22276391876E+02  0.22276392022E+02  0.25500000000E-02 0. -1.
          2   -1    0    0  501    0  0.00000000000E+00 -0.00000000000E+00 -0.12049270463E+04  0.12049270463E+04  0.25500000000E-02 0.  1.
    5000001    1    1    2    0    0 -0.10298356698E+03  0.84334125345E+01 -0.61369990545E+03  0.63516400359E+03  0.12700000000E+03 0.  0.
   -5000001    1    1    2    0    0  0.10298356698E+03 -0.84334125345E+01 -0.56895074893E+03  0.59203943468E+03  0.12700000000E+03 0.  0.
<mgrwt>
<rscale>  0 0.32766707E+03</rscale>
<asrwt>0</asrwt>
<pdfrwt beam="1">  1        2 0.17213239E+00 0.32766707E+03</pdfrwt>
<pdfrwt beam="2">  1       -2 0.31823425E-02 0.32766707E+03</pdfrwt>
<totfact> 0.86681309E+03</totfact>
</mgrwt>
</event>
<event>
 4    1  0.9032007E-005  0.3236864E+03  0.7818608E-02  0.1073965E+00
          2   -1    0    0  501    0  0.00000000000E+00  0.00000000000E+00  0.20833857326E+03  0.20833857327E+03  0.25500000000E-02 0.  1.
         -2   -1    0    0    0  501 -0.00000000000E+00 -0.00000000000E+00 -0.12572428763E+03  0.12572428765E+03  0.25500000000E-02 0. -1.
    5000001    1    1    2    0    0 -0.76739069021E+02  0.51686814726E+02  0.81329240108E+02  0.17692895983E+03  0.12700000000E+03 0.  0.
   -5000001    1    1    2    0    0  0.76739069021E+02 -0.51686814726E+02  0.12850455214E+01  0.15713390109E+03  0.12700000000E+03 0.  0.
<mgrwt>
<rscale>  0 0.32368638E+03</rscale>
<asrwt>0</asrwt>
<pdfrwt beam="1">  1        2 0.29762653E-01 0.32368638E+03</pdfrwt>
<pdfrwt beam="2">  1       -2 0.17960613E-01 0.32368638E+03</pdfrwt>
<totfact> 0.44753421E+03</totfact>
</mgrwt>
</event>
<event>
 4    1  0.9032007E-005  0.3193354E+03  0.7818608E-02  0.1075956E+00
          2   -1    0    0  501    0  0.00000000000E+00  0.00000000000E+00  0.73795326349E+03  0.73795326349E+03  0.25500000000E-02 0.  1.
         -2   -1    0    0    0  501 -0.00000000000E+00 -0.00000000000E+00 -0.34546587066E+02  0.34546587160E+02  0.25500000000E-02 0. -1.
    5000001    1    1    2    0    0 -0.81003000934E+02  0.33441577542E+02  0.25240458164E+03  0.29583255078E+03  0.12700000000E+03 0.  0.
   -5000001    1    1    2    0    0  0.81003000934E+02 -0.33441577542E+02  0.45100209479E+03  0.47666729987E+03  0.12700000000E+03 0.  0.
<mgrwt>
<rscale>  0 0.31933535E+03</rscale>
<asrwt>0</asrwt>
<pdfrwt beam="1">  1        2 0.10542189E+00 0.31933535E+03</pdfrwt>
<pdfrwt beam="2">  1       -2 0.49352269E-02 0.31933535E+03</pdfrwt>
<totfact> 0.86197388E+03</totfact>
</mgrwt>
</event>
<event>
 4    1  0.9032007E-005  0.4212835E+03  0.7818608E-02  0.1036649E+00
          2   -1    0    0  501    0  0.00000000000E+00  0.00000000000E+00  0.12610205078E+04  0.12610205078E+04  0.25500000000E-02 0.  1.
         -2   -1    0    0    0  501 -0.00000000000E+00 -0.00000000000E+00 -0.35185739745E+02  0.35185739837E+02  0.25500000000E-02 0. -1.
    5000001    1    1    2    0    0 -0.55175252318E+02 -0.15229727187E+03  0.75059089421E+03  0.77830229214E+03  0.12700000000E+03 0.  0.
   -5000001    1    1    2    0    0  0.55175252318E+02  0.15229727187E+03  0.47524387381E+03  0.51790395546E+03  0.12700000000E+03 0.  0.
<mgrwt>
<rscale>  0 0.42128346E+03</rscale>
<asrwt>0</asrwt>
<pdfrwt beam="1">  1        2 0.18014570E+00 0.42128346E+03</pdfrwt>
<pdfrwt beam="2">  1       -2 0.50265367E-02 0.42128346E+03</pdfrwt>
<totfact> 0.40511266E+03</totfact>
</mgrwt>
</event>
<event>
 4    1  0.9032007E-005  0.3710824E+03  0.7818608E-02  0.1054280E+00
          2   -1    0    0  501    0  0.00000000000E+00  0.00000000000E+00  0.21504215453E+02  0.21504215604E+02  0.25500000000E-02 0.  1.
         -2   -1    0    0    0  501 -0.00000000000E+00 -0.00000000000E+00 -0.16008740642E+04  0.16008740642E+04  0.25500000000E-02 0. -1.
    5000001    1    1    2    0    0  0.77450105337E+02 -0.96597474285E+02 -0.55154245133E+03  0.57935970387E+03  0.12700000000E+03 0.  0.
   -5000001    1    1    2    0    0 -0.77450105337E+02  0.96597474285E+02 -0.10278273974E+04  0.10430185759E+04  0.12700000000E+03 0.  0.
<mgrwt>
<rscale>  0 0.37108242E+03</rscale>
<asrwt>0</asrwt>
<pdfrwt beam="1">  1        2 0.30720318E-02 0.37108242E+03</pdfrwt>
<pdfrwt beam="2">  1       -2 0.22869622E+00 0.37108242E+03</pdfrwt>
<totfact> 0.29119982E+02</totfact>
</mgrwt>
</event>
<event>
 4    1  0.9032007E-005  0.1198485E+04  0.7818608E-02  0.9114184E-01
         -2   -1    0    0    0  501 -0.00000000000E+00  0.00000000000E+00  0.20774929307E+04  0.20774929307E+04  0.25500000000E-02 0. -1.
          2   -1    0    0  501    0  0.00000000000E+00 -0.00000000000E+00 -0.17284845003E+03  0.17284845005E+03  0.25500000000E-02 0.  1.
    5000001    1    1    2    0    0  0.23151213457E+03 -0.53658488425E+03  0.10236045924E+04  0.11855026647E+04  0.12700000000E+03 0.  0.
   -5000001    1    1    2    0    0 -0.23151213457E+03  0.53658488425E+03  0.88103988832E+03  0.10648387161E+04  0.12700000000E+03 0.  0.
<mgrwt>
<rscale>  0 0.11984848E+04</rscale>
<asrwt>0</asrwt>
<pdfrwt beam="1">  1        2 0.24692637E-01 0.11984848E+04</pdfrwt>
<pdfrwt beam="2">  1       -2 0.29678469E+00 0.11984848E+04</pdfrwt>
<totfact> 0.73724233E+00</totfact>
</mgrwt>
</event>
<event>
 4    1  0.9032007E-005  0.3503100E+03  0.7818608E-02  0.1062488E+00
          2   -1    0    0  501    0  0.00000000000E+00  0.00000000000E+00  0.15923962226E+04  0.15923962226E+04  0.25500000000E-02 0.  1.
         -2   -1    0    0    0  501 -0.00000000000E+00 -0.00000000000E+00 -0.19266108246E+02  0.19266108414E+02  0.25500000000E-02 0. -1.
    5000001    1    1    2    0    0  0.57578224656E+01 -0.87584972851E+02  0.40590274617E+03  0.43426986925E+03  0.12700000000E+03 0.  0.
   -5000001    1    1    2    0    0 -0.57578224656E+01  0.87584972851E+02  0.11672273682E+04  0.11773924617E+04  0.12700000000E+03 0.  0.
<mgrwt>
<rscale>  0 0.35031002E+03</rscale>
<asrwt>0</asrwt>
<pdfrwt beam="1">  1        2 0.22748515E+00 0.35031002E+03</pdfrwt>
<pdfrwt beam="2">  1       -2 0.27523014E-02 0.35031002E+03</pdfrwt>
<totfact> 0.67745397E+03</totfact>
</mgrwt>
</event>
<event>
 4    1  0.9032007E-005  0.9989173E+03  0.7818608E-02  0.9309733E-01
          2   -1    0    0  501    0  0.00000000000E+00  0.00000000000E+00  0.10753552326E+04  0.10753552326E+04  0.25500000000E-02 0.  1.
         -2   -1    0    0    0  501 -0.00000000000E+00 -0.00000000000E+00 -0.23197815309E+03  0.23197815311E+03  0.25500000000E-02 0. -1.
    5000001    1    1    2    0    0 -0.28495888702E+03  0.37455118091E+03  0.56409457766E+03  0.74553460480E+03  0.12700000000E+03 0.  0.
   -5000001    1    1    2    0    0  0.28495888702E+03 -0.37455118091E+03  0.27928250187E+03  0.56179878093E+03  0.12700000000E+03 0.  0.
<mgrwt>
<rscale>  0 0.99891726E+03</rscale>
<asrwt>0</asrwt>
<pdfrwt beam="1">  1        2 0.15362218E+00 0.99891726E+03</pdfrwt>
<pdfrwt beam="2">  1       -2 0.33139735E-01 0.99891726E+03</pdfrwt>
<totfact> 0.21397387E+02</totfact>
</mgrwt>
</event>
<event>
 4    1  0.9032007E-005  0.3620390E+03  0.7818608E-02  0.1057779E+00
         -2   -1    0    0    0  501 -0.00000000000E+00  0.00000000000E+00  0.54746325361E+02  0.54746325420E+02  0.25500000000E-02 0. -1.
          2   -1    0    0  501    0  0.00000000000E+00 -0.00000000000E+00 -0.59854348608E+03  0.59854348608E+03  0.25500000000E-02 0.  1.
    5000001    1    1    2    0    0  0.11767199576E+03  0.40984197260E+02 -0.33208943444E+03  0.37674765491E+03  0.12700000000E+03 0.  0.
   -5000001    1    1    2    0    0 -0.11767199576E+03 -0.40984197260E+02 -0.21170772628E+03  0.27654215660E+03  0.12700000000E+03 0.  0.
<mgrwt>
<rscale>  0 0.36203898E+03</rscale>
<asrwt>0</asrwt>
<pdfrwt beam="1">  1        2 0.85506208E-01 0.36203898E+03</pdfrwt>
<pdfrwt beam="2">  1       -2 0.78209040E-02 0.36203898E+03</pdfrwt>
<totfact> 0.54336152E+03</totfact>
</mgrwt>
</event>
<event>
 4    1  0.9032007E-005  0.3334553E+03  0.7818608E-02  0.1069618E+00
          2   -1    0    0  501    0  0.00000000000E+00  0.00000000000E+00  0.12128263075E+04  0.12128263075E+04  0.25500000000E-02 0.  1.
         -2   -1    0    0    0  501 -0.00000000000E+00 -0.00000000000E+00 -0.22920112743E+02  0.22920112885E+02  0.25500000000E-02 0. -1.
    5000001    1    1    2    0    0 -0.56414008379E+02  0.50075704104E+02  0.30839945225E+03  0.34194932173E+03  0.12700000000E+03 0.  0.
   -5000001    1    1    2    0    0  0.56414008379E+02 -0.50075704104E+02  0.88150674248E+03  0.89379709863E+03  0.12700000000E+03 0.  0.
<mgrwt>
<rscale>  0 0.33345534E+03</rscale>
<asrwt>0</asrwt>
<pdfrwt beam="1">  1        2 0.17326092E+00 0.33345534E+03</pdfrwt>
<pdfrwt beam="2">  1       -2 0.32743015E-02 0.33345534E+03</pdfrwt>
<totfact> 0.82266629E+03</totfact>
</mgrwt>
</event>
<event>
 4    1  0.9032007E-005  0.4311767E+03  0.7818608E-02  0.1033489E+00
          2   -1    0    0  501    0  0.00000000000E+00  0.00000000000E+00  0.37533040281E+03  0.37533040282E+03  0.25500000000E-02 0.  1.
         -2   -1    0    0    0  501 -0.00000000000E+00 -0.00000000000E+00 -0.12383313442E+03  0.12383313444E+03  0.25500000000E-02 0. -1.
    5000001    1    1    2    0    0  0.11880853299E+03 -0.11549189227E+03  0.18804303356E+03  0.28096801804E+03  0.12700000000E+03 0.  0.
   -5000001    1    1    2    0    0 -0.11880853299E+03  0.11549189227E+03  0.63454234840E+02  0.21819551923E+03  0.12700000000E+03 0.  0.
<mgrwt>
<rscale>  0 0.43117672E+03</rscale>
<asrwt>0</asrwt>
<pdfrwt beam="1">  1        2 0.53618629E-01 0.43117672E+03</pdfrwt>
<pdfrwt beam="2">  1       -2 0.17690448E-01 0.43117672E+03</pdfrwt>
<totfact> 0.24268840E+03</totfact>
</mgrwt>
</event>
<event>
 4    1  0.9032007E-005  0.4367202E+03  0.7818608E-02  0.1031758E+00
         -2   -1    0    0    0  501 -0.00000000000E+00  0.00000000000E+00  0.14122060912E+03  0.14122060914E+03  0.25500000000E-02 0. -1.
          2   -1    0    0  501    0  0.00000000000E+00 -0.00000000000E+00 -0.33763576468E+03  0.33763576469E+03  0.25500000000E-02 0.  1.
    5000001    1    1    2    0    0  0.10670556084E+03  0.79474637760E+02 -0.22724755936E+03  0.29235722669E+03  0.12700000000E+03 0.  0.
   -5000001    1    1    2    0    0 -0.10670556084E+03 -0.79474637760E+02  0.30832403794E+02  0.18649914714E+03  0.12700000000E+03 0.  0.
<mgrwt>
<rscale>  0 0.43672018E+03</rscale>
<asrwt>0</asrwt>
<pdfrwt beam="1">  1        2 0.48233680E-01 0.43672018E+03</pdfrwt>
<pdfrwt beam="2">  1       -2 0.20174373E-01 0.43672018E+03</pdfrwt>
<totfact> 0.21751667E+03</totfact>
</mgrwt>
</event>
<event>
 4    1  0.9032007E-005  0.3379628E+03  0.7818608E-02  0.1067667E+00
         -2   -1    0    0    0  501 -0.00000000000E+00  0.00000000000E+00  0.50725294496E+02  0.50725294560E+02  0.25500000000E-02 0. -1.
          2   -1    0    0  501    0  0.00000000000E+00 -0.00000000000E+00 -0.56292849346E+03  0.56292849347E+03  0.25500000000E-02 0.  1.
    5000001    1    1    2    0    0 -0.11043427998E+03  0.14070286064E+02 -0.24582851959E+03  0.29825218220E+03  0.12700000000E+03 0.  0.
   -5000001    1    1    2    0    0  0.11043427998E+03 -0.14070286064E+02 -0.26637467938E+03  0.31540160583E+03  0.12700000000E+03 0.  0.
<mgrwt>
<rscale>  0 0.33796280E+03</rscale>
<asrwt>0</asrwt>
<pdfrwt beam="1">  1        2 0.80418352E-01 0.33796280E+03</pdfrwt>
<pdfrwt beam="2">  1       -2 0.72464710E-02 0.33796280E+03</pdfrwt>
<totfact> 0.65573816E+03</totfact>
</mgrwt>
</event>
<event>
 4    1  0.9032007E-005  0.3361632E+03  0.7818608E-02  0.1068442E+00
         -2   -1    0    0    0  501 -0.00000000000E+00  0.00000000000E+00  0.31640500020E+03  0.31640500021E+03  0.25500000000E-02 0. -1.
          2   -1    0    0  501    0  0.00000000000E+00 -0.00000000000E+00 -0.89288797850E+02  0.89288797886E+02  0.25500000000E-02 0.  1.
    5000001    1    1    2    0    0  0.40528683836E+02  0.10235868876E+03  0.11548402896E+03  0.20392507527E+03  0.12700000000E+03 0.  0.
   -5000001    1    1    2    0    0 -0.40528683836E+02 -0.10235868876E+03  0.11163217339E+03  0.20176872283E+03  0.12700000000E+03 0.  0.
<mgrwt>
<rscale>  0 0.33616319E+03</rscale>
<asrwt>0</asrwt>
<pdfrwt beam="1">  1        2 0.12755543E-01 0.33616319E+03</pdfrwt>
<pdfrwt beam="2">  1       -2 0.45200714E-01 0.33616319E+03</pdfrwt>
<totfact> 0.22356372E+03</totfact>
</mgrwt>
</event>
<event>
 4    1  0.9032007E-005  0.7385144E+03  0.7818608E-02  0.9653544E-01
         -2   -1    0    0    0  501 -0.00000000000E+00  0.00000000000E+00  0.27067815724E+03  0.27067815725E+03  0.25500000000E-02 0. -1.
          2   -1    0    0  501    0  0.00000000000E+00 -0.00000000000E+00 -0.50373796516E+03  0.50373796517E+03  0.25500000000E-02 0.  1.
    5000001    1    1    2    0    0  0.20091204653E+03 -0.25612153463E+03 -0.24174143906E+03  0.42489035562E+03  0.12700000000E+03 0.  0.
   -5000001    1    1    2    0    0 -0.20091204653E+03  0.25612153463E+03  0.86816311397E+01  0.34952576680E+03  0.12700000000E+03 0.  0.
<mgrwt>
<rscale>  0 0.73851436E+03</rscale>
<asrwt>0</asrwt>
<pdfrwt beam="1">  1        2 0.71962567E-01 0.73851436E+03</pdfrwt>
<pdfrwt beam="2">  1       -2 0.38668308E-01 0.73851436E+03</pdfrwt>
<totfact> 0.42311695E+02</totfact>
</mgrwt>
</event>
<event>
 4    1  0.9032007E-005  0.3797874E+03  0.7818608E-02  0.1051012E+00
         -2   -1    0    0    0  501 -0.00000000000E+00  0.00000000000E+00  0.21530156419E+02  0.21530156570E+02  0.25500000000E-02 0. -1.
          2   -1    0    0  501    0  0.00000000000E+00 -0.00000000000E+00 -0.16748422424E+04  0.16748422424E+04  0.25500000000E-02 0.  1.
    5000001    1    1    2    0    0 -0.12458745819E+03  0.21191508781E+02 -0.11077172282E+04  0.11221129945E+04  0.12700000000E+03 0.  0.
   -5000001    1    1    2    0    0  0.12458745819E+03 -0.21191508781E+02 -0.54559485775E+03  0.57425940444E+03  0.12700000000E+03 0.  0.
<mgrwt>
<rscale>  0 0.37978739E+03</rscale>
<asrwt>0</asrwt>
<pdfrwt beam="1">  1        2 0.23926310E+00 0.37978739E+03</pdfrwt>
<pdfrwt beam="2">  1       -2 0.30757377E-02 0.37978739E+03</pdfrwt>
<totfact> 0.52164517E+03</totfact>
</mgrwt>
</event>
<event>
 4    1  0.9032007E-005  0.3402448E+03  0.7818608E-02  0.1066692E+00
         -2   -1    0    0    0  501 -0.00000000000E+00  0.00000000000E+00  0.12528140522E+02  0.12528140781E+02  0.25500000000E-02 0. -1.
          2   -1    0    0  501    0  0.00000000000E+00 -0.00000000000E+00 -0.23101300871E+04  0.23101300871E+04  0.25500000000E-02 0.  1.
    5000001    1    1    2    0    0 -0.54486315367E+02 -0.82507027211E+02 -0.15249656717E+04  0.15334358376E+04  0.12700000000E+03 0.  0.
   -5000001    1    1    2    0    0  0.54486315367E+02  0.82507027211E+02 -0.77263627485E+03  0.78922239028E+03  0.12700000000E+03 0.  0.
<mgrwt>
<rscale>  0 0.34024482E+03</rscale>
<asrwt>0</asrwt>
<pdfrwt beam="1">  1        2 0.33001831E+00 0.34024482E+03</pdfrwt>
<pdfrwt beam="2">  1       -2 0.17897358E-02 0.34024482E+03</pdfrwt>
<totfact> 0.56687104E+03</totfact>
</mgrwt>
</event>
<event>
 4    1  0.9032007E-005  0.3594452E+03  0.7818608E-02  0.1058804E+00
          2   -1    0    0  501    0  0.00000000000E+00  0.00000000000E+00  0.45241882934E+03  0.45241882934E+03  0.25500000000E-02 0.  1.
         -2   -1    0    0    0  501 -0.00000000000E+00 -0.00000000000E+00 -0.71394496756E+02  0.71394496801E+02  0.25500000000E-02 0. -1.
    5000001    1    1    2    0    0 -0.62781436759E+02  0.80535089516E+02  0.30095656490E+03  0.34224444977E+03  0.12700000000E+03 0.  0.
   -5000001    1    1    2    0    0  0.62781436759E+02 -0.80535089516E+02  0.80067767680E+02  0.18156887637E+03  0.12700000000E+03 0.  0.
<mgrwt>
<rscale>  0 0.35944521E+03</rscale>
<asrwt>0</asrwt>
<pdfrwt beam="1">  1        2 0.64631259E-01 0.35944521E+03</pdfrwt>
<pdfrwt beam="2">  1       -2 0.10199214E-01 0.35944521E+03</pdfrwt>
<totfact> 0.48855534E+03</totfact>
</mgrwt>
</event>
<event>
 4    1  0.9032007E-005  0.3331628E+03  0.7818608E-02  0.1069746E+00
          2   -1    0    0  501    0  0.00000000000E+00  0.00000000000E+00  0.31140657725E+03  0.31140657726E+03  0.25500000000E-02 0.  1.
         -2   -1    0    0    0  501 -0.00000000000E+00 -0.00000000000E+00 -0.89109727079E+02  0.89109727115E+02  0.25500000000E-02 0. -1.
    5000001    1    1    2    0    0  0.10360010031E+03  0.13545375860E+02  0.14304311272E+03  0.21796052415E+03  0.12700000000E+03 0.  0.
   -5000001    1    1    2    0    0 -0.10360010031E+03 -0.13545375860E+02  0.79253737451E+02  0.18255578022E+03  0.12700000000E+03 0.  0.
<mgrwt>
<rscale>  0 0.33316275E+03</rscale>
<asrwt>0</asrwt>
<pdfrwt beam="1">  1        2 0.44486654E-01 0.33316275E+03</pdfrwt>
<pdfrwt beam="2">  1       -2 0.12729961E-01 0.33316275E+03</pdfrwt>
<totfact> 0.51185265E+03</totfact>
</mgrwt>
</event>
<event>
 4    1  0.9032007E-005  0.4158718E+03  0.7818608E-02  0.1038418E+00
          2   -1    0    0  501    0  0.00000000000E+00  0.00000000000E+00  0.36681288372E+04  0.36681288372E+04  0.25500000000E-02 0.  1.
         -2   -1    0    0    0  501 -0.00000000000E+00 -0.00000000000E+00 -0.11787298816E+02  0.11787299092E+02  0.25500000000E-02 0. -1.
    5000001    1    1    2    0    0  0.13728853376E+03  0.90585799652E+02  0.17629045664E+04  0.17751099794E+04  0.12700000000E+03 0.  0.
   -5000001    1    1    2    0    0 -0.13728853376E+03 -0.90585799652E+02  0.18934369720E+04  0.19048061569E+04  0.12700000000E+03 0.  0.
<mgrwt>
<rscale>  0 0.41587176E+03</rscale>
<asrwt>0</asrwt>
<pdfrwt beam="1">  1        2 0.52401819E+00 0.41587176E+03</pdfrwt>
<pdfrwt beam="2">  1       -2 0.16839006E-02 0.41587176E+03</pdfrwt>
<totfact> 0.11369674E+03</totfact>
</mgrwt>
</event>
<event>
 4    1  0.9032007E-005  0.7352286E+03  0.7818608E-02  0.9658814E-01
         -2   -1    0    0    0  501 -0.00000000000E+00  0.00000000000E+00  0.13621107841E+03  0.13621107843E+03  0.25500000000E-02 0. -1.
          2   -1    0    0  501    0  0.00000000000E+00 -0.00000000000E+00 -0.99213851543E+03  0.99213851543E+03  0.25500000000E-02 0.  1.
    5000001    1    1    2    0    0  0.20714506638E+02  0.32125091156E+03 -0.61829042615E+03  0.70855013233E+03  0.12700000000E+03 0.  0.
   -5000001    1    1    2    0    0 -0.20714506638E+02 -0.32125091156E+03 -0.23763701087E+03  0.41979946153E+03  0.12700000000E+03 0.  0.
<mgrwt>
<rscale>  0 0.73522856E+03</rscale>
<asrwt>0</asrwt>
<pdfrwt beam="1">  1        2 0.14173407E+00 0.73522856E+03</pdfrwt>
<pdfrwt beam="2">  1       -2 0.19458726E-01 0.73522856E+03</pdfrwt>
<totfact> 0.63833103E+02</totfact>
</mgrwt>
</event>
<event>
 4    1  0.9032007E-005  0.4162375E+03  0.7818608E-02  0.1038298E+00
         -2   -1    0    0    0  501 -0.00000000000E+00  0.00000000000E+00  0.66638905925E+02  0.66638905974E+02  0.25500000000E-02 0. -1.
          2   -1    0    0  501    0  0.00000000000E+00 -0.00000000000E+00 -0.64997178330E+03  0.64997178330E+03  0.25500000000E-02 0.  1.
    5000001    1    1    2    0    0 -0.68944233108E+02 -0.14049755354E+03 -0.20234773311E+03  0.28559845050E+03  0.12700000000E+03 0.  0.
   -5000001    1    1    2    0    0  0.68944233108E+02  0.14049755354E+03 -0.38098514426E+03  0.43101223878E+03  0.12700000000E+03 0.  0.
<mgrwt>
<rscale>  0 0.41623747E+03</rscale>
<asrwt>0</asrwt>
<pdfrwt beam="1">  1        2 0.92853108E-01 0.41623747E+03</pdfrwt>
<pdfrwt beam="2">  1       -2 0.95198441E-02 0.41623747E+03</pdfrwt>
<totfact> 0.36230127E+03</totfact>
</mgrwt>
</event>
<event>
 4    1  0.9032007E-005  0.3713347E+03  0.7818608E-02  0.1054184E+00
          2   -1    0    0  501    0  0.00000000000E+00  0.00000000000E+00  0.63192806037E+03  0.63192806038E+03  0.25500000000E-02 0.  1.
         -2   -1    0    0    0  501 -0.00000000000E+00 -0.00000000000E+00 -0.54551093526E+02  0.54551093585E+02  0.25500000000E-02 0. -1.
    5000001    1    1    2    0    0 -0.10799847683E+03 -0.80760234686E+02  0.31188778134E+03  0.36275180862E+03  0.12700000000E+03 0.  0.
   -5000001    1    1    2    0    0  0.10799847683E+03  0.80760234686E+02  0.26548918550E+03  0.32372734534E+03  0.12700000000E+03 0.  0.
<mgrwt>
<rscale>  0 0.37133471E+03</rscale>
<asrwt>0</asrwt>
<pdfrwt beam="1">  1        2 0.90275435E-01 0.37133471E+03</pdfrwt>
<pdfrwt beam="2">  1       -2 0.77930135E-02 0.37133471E+03</pdfrwt>
<totfact> 0.51332619E+03</totfact>
</mgrwt>
</event>
<event>
 4    1  0.9032007E-005  0.4195387E+03  0.7818608E-02  0.1037217E+00
         -2   -1    0    0    0  501 -0.00000000000E+00  0.00000000000E+00  0.13991238539E+03  0.13991238541E+03  0.25500000000E-02 0. -1.
          2   -1    0    0  501    0  0.00000000000E+00 -0.00000000000E+00 -0.31450531347E+03  0.31450531348E+03  0.25500000000E-02 0.  1.
    5000001    1    1    2    0    0 -0.69330851154E+02 -0.12626198744E+03 -0.17872583420E+03  0.26233714988E+03  0.12700000000E+03 0.  0.
   -5000001    1    1    2    0    0  0.69330851154E+02  0.12626198744E+03  0.41329061216E+01  0.19208054901E+03  0.12700000000E+03 0.  0.
<mgrwt>
<rscale>  0 0.41953874E+03</rscale>
<asrwt>0</asrwt>
<pdfrwt beam="1">  1        2 0.44929330E-01 0.41953874E+03</pdfrwt>
<pdfrwt beam="2">  1       -2 0.19987484E-01 0.41953874E+03</pdfrwt>
<totfact> 0.23874640E+03</totfact>
</mgrwt>
</event>
<event>
 4    1  0.9032007E-005  0.5210826E+03  0.7818608E-02  0.1008418E+00
         -2   -1    0    0    0  501 -0.00000000000E+00  0.00000000000E+00  0.66579439164E+02  0.66579439213E+02  0.25500000000E-02 0. -1.
          2   -1    0    0  501    0  0.00000000000E+00 -0.00000000000E+00 -0.10195604463E+04  0.10195604463E+04  0.25500000000E-02 0.  1.
    5000001    1    1    2    0    0  0.17648935064E+03 -0.67464692960E+02 -0.21239899757E+03  0.31135560032E+03  0.12700000000E+03 0.  0.
   -5000001    1    1    2    0    0 -0.17648935064E+03  0.67464692960E+02 -0.74058200953E+03  0.77478428515E+03  0.12700000000E+03 0.  0.
<mgrwt>
<rscale>  0 0.52108258E+03</rscale>
<asrwt>0</asrwt>
<pdfrwt beam="1">  1        2 0.14565148E+00 0.52108258E+03</pdfrwt>
<pdfrwt beam="2">  1       -2 0.95113491E-02 0.52108258E+03</pdfrwt>
<totfact> 0.20405482E+03</totfact>
</mgrwt>
</event>
<event>
 4    1  0.9032007E-005  0.4960753E+03  0.7818608E-02  0.1014808E+00
          2   -1    0    0  501    0  0.00000000000E+00  0.00000000000E+00  0.51341609490E+03  0.51341609490E+03  0.25500000000E-02 0.  1.
         -2   -1    0    0    0  501 -0.00000000000E+00 -0.00000000000E+00 -0.11983004155E+03  0.11983004158E+03  0.25500000000E-02 0. -1.
    5000001    1    1    2    0    0  0.10627588531E+03  0.39192709748E+01  0.43245994796E+03  0.46309883510E+03  0.12700000000E+03 0.  0.
   -5000001    1    1    2    0    0 -0.10627588531E+03 -0.39192709748E+01 -0.38873894621E+02  0.17014730138E+03  0.12700000000E+03 0.  0.
<mgrwt>
<rscale>  0 0.49607528E+03</rscale>
<asrwt>0</asrwt>
<pdfrwt beam="1">  1        2 0.73345158E-01 0.49607528E+03</pdfrwt>
<pdfrwt beam="2">  1       -2 0.17118577E-01 0.49607528E+03</pdfrwt>
<totfact> 0.18135792E+03</totfact>
</mgrwt>
</event>
<event>
 4    1  0.9032007E-005  0.5389696E+03  0.7818608E-02  0.1004080E+00
         -2   -1    0    0    0  501 -0.00000000000E+00  0.00000000000E+00  0.68645913993E+02  0.68645914040E+02  0.25500000000E-02 0. -1.
          2   -1    0    0  501    0  0.00000000000E+00 -0.00000000000E+00 -0.10579226421E+04  0.10579226422E+04  0.25500000000E-02 0.  1.
    5000001    1    1    2    0    0  0.23652566600E+03  0.21449947283E+02 -0.51431047286E+03  0.58055900080E+03  0.12700000000E+03 0.  0.
   -5000001    1    1    2    0    0 -0.23652566600E+03 -0.21449947283E+02 -0.47496625530E+03  0.54600955540E+03  0.12700000000E+03 0.  0.
<mgrwt>
<rscale>  0 0.53896963E+03</rscale>
<asrwt>0</asrwt>
<pdfrwt beam="1">  1        2 0.15113180E+00 0.53896963E+03</pdfrwt>
<pdfrwt beam="2">  1       -2 0.98065598E-02 0.53896963E+03</pdfrwt>
<totfact> 0.18426394E+03</totfact>
</mgrwt>
</event>
<event>
 4    1  0.9032007E-005  0.6657255E+03  0.7818608E-02  0.9777711E-01
         -2   -1    0    0    0  501 -0.00000000000E+00  0.00000000000E+00  0.37226637606E+02  0.37226637694E+02  0.25500000000E-02 0. -1.
          2   -1    0    0  501    0  0.00000000000E+00 -0.00000000000E+00 -0.29762994766E+04  0.29762994766E+04  0.25500000000E-02 0.  1.
    5000001    1    1    2    0    0  0.24683628097E+03 -0.11578120843E+03 -0.21150476468E+04  0.21363260486E+04  0.12700000000E+03 0.  0.
   -5000001    1    1    2    0    0 -0.24683628097E+03  0.11578120843E+03 -0.82402519215E+03  0.87720006562E+03  0.12700000000E+03 0.  0.
<mgrwt>
<rscale>  0 0.66572554E+03</rscale>
<asrwt>0</asrwt>
<pdfrwt beam="1">  1        2 0.42518549E+00 0.66572554E+03</pdfrwt>
<pdfrwt beam="2">  1       -2 0.53180930E-02 0.66572554E+03</pdfrwt>
<totfact> 0.48135359E+02</totfact>
</mgrwt>
</event>
<event>
 4    1  0.9032007E-005  0.2898763E+03  0.7818608E-02  0.1090414E+00
         -2   -1    0    0    0  501 -0.00000000000E+00  0.00000000000E+00  0.53481809137E+02  0.53481809198E+02  0.25500000000E-02 0. -1.
          2   -1    0    0  501    0  0.00000000000E+00 -0.00000000000E+00 -0.39278907064E+03  0.39278907064E+03  0.25500000000E-02 0.  1.
    5000001    1    1    2    0    0 -0.60844172958E+01  0.60927551677E+02 -0.11792745619E+03  0.18380715876E+03  0.12700000000E+03 0.  0.
   -5000001    1    1    2    0    0  0.60844172958E+01 -0.60927551677E+02 -0.22137980530E+03  0.26246372108E+03  0.12700000000E+03 0.  0.
<mgrwt>
<rscale>  0 0.28987632E+03</rscale>
<asrwt>0</asrwt>
<pdfrwt beam="1">  1        2 0.56112723E-01 0.28987632E+03</pdfrwt>
<pdfrwt beam="2">  1       -2 0.76402587E-02 0.28987632E+03</pdfrwt>
<totfact> 0.89397421E+03</totfact>
</mgrwt>
</event>
<event>
 4    1  0.9032007E-005  0.4933120E+03  0.7818608E-02  0.1015539E+00
         -2   -1    0    0    0  501 -0.00000000000E+00  0.00000000000E+00  0.67733389991E+02  0.67733390039E+02  0.25500000000E-02 0. -1.
          2   -1    0    0  501    0  0.00000000000E+00 -0.00000000000E+00 -0.89821551637E+03  0.89821551638E+03  0.25500000000E-02 0.  1.
    5000001    1    1    2    0    0 -0.16134842282E+03  0.11685693761E+03 -0.55399381977E+03  0.60226822077E+03  0.12700000000E+03 0.  0.
   -5000001    1    1    2    0    0  0.16134842282E+03 -0.11685693761E+03 -0.27648830662E+03  0.36368068564E+03  0.12700000000E+03 0.  0.
<mgrwt>
<rscale>  0 0.49331200E+03</rscale>
<asrwt>0</asrwt>
<pdfrwt beam="1">  1        2 0.12831650E+00 0.49331200E+03</pdfrwt>
<pdfrwt beam="2">  1       -2 0.96761991E-02 0.49331200E+03</pdfrwt>
<totfact> 0.23603730E+03</totfact>
</mgrwt>
</event>
<event>
 4    1  0.9032007E-005  0.8059786E+03  0.7818608E-02  0.9551403E-01
          2   -1    0    0  501    0  0.00000000000E+00  0.00000000000E+00  0.43065267891E+03  0.43065267892E+03  0.25500000000E-02 0.  1.
         -2   -1    0    0    0  501 -0.00000000000E+00 -0.00000000000E+00 -0.37710294398E+03  0.37710294398E+03  0.25500000000E-02 0. -1.
    5000001    1    1    2    0    0  0.18694165114E+03  0.27074016494E+03  0.22220216000E+03  0.41683356121E+03  0.12700000000E+03 0.  0.
   -5000001    1    1    2    0    0 -0.18694165114E+03 -0.27074016494E+03 -0.16865242506E+03  0.39092206170E+03  0.12700000000E+03 0.  0.
<mgrwt>
<rscale>  0 0.80597864E+03</rscale>
<asrwt>0</asrwt>
<pdfrwt beam="1">  1        2 0.61521812E-01 0.80597864E+03</pdfrwt>
<pdfrwt beam="2">  1       -2 0.53871848E-01 0.80597864E+03</pdfrwt>
<totfact> 0.25997970E+02</totfact>
</mgrwt>
</event>
<event>
 4    1  0.9032007E-005  0.4316791E+03  0.7818608E-02  0.1033331E+00
         -2   -1    0    0    0  501 -0.00000000000E+00  0.00000000000E+00  0.28939623064E+03  0.28939623065E+03  0.25500000000E-02 0. -1.
          2   -1    0    0  501    0  0.00000000000E+00 -0.00000000000E+00 -0.16097897882E+03  0.16097897884E+03  0.25500000000E-02 0.  1.
    5000001    1    1    2    0    0  0.16047149658E+03  0.43459519118E+02  0.88258643318E+01  0.20939610048E+03  0.12700000000E+03 0.  0.
   -5000001    1    1    2    0    0 -0.16047149658E+03 -0.43459519118E+02  0.11959138749E+03  0.24097910901E+03  0.12700000000E+03 0.  0.
<mgrwt>
<rscale>  0 0.43167909E+03</rscale>
<asrwt>0</asrwt>
<pdfrwt beam="1">  1        2 0.22996997E-01 0.43167909E+03</pdfrwt>
<pdfrwt beam="2">  1       -2 0.41342318E-01 0.43167909E+03</pdfrwt>
<totfact> 0.13332660E+03</totfact>
</mgrwt>
</event>
<event>
 4    1  0.9032007E-005  0.5019821E+03  0.7818608E-02  0.1013263E+00
          2   -1    0    0  501    0  0.00000000000E+00  0.00000000000E+00  0.44494379593E+03  0.44494379594E+03  0.25500000000E-02 0.  1.
         -2   -1    0    0    0  501 -0.00000000000E+00 -0.00000000000E+00 -0.14158305500E+03  0.14158305503E+03  0.25500000000E-02 0. -1.
    5000001    1    1    2    0    0 -0.16945499412E+03  0.10042654938E+03  0.25662400965E+03  0.34754189558E+03  0.12700000000E+03 0.  0.
   -5000001    1    1    2    0    0  0.16945499412E+03 -0.10042654938E+03  0.46736731282E+02  0.23898495539E+03  0.12700000000E+03 0.  0.
<mgrwt>
<rscale>  0 0.50198208E+03</rscale>
<asrwt>0</asrwt>
<pdfrwt beam="1">  1        2 0.63563400E-01 0.50198208E+03</pdfrwt>
<pdfrwt beam="2">  1       -2 0.20226150E-01 0.50198208E+03</pdfrwt>
<totfact> 0.15992972E+03</totfact>
</mgrwt>
</event>
<event>
 4    1  0.9032007E-005  0.7652514E+03  0.7818608E-02  0.9611723E-01
         -2   -1    0    0    0  501 -0.00000000000E+00  0.00000000000E+00  0.93945124838E+02  0.93945124873E+02  0.25500000000E-02 0. -1.
          2   -1    0    0  501    0  0.00000000000E+00 -0.00000000000E+00 -0.15583821857E+04  0.15583821857E+04  0.25500000000E-02 0.  1.
    5000001    1    1    2    0    0 -0.16141576251E+03  0.15421421434E+03 -0.11984259514E+03  0.28342251128E+03  0.12700000000E+03 0.  0.
   -5000001    1    1    2    0    0  0.16141576251E+03 -0.15421421434E+03 -0.13445944657E+04  0.13689047993E+04  0.12700000000E+03 0.  0.
<mgrwt>
<rscale>  0 0.76525135E+03</rscale>
<asrwt>0</asrwt>
<pdfrwt beam="1">  1        2 0.22262601E+00 0.76525135E+03</pdfrwt>
<pdfrwt beam="2">  1       -2 0.13420733E-01 0.76525135E+03</pdfrwt>
<totfact> 0.58078854E+02</totfact>
</mgrwt>
</event>
<event>
 4    1  0.9032007E-005  0.4450857E+03  0.7818608E-02  0.1029198E+00
          2   -1    0    0  501    0  0.00000000000E+00  0.00000000000E+00  0.52320761898E+03  0.52320761898E+03  0.25500000000E-02 0.  1.
         -2   -1    0    0    0  501 -0.00000000000E+00 -0.00000000000E+00 -0.94657107382E+02  0.94657107416E+02  0.25500000000E-02 0. -1.
    5000001    1    1    2    0    0  0.15815411813E+03  0.91334323051E+02  0.20531779374E+03  0.30271947422E+03  0.12700000000E+03 0.  0.
   -5000001    1    1    2    0    0 -0.15815411813E+03 -0.91334323051E+02  0.22323271786E+03  0.31514525218E+03  0.12700000000E+03 0.  0.
<mgrwt>
<rscale>  0 0.44508570E+03</rscale>
<asrwt>0</asrwt>
<pdfrwt beam="1">  1        2 0.74743948E-01 0.44508570E+03</pdfrwt>
<pdfrwt beam="2">  1       -2 0.13522444E-01 0.44508570E+03</pdfrwt>
<totfact> 0.26338618E+03</totfact>
</mgrwt>
</event>
<event>
 4    1  0.9032007E-005  0.4803625E+03  0.7818608E-02  0.1019036E+00
         -2   -1    0    0    0  501 -0.00000000000E+00  0.00000000000E+00  0.56228985458E+02  0.56228985516E+02  0.25500000000E-02 0. -1.
          2   -1    0    0  501    0  0.00000000000E+00 -0.00000000000E+00 -0.10259305497E+04  0.10259305497E+04  0.25500000000E-02 0.  1.
    5000001    1    1    2    0    0 -0.14422459739E+03  0.13651748067E+03 -0.38111741184E+03  0.44812636458E+03  0.12700000000E+03 0.  0.
   -5000001    1    1    2    0    0  0.14422459739E+03 -0.13651748067E+03 -0.58858415244E+03  0.63403317068E+03  0.12700000000E+03 0.  0.
<mgrwt>
<rscale>  0 0.48036250E+03</rscale>
<asrwt>0</asrwt>
<pdfrwt beam="1">  1        2 0.14656150E+00 0.48036250E+03</pdfrwt>
<pdfrwt beam="2">  1       -2 0.80327128E-02 0.48036250E+03</pdfrwt>
<totfact> 0.26497608E+03</totfact>
</mgrwt>
</event>
<event>
 4    1  0.9032007E-005  0.3878143E+03  0.7818608E-02  0.1048083E+00
          2   -1    0    0  501    0  0.00000000000E+00  0.00000000000E+00  0.62063634512E+03  0.62063634512E+03  0.25500000000E-02 0.  1.
         -2   -1    0    0    0  501 -0.00000000000E+00 -0.00000000000E+00 -0.60582962539E+02  0.60582962592E+02  0.25500000000E-02 0. -1.
    5000001    1    1    2    0    0  0.13843259275E+03  0.40222525152E+02  0.32615285131E+03  0.37853152667E+03  0.12700000000E+03 0.  0.
   -5000001    1    1    2    0    0 -0.13843259275E+03 -0.40222525152E+02  0.23390053127E+03  0.30268778105E+03  0.12700000000E+03 0.  0.
<mgrwt>
<rscale>  0 0.38781433E+03</rscale>
<asrwt>0</asrwt>
<pdfrwt beam="1">  1        2 0.88662338E-01 0.38781433E+03</pdfrwt>
<pdfrwt beam="2">  1       -2 0.86547086E-02 0.38781433E+03</pdfrwt>
<totfact> 0.44465422E+03</totfact>
</mgrwt>
</event>
<event>
 4    1  0.9032007E-005  0.3962984E+03  0.7818608E-02  0.1045069E+00
          2   -1    0    0  501    0  0.00000000000E+00  0.00000000000E+00  0.99202765363E+03  0.99202765364E+03  0.25500000000E-02 0. -1.
         -2   -1    0    0    0  501 -0.00000000000E+00 -0.00000000000E+00 -0.39578640006E+02  0.39578640088E+02  0.25500000000E-02 0.  1.
    5000001    1    1    2    0    0  0.13324232401E+03 -0.71649605441E+02  0.51712909690E+03  0.55356904333E+03  0.12700000000E+03 0.  0.
   -5000001    1    1    2    0    0 -0.13324232401E+03  0.71649605441E+02  0.43531991673E+03  0.47803725040E+03  0.12700000000E+03 0.  0.
<mgrwt>
<rscale>  0 0.39629840E+03</rscale>
<asrwt>0</asrwt>
<pdfrwt beam="1">  1        2 0.14171824E+00 0.39629840E+03</pdfrwt>
<pdfrwt beam="2">  1       -2 0.56540912E-02 0.39629840E+03</pdfrwt>
<totfact> 0.48033477E+03</totfact>
</mgrwt>
</event>
<event>
 4    1  0.9032007E-005  0.4070704E+03  0.7818608E-02  0.1041359E+00
         -2   -1    0    0    0  501 -0.00000000000E+00  0.00000000000E+00  0.12576637690E+03  0.12576637693E+03  0.25500000000E-02 0. -1.
          2   -1    0    0  501    0  0.00000000000E+00 -0.00000000000E+00 -0.32939308357E+03  0.32939308358E+03  0.25500000000E-02 0.  1.
    5000001    1    1    2    0    0 -0.67862821543E+02 -0.98529994633E+02  0.15372547200E+02  0.17515375416E+03  0.12700000000E+03 0.  0.
   -5000001    1    1    2    0    0  0.67862821543E+02  0.98529994633E+02 -0.21899925387E+03  0.28000570635E+03  0.12700000000E+03 0.  0.
<mgrwt>
<rscale>  0 0.40707039E+03</rscale>
<asrwt>0</asrwt>
<pdfrwt beam="1">  1        2 0.47056154E-01 0.40707039E+03</pdfrwt>
<pdfrwt beam="2">  1       -2 0.17966625E-01 0.40707039E+03</pdfrwt>
<totfact> 0.27242036E+03</totfact>
</mgrwt>
</event>
<event>
 4    1  0.9032007E-005  0.3475539E+03  0.7818608E-02  0.1063624E+00
         -2   -1    0    0    0  501 -0.00000000000E+00  0.00000000000E+00  0.10825008120E+02  0.10825008421E+02  0.25500000000E-02 0. -1.
          2   -1    0    0  501    0  0.00000000000E+00 -0.00000000000E+00 -0.27896906692E+04  0.27896906692E+04  0.25500000000E-02 0.  1.
    5000001    1    1    2    0    0 -0.11244513333E+03  0.29065461046E+02 -0.15836097430E+04  0.15929336230E+04  0.12700000000E+03 0.  0.
   -5000001    1    1    2    0    0  0.11244513333E+03 -0.29065461046E+02 -0.11952559181E+04  0.12075820546E+04  0.12700000000E+03 0.  0.
<mgrwt>
<rscale>  0 0.34755388E+03</rscale>
<asrwt>0</asrwt>
<pdfrwt beam="1">  1        2 0.39852678E+00 0.34755388E+03</pdfrwt>
<pdfrwt beam="2">  1       -2 0.15464315E-02 0.34755388E+03</pdfrwt>
<totfact> 0.40198843E+03</totfact>
</mgrwt>
</event>
<event>
 4    1  0.9032007E-005  0.3342434E+03  0.7818608E-02  0.1069275E+00
         -2   -1    0    0    0  501 -0.00000000000E+00  0.00000000000E+00  0.88937521850E+01  0.88937525506E+01  0.25500000000E-02 0. -1.
          2   -1    0    0  501    0  0.00000000000E+00 -0.00000000000E+00 -0.31403682492E+04  0.31403682492E+04  0.25500000000E-02 0.  1.
    5000001    1    1    2    0    0 -0.92894531428E+02 -0.33406726772E+02 -0.19928856284E+04  0.19993667825E+04  0.12700000000E+03 0.  0.
   -5000001    1    1    2    0    0  0.92894531428E+02  0.33406726772E+02 -0.11385888687E+04  0.11498952192E+04  0.12700000000E+03 0.  0.
<mgrwt>
<rscale>  0 0.33424337E+03</rscale>
<asrwt>0</asrwt>
<pdfrwt beam="1">  1        2 0.44862333E+00 0.33424337E+03</pdfrwt>
<pdfrwt beam="2">  1       -2 0.12705381E-02 0.33424337E+03</pdfrwt>
<totfact> 0.34957319E+03</totfact>
</mgrwt>
</event>
<event>
 4    1  0.9032007E-005  0.4369974E+03  0.7818608E-02  0.1031672E+00
          2   -1    0    0  501    0  0.00000000000E+00  0.00000000000E+00  0.35615445389E+03  0.35615445390E+03  0.25500000000E-02 0.  1.
         -2   -1    0    0    0  501 -0.00000000000E+00 -0.00000000000E+00 -0.13404769017E+03  0.13404769020E+03  0.25500000000E-02 0. -1.
    5000001    1    1    2    0    0  0.15177692363E+03  0.85512229406E+02  0.15093640727E+03  0.26317175944E+03  0.12700000000E+03 0.  0.
   -5000001    1    1    2    0    0 -0.15177692363E+03 -0.85512229406E+02  0.71170356445E+02  0.22703038466E+03  0.12700000000E+03 0.  0.
<mgrwt>
<rscale>  0 0.43699740E+03</rscale>
<asrwt>0</asrwt>
<pdfrwt beam="1">  1        2 0.50879208E-01 0.43699740E+03</pdfrwt>
<pdfrwt beam="2">  1       -2 0.19149670E-01 0.43699740E+03</pdfrwt>
<totfact> 0.22448635E+03</totfact>
</mgrwt>
</event>
<event>
 4    1  0.9032007E-005  0.3646689E+03  0.7818608E-02  0.1056750E+00
          2   -1    0    0  501    0  0.00000000000E+00  0.00000000000E+00  0.54089212636E+03  0.54089212636E+03  0.25500000000E-02 0.  1.
         -2   -1    0    0    0  501 -0.00000000000E+00 -0.00000000000E+00 -0.61464854877E+02  0.61464854930E+02  0.25500000000E-02 0. -1.
    5000001    1    1    2    0    0  0.47200043646E+02  0.10111536734E+03  0.35252862137E+03  0.39097006345E+03  0.12700000000E+03 0.  0.
   -5000001    1    1    2    0    0 -0.47200043646E+02 -0.10111536734E+03  0.12689865011E+03  0.21138691784E+03  0.12700000000E+03 0.  0.
<mgrwt>
<rscale>  0 0.36466892E+03</rscale>
<asrwt>0</asrwt>
<pdfrwt beam="1">  1        2 0.77270307E-01 0.36466892E+03</pdfrwt>
<pdfrwt beam="2">  1       -2 0.87806932E-02 0.36466892E+03</pdfrwt>
<totfact> 0.50828009E+03</totfact>
</mgrwt>
</event>
<event>
 4    1  0.9032007E-005  0.3429632E+03  0.7818608E-02  0.1065541E+00
          2   -1    0    0  501    0  0.00000000000E+00  0.00000000000E+00  0.40599438657E+03  0.40599438658E+03  0.25500000000E-02 0.  1.
         -2   -1    0    0    0  501 -0.00000000000E+00 -0.00000000000E+00 -0.72429432713E+02  0.72429432758E+02  0.25500000000E-02 0. -1.
    5000001    1    1    2    0    0  0.70800328671E+02 -0.86229657964E+02  0.12662516729E+03  0.21121357306E+03  0.12700000000E+03 0.  0.
   -5000001    1    1    2    0    0 -0.70800328671E+02  0.86229657964E+02  0.20693978657E+03  0.26721024628E+03  0.12700000000E+03 0.  0.
<mgrwt>
<rscale>  0 0.34296322E+03</rscale>
<asrwt>0</asrwt>
<pdfrwt beam="1">  1        2 0.57999198E-01 0.34296322E+03</pdfrwt>
<pdfrwt beam="2">  1       -2 0.10347062E-01 0.34296322E+03</pdfrwt>
<totfact> 0.53697678E+03</totfact>
</mgrwt>
</event>
<event>
 4    1  0.9032007E-005  0.2952410E+03  0.7818608E-02  0.1087644E+00
         -2   -1    0    0    0  501 -0.00000000000E+00  0.00000000000E+00  0.79817621585E+01  0.79817625658E+01  0.25500000000E-02 0. -1.
          2   -1    0    0  501    0  0.00000000000E+00 -0.00000000000E+00 -0.27302011822E+04  0.27302011822E+04  0.25500000000E-02 0.  1.
    5000001    1    1    2    0    0 -0.69385594068E+02  0.19177178571E+02 -0.11577713670E+04  0.11669385858E+04  0.12700000000E+03 0.  0.
   -5000001    1    1    2    0    0  0.69385594068E+02 -0.19177178571E+02 -0.15644480531E+04  0.15712443590E+04  0.12700000000E+03 0.  0.
<mgrwt>
<rscale>  0 0.29524103E+03</rscale>
<asrwt>0</asrwt>
<pdfrwt beam="1">  1        2 0.39002814E+00 0.29524103E+03</pdfrwt>
<pdfrwt beam="2">  1       -2 0.11402535E-02 0.29524103E+03</pdfrwt>
<totfact> 0.67559768E+03</totfact>
</mgrwt>
</event>
<event>
 4    1  0.9032007E-005  0.8366846E+03  0.7818608E-02  0.9508385E-01
          2   -1    0    0  501    0  0.00000000000E+00  0.00000000000E+00  0.11528644317E+04  0.11528644317E+04  0.25500000000E-02 0. -1.
         -2   -1    0    0    0  501 -0.00000000000E+00 -0.00000000000E+00 -0.15180471877E+03  0.15180471879E+03  0.25500000000E-02 0.  1.
    5000001    1    1    2    0    0  0.22427637648E+03  0.25218981457E+03  0.16981294289E+03  0.39857876410E+03  0.12700000000E+03 0.  0.
   -5000001    1    1    2    0    0 -0.22427637648E+03 -0.25218981457E+03  0.83124677004E+03  0.90609038640E+03  0.12700000000E+03 0.  0.
<mgrwt>
<rscale>  0 0.83668455E+03</rscale>
<asrwt>0</asrwt>
<pdfrwt beam="1">  1        2 0.16469491E+00 0.83668455E+03</pdfrwt>
<pdfrwt beam="2">  1       -2 0.21686389E-01 0.83668455E+03</pdfrwt>
<totfact> 0.42169797E+02</totfact>
</mgrwt>
</event>
<event>
 4    1  0.9032007E-005  0.4462631E+03  0.7818608E-02  0.1028842E+00
          2   -1    0    0  501    0  0.00000000000E+00  0.00000000000E+00  0.30192298031E+04  0.30192298031E+04  0.25500000000E-02 0.  1.
         -2   -1    0    0    0  501 -0.00000000000E+00 -0.00000000000E+00 -0.16490194283E+02  0.16490194480E+02  0.25500000000E-02 0. -1.
    5000001    1    1    2    0    0  0.11053896977E+03  0.14305867545E+03  0.12890655648E+04  0.13078622553E+04  0.12700000000E+03 0.  0.
   -5000001    1    1    2    0    0 -0.11053896977E+03 -0.14305867545E+03  0.17136740440E+04  0.17278577423E+04  0.12700000000E+03 0.  0.
<mgrwt>
<rscale>  0 0.44626309E+03</rscale>
<asrwt>0</asrwt>
<pdfrwt beam="1">  1        2 0.43131868E+00 0.44626309E+03</pdfrwt>
<pdfrwt beam="2">  1       -2 0.23557413E-02 0.44626309E+03</pdfrwt>
<totfact> 0.16143142E+03</totfact>
</mgrwt>
</event>
<event>
 4    1  0.9032007E-005  0.3218301E+03  0.7818608E-02  0.1074810E+00
          2   -1    0    0  501    0  0.00000000000E+00  0.00000000000E+00  0.70633398704E+03  0.70633398705E+03  0.25500000000E-02 0.  1.
         -2   -1    0    0    0  501 -0.00000000000E+00 -0.00000000000E+00 -0.36659211992E+02  0.36659212081E+02  0.25500000000E-02 0. -1.
    5000001    1    1    2    0    0  0.64279672616E+02  0.58218440943E+00  0.50810054017E+03  0.52766217808E+03  0.12700000000E+03 0.  0.
   -5000001    1    1    2    0    0 -0.64279672616E+02 -0.58218440943E+00  0.16157423488E+03  0.21533102105E+03  0.12700000000E+03 0.  0.
<mgrwt>
<rscale>  0 0.32183006E+03</rscale>
<asrwt>0</asrwt>
<pdfrwt beam="1">  1        2 0.10090484E+00 0.32183006E+03</pdfrwt>
<pdfrwt beam="2">  1       -2 0.52370311E-02 0.32183006E+03</pdfrwt>
<totfact> 0.83013897E+03</totfact>
</mgrwt>
</event>
<event>
 4    1  0.9032007E-005  0.3712765E+03  0.7818608E-02  0.1054206E+00
          2   -1    0    0  501    0  0.00000000000E+00  0.00000000000E+00  0.13988022847E+04  0.13988022847E+04  0.25500000000E-02 0.  1.
         -2   -1    0    0    0  501 -0.00000000000E+00 -0.00000000000E+00 -0.24636470498E+02  0.24636470630E+02  0.25500000000E-02 0. -1.
    5000001    1    1    2    0    0 -0.64599011379E+02  0.11870785410E+03  0.65547598684E+03  0.68120654446E+03  0.12700000000E+03 0.  0.
   -5000001    1    1    2    0    0  0.64599011379E+02 -0.11870785410E+03  0.71868982734E+03  0.74223221084E+03  0.12700000000E+03 0.  0.
<mgrwt>
<rscale>  0 0.37127645E+03</rscale>
<asrwt>0</asrwt>
<pdfrwt beam="1">  1        2 0.19982890E+00 0.37127645E+03</pdfrwt>
<pdfrwt beam="2">  1       -2 0.35194958E-02 0.37127645E+03</pdfrwt>
<totfact> 0.58854675E+03</totfact>
</mgrwt>
</event>
<event>
 4    1  0.9032007E-005  0.3264822E+03  0.7818608E-02  0.1072704E+00
         -2   -1    0    0    0  501 -0.00000000000E+00  0.00000000000E+00  0.84970685445E+02  0.84970685483E+02  0.25500000000E-02 0. -1.
          2   -1    0    0  501    0  0.00000000000E+00 -0.00000000000E+00 -0.31360999685E+03  0.31360999686E+03  0.25500000000E-02 0.  1.
    5000001    1    1    2    0    0 -0.81614329770E+02  0.58681651682E+02 -0.89472712144E+02  0.18503729701E+03  0.12700000000E+03 0.  0.
   -5000001    1    1    2    0    0  0.81614329770E+02 -0.58681651682E+02 -0.13916659926E+03  0.21354338533E+03  0.12700000000E+03 0.  0.
<mgrwt>
<rscale>  0 0.32648220E+03</rscale>
<asrwt>0</asrwt>
<pdfrwt beam="1">  1        2 0.44801428E-01 0.32648220E+03</pdfrwt>
<pdfrwt beam="2">  1       -2 0.12138669E-01 0.32648220E+03</pdfrwt>
<totfact> 0.54851121E+03</totfact>
</mgrwt>
</event>
<event>
 4    1  0.9032007E-005  0.3744725E+03  0.7818608E-02  0.1052996E+00
         -2   -1    0    0    0  501 -0.00000000000E+00  0.00000000000E+00  0.12160119553E+03  0.12160119556E+03  0.25500000000E-02 0. -1.
          2   -1    0    0  501    0  0.00000000000E+00 -0.00000000000E+00 -0.28829831164E+03  0.28829831165E+03  0.25500000000E-02 0.  1.
    5000001    1    1    2    0    0  0.13197382811E+03  0.78530603065E+01 -0.41672164190E+02  0.18800088066E+03  0.12700000000E+03 0.  0.
   -5000001    1    1    2    0    0 -0.13197382811E+03 -0.78530603065E+01 -0.12502495192E+03  0.22189862655E+03  0.12700000000E+03 0.  0.
<mgrwt>
<rscale>  0 0.37447253E+03</rscale>
<asrwt>0</asrwt>
<pdfrwt beam="1">  1        2 0.41185473E-01 0.37447253E+03</pdfrwt>
<pdfrwt beam="2">  1       -2 0.17371600E-01 0.37447253E+03</pdfrwt>
<totfact> 0.33297181E+03</totfact>
</mgrwt>
</event>
<event>
 4    1  0.9032007E-005  0.2896313E+03  0.7818608E-02  0.1090542E+00
         -2   -1    0    0    0  501 -0.00000000000E+00  0.00000000000E+00  0.10927228105E+02  0.10927228403E+02  0.25500000000E-02 0. -1.
          2   -1    0    0  501    0  0.00000000000E+00 -0.00000000000E+00 -0.19192031647E+04  0.19192031647E+04  0.25500000000E-02 0.  1.
    5000001    1    1    2    0    0  0.25023832294E+02 -0.57203315003E+02 -0.74936912273E+03  0.76261490513E+03  0.12700000000E+03 0.  0.
   -5000001    1    1    2    0    0 -0.25023832294E+02  0.57203315003E+02 -0.11589068138E+04  0.11675154879E+04  0.12700000000E+03 0.  0.
<mgrwt>
<rscale>  0 0.28963129E+03</rscale>
<asrwt>0</asrwt>
<pdfrwt beam="1">  1        2 0.27417167E+00 0.28963129E+03</pdfrwt>
<pdfrwt beam="2">  1       -2 0.15610338E-02 0.28963129E+03</pdfrwt>
<totfact> 0.10776227E+04</totfact>
</mgrwt>
</event>
<event>
 4    1  0.9032007E-005  0.5522149E+03  0.7818608E-02  0.1000983E+00
         -2   -1    0    0    0  501 -0.00000000000E+00  0.00000000000E+00  0.52018647781E+02  0.52018647844E+02  0.25500000000E-02 0. -1.
          2   -1    0    0  501    0  0.00000000000E+00 -0.00000000000E+00 -0.14655385947E+04  0.14655385947E+04  0.25500000000E-02 0.  1.
    5000001    1    1    2    0    0  0.24318206938E+03 -0.10195666962E+02 -0.78757855422E+03  0.83405662251E+03  0.12700000000E+03 0.  0.
   -5000001    1    1    2    0    0 -0.24318206938E+03  0.10195666962E+02 -0.62594139268E+03  0.68350062002E+03  0.12700000000E+03 0.  0.
<mgrwt>
<rscale>  0 0.55221494E+03</rscale>
<asrwt>0</asrwt>
<pdfrwt beam="1">  1        2 0.20936263E+00 0.55221494E+03</pdfrwt>
<pdfrwt beam="2">  1       -2 0.74312364E-02 0.55221494E+03</pdfrwt>
<totfact> 0.17115355E+03</totfact>
</mgrwt>
</event>
<event>
 4    1  0.9032007E-005  0.3495979E+03  0.7818608E-02  0.1062780E+00
          2   -1    0    0  501    0  0.00000000000E+00  0.00000000000E+00  0.86239302958E+01  0.86239306728E+01  0.25500000000E-02 0.  1.
         -2   -1    0    0    0  501 -0.00000000000E+00 -0.00000000000E+00 -0.35430108489E+04  0.35430108489E+04  0.25500000000E-02 0. -1.
    5000001    1    1    2    0    0  0.11945518414E+03 -0.11208384161E+02 -0.17110779095E+04  0.17199743548E+04  0.12700000000E+03 0.  0.
   -5000001    1    1    2    0    0 -0.11945518414E+03  0.11208384161E+02 -0.18233090092E+04  0.18316604248E+04  0.12700000000E+03 0.  0.
<mgrwt>
<rscale>  0 0.34959794E+03</rscale>
<asrwt>0</asrwt>
<pdfrwt beam="1">  1        2 0.12319923E-02 0.34959794E+03</pdfrwt>
<pdfrwt beam="2">  1       -2 0.50614347E+00 0.34959794E+03</pdfrwt>
<totfact> 0.19631160E+01</totfact>
</mgrwt>
</event>
<event>
 4    1  0.9032007E-005  0.4573983E+03  0.7818608E-02  0.1025538E+00
          2   -1    0    0  501    0  0.00000000000E+00  0.00000000000E+00  0.19466443946E+04  0.19466443946E+04  0.25500000000E-02 0.  1.
         -2   -1    0    0    0  501 -0.00000000000E+00 -0.00000000000E+00 -0.26868445688E+02  0.26868445809E+02  0.25500000000E-02 0. -1.
    5000001    1    1    2    0    0 -0.11122749896E+03 -0.10428052172E+03  0.14504755180E+04  0.14639857281E+04  0.12700000000E+03 0.  0.
   -5000001    1    1    2    0    0  0.11122749896E+03  0.10428052172E+03  0.46930043089E+03  0.50952711230E+03  0.12700000000E+03 0.  0.
<mgrwt>
<rscale>  0 0.45739834E+03</rscale>
<asrwt>0</asrwt>
<pdfrwt beam="1">  1        2 0.27809216E+00 0.45739834E+03</pdfrwt>
<pdfrwt beam="2">  1       -2 0.38383480E-02 0.45739834E+03</pdfrwt>
<totfact> 0.27282698E+03</totfact>
</mgrwt>
</event>
<event>
 4    1  0.9032007E-005  0.5364562E+03  0.7818608E-02  0.1004678E+00
          2   -1    0    0  501    0  0.00000000000E+00  0.00000000000E+00  0.14713272601E+04  0.14713272601E+04  0.25500000000E-02 0.  1.
         -2   -1    0    0    0  501 -0.00000000000E+00 -0.00000000000E+00 -0.48898913976E+02  0.48898914043E+02  0.25500000000E-02 0. -1.
    5000001    1    1    2    0    0  0.93905503721E+02 -0.19729294236E+03  0.45657025993E+03  0.52185069798E+03  0.12700000000E+03 0.  0.
   -5000001    1    1    2    0    0 -0.93905503721E+02  0.19729294236E+03  0.96585808619E+03  0.99837547615E+03  0.12700000000E+03 0.  0.
<mgrwt>
<rscale>  0 0.53645617E+03</rscale>
<asrwt>0</asrwt>
<pdfrwt beam="1">  1        2 0.21018958E+00 0.53645617E+03</pdfrwt>
<pdfrwt beam="2">  1       -2 0.69855602E-02 0.53645617E+03</pdfrwt>
<totfact> 0.18749014E+03</totfact>
</mgrwt>
</event>
<event>
 4    1  0.9032007E-005  0.3860107E+03  0.7818608E-02  0.1048734E+00
          2   -1    0    0  501    0  0.00000000000E+00  0.00000000000E+00  0.76642088076E+03  0.76642088077E+03  0.25500000000E-02 0. -1.
         -2   -1    0    0    0  501 -0.00000000000E+00 -0.00000000000E+00 -0.48603938570E+02  0.48603938637E+02  0.25500000000E-02 0.  1.
    5000001    1    1    2    0    0  0.40867570450E+02 -0.10738279522E+03  0.54682169710E+03  0.57301325591E+03  0.12700000000E+03 0.  0.
   -5000001    1    1    2    0    0 -0.40867570450E+02  0.10738279522E+03  0.17099524509E+03  0.24201156350E+03  0.12700000000E+03 0.  0.
<mgrwt>
<rscale>  0 0.38601074E+03</rscale>
<asrwt>0</asrwt>
<pdfrwt beam="1">  1        2 0.10948869E+00 0.38601074E+03</pdfrwt>
<pdfrwt beam="2">  1       -2 0.69434202E-02 0.38601074E+03</pdfrwt>
<totfact> 0.48819956E+03</totfact>
</mgrwt>
</event>
<event>
 4    1  0.9032007E-005  0.3849838E+03  0.7818608E-02  0.1049107E+00
          2   -1    0    0  501    0  0.00000000000E+00  0.00000000000E+00  0.21497233103E+04  0.21497233103E+04  0.25500000000E-02 0.  1.
         -2   -1    0    0    0  501 -0.00000000000E+00 -0.00000000000E+00 -0.17236233326E+02  0.17236233514E+02  0.25500000000E-02 0. -1.
    5000001    1    1    2    0    0  0.89997163127E+02 -0.32684045429E+02  0.16765464687E+04  0.16840738694E+04  0.12700000000E+03 0.  0.
   -5000001    1    1    2    0    0 -0.89997163127E+02  0.32684045429E+02  0.45594060833E+03  0.48288567438E+03  0.12700000000E+03 0.  0.
<mgrwt>
<rscale>  0 0.38498381E+03</rscale>
<asrwt>0</asrwt>
<pdfrwt beam="1">  1        2 0.30710316E+00 0.38498381E+03</pdfrwt>
<pdfrwt beam="2">  1       -2 0.24623204E-02 0.38498381E+03</pdfrwt>
<totfact> 0.42346965E+03</totfact>
</mgrwt>
</event>
<event>
 4    1  0.9032007E-005  0.3233823E+03  0.7818608E-02  0.1074103E+00
         -2   -1    0    0    0  501 -0.00000000000E+00  0.00000000000E+00  0.13101882651E+02  0.13101882899E+02  0.25500000000E-02 0. -1.
          2   -1    0    0  501    0  0.00000000000E+00 -0.00000000000E+00 -0.19954404373E+04  0.19954404373E+04  0.25500000000E-02 0.  1.
    5000001    1    1    2    0    0  0.69778824855E+02  0.70487707023E+02 -0.10739011243E+04  0.10859236741E+04  0.12700000000E+03 0.  0.
   -5000001    1    1    2    0    0 -0.69778824855E+02 -0.70487707023E+02 -0.90843743033E+03  0.92261864606E+03  0.12700000000E+03 0.  0.
<mgrwt>
<rscale>  0 0.32338229E+03</rscale>
<asrwt>0</asrwt>
<pdfrwt beam="1">  1        2 0.28506273E+00 0.32338229E+03</pdfrwt>
<pdfrwt beam="2">  1       -2 0.18716988E-02 0.32338229E+03</pdfrwt>
<totfact> 0.75814641E+03</totfact>
</mgrwt>
</event>
<event>
 4    1  0.9032007E-005  0.3497785E+03  0.7818608E-02  0.1062706E+00
         -2   -1    0    0    0  501 -0.00000000000E+00  0.00000000000E+00  0.17555505605E+03  0.17555505607E+03  0.25500000000E-02 0. -1.
          2   -1    0    0  501    0  0.00000000000E+00 -0.00000000000E+00 -0.17422593202E+03  0.17422593204E+03  0.25500000000E-02 0.  1.
    5000001    1    1    2    0    0 -0.70772013965E+02 -0.61330355980E+02  0.76078319781E+02  0.17517705691E+03  0.12700000000E+03 0.  0.
   -5000001    1    1    2    0    0  0.70772013965E+02  0.61330355980E+02 -0.74749195747E+02  0.17460393120E+03  0.12700000000E+03 0.  0.
<mgrwt>
<rscale>  0 0.34977846E+03</rscale>
<asrwt>0</asrwt>
<pdfrwt beam="1">  1        2 0.24889419E-01 0.34977846E+03</pdfrwt>
<pdfrwt beam="2">  1       -2 0.25079294E-01 0.34977846E+03</pdfrwt>
<totfact> 0.30690171E+03</totfact>
</mgrwt>
</event>
<event>
 4    1  0.9032007E-005  0.8092576E+03  0.7818608E-02  0.9546713E-01
         -2   -1    0    0    0  501 -0.00000000000E+00  0.00000000000E+00  0.94131428853E+02  0.94131428888E+02  0.25500000000E-02 0. -1.
          2   -1    0    0  501    0  0.00000000000E+00 -0.00000000000E+00 -0.17393177560E+04  0.17393177560E+04  0.25500000000E-02 0.  1.
    5000001    1    1    2    0    0  0.30592837811E+03 -0.13925325177E+03 -0.12440900208E+04  0.12949411649E+04  0.12700000000E+03 0.  0.
   -5000001    1    1    2    0    0 -0.30592837811E+03  0.13925325177E+03 -0.40109630642E+03  0.53850802007E+03  0.12700000000E+03 0.  0.
<mgrwt>
<rscale>  0 0.80925760E+03</rscale>
<asrwt>0</asrwt>
<pdfrwt beam="1">  1        2 0.24847395E+00 0.80925760E+03</pdfrwt>
<pdfrwt beam="2">  1       -2 0.13447348E-01 0.80925760E+03</pdfrwt>
<totfact> 0.46575541E+02</totfact>
</mgrwt>
</event>
<event>
 4    1  0.9032007E-005  0.2881025E+03  0.7818608E-02  0.1091344E+00
          2   -1    0    0  501    0  0.00000000000E+00  0.00000000000E+00  0.40485808987E+03  0.40485808988E+03  0.25500000000E-02 0. -1.
         -2   -1    0    0    0  501 -0.00000000000E+00 -0.00000000000E+00 -0.51254412344E+02  0.51254412408E+02  0.25500000000E-02 0.  1.
    5000001    1    1    2    0    0  0.26259475923E+01 -0.62988379540E+02  0.21708174566E+03  0.25928346622E+03  0.12700000000E+03 0.  0.
   -5000001    1    1    2    0    0 -0.26259475923E+01  0.62988379540E+02  0.13652193187E+03  0.19682903607E+03  0.12700000000E+03 0.  0.
<mgrwt>
<rscale>  0 0.28810251E+03</rscale>
<asrwt>0</asrwt>
<pdfrwt beam="1">  1        2 0.57836867E-01 0.28810251E+03</pdfrwt>
<pdfrwt beam="2">  1       -2 0.73220593E-02 0.28810251E+03</pdfrwt>
<totfact> 0.92415633E+03</totfact>
</mgrwt>
</event>
<event>
 4    1  0.9032007E-005  0.5230370E+03  0.7818608E-02  0.1007935E+00
         -2   -1    0    0    0  501 -0.00000000000E+00  0.00000000000E+00  0.24239958252E+02  0.24239958386E+02  0.25500000000E-02 0. -1.
          2   -1    0    0  501    0  0.00000000000E+00 -0.00000000000E+00 -0.28214543392E+04  0.28214543392E+04  0.25500000000E-02 0.  1.
    5000001    1    1    2    0    0 -0.38593122179E+02  0.22516938656E+03 -0.13523598959E+04  0.13773877340E+04  0.12700000000E+03 0.  0.
   -5000001    1    1    2    0    0  0.38593122179E+02 -0.22516938656E+03 -0.14448544850E+04  0.14683065635E+04  0.12700000000E+03 0.  0.
<mgrwt>
<rscale>  0 0.52303704E+03</rscale>
<asrwt>0</asrwt>
<pdfrwt beam="1">  1        2 0.40306470E+00 0.52303704E+03</pdfrwt>
<pdfrwt beam="2">  1       -2 0.34628530E-02 0.52303704E+03</pdfrwt>
<totfact> 0.11431782E+03</totfact>
</mgrwt>
</event>
<event>
 4    1  0.9032007E-005  0.8991506E+03  0.7818608E-02  0.9426644E-01
         -2   -1    0    0    0  501 -0.00000000000E+00  0.00000000000E+00  0.95528154604E+03  0.95528154605E+03  0.25500000000E-02 0. -1.
          2   -1    0    0  501    0  0.00000000000E+00 -0.00000000000E+00 -0.21157946959E+03  0.21157946960E+03  0.25500000000E-02 0.  1.
    5000001    1    1    2    0    0 -0.26991714568E+03  0.23205958915E+03  0.55879281506E+02  0.38204503995E+03  0.12700000000E+03 0.  0.
   -5000001    1    1    2    0    0  0.26991714568E+03 -0.23205958915E+03  0.68782279495E+03  0.78481597569E+03  0.12700000000E+03 0.  0.
<mgrwt>
<rscale>  0 0.89915063E+03</rscale>
<asrwt>0</asrwt>
<pdfrwt beam="1">  1        2 0.30225638E-01 0.89915063E+03</pdfrwt>
<pdfrwt beam="2">  1       -2 0.13646879E+00 0.89915063E+03</pdfrwt>
<totfact> 0.67941812E+01</totfact>
</mgrwt>
</event>
<event>
 4    1  0.9032007E-005  0.6417448E+03  0.7818608E-02  0.9822394E-01
          2   -1    0    0  501    0  0.00000000000E+00  0.00000000000E+00  0.46079052038E+03  0.46079052039E+03  0.25500000000E-02 0.  1.
         -2   -1    0    0    0  501 -0.00000000000E+00 -0.00000000000E+00 -0.22344014737E+03  0.22344014739E+03  0.25500000000E-02 0. -1.
    5000001    1    1    2    0    0 -0.28874145531E+03 -0.55731394585E+02  0.13869272870E+03  0.34905914879E+03  0.12700000000E+03 0.  0.
   -5000001    1    1    2    0    0  0.28874145531E+03  0.55731394585E+02  0.98657644314E+02  0.33517151899E+03  0.12700000000E+03 0.  0.
<mgrwt>
<rscale>  0 0.64174481E+03</rscale>
<asrwt>0</asrwt>
<pdfrwt beam="1">  1        2 0.65827218E-01 0.64174481E+03</pdfrwt>
<pdfrwt beam="2">  1       -2 0.31920021E-01 0.64174481E+03</pdfrwt>
<totfact> 0.67583192E+02</totfact>
</mgrwt>
</event>
<event>
 4    1  0.9032007E-005  0.2877697E+03  0.7818608E-02  0.1091519E+00
         -2   -1    0    0    0  501 -0.00000000000E+00  0.00000000000E+00  0.46446849518E+01  0.46446856518E+01  0.25500000000E-02 0. -1.
          2   -1    0    0  501    0  0.00000000000E+00 -0.00000000000E+00 -0.44573205301E+04  0.44573205301E+04  0.25500000000E-02 0.  1.
    5000001    1    1    2    0    0  0.17838354113E+02 -0.61097855263E+02 -0.25808294358E+04  0.25847361048E+04  0.12700000000E+03 0.  0.
   -5000001    1    1    2    0    0 -0.17838354113E+02  0.61097855263E+02 -0.18718464093E+04  0.18772291109E+04  0.12700000000E+03 0.  0.
<mgrwt>
<rscale>  0 0.28776971E+03</rscale>
<asrwt>0</asrwt>
<pdfrwt beam="1">  1        2 0.63675733E+00 0.28776971E+03</pdfrwt>
<pdfrwt beam="2">  1       -2 0.66352933E-03 0.28776971E+03</pdfrwt>
<totfact> 0.13402612E+03</totfact>
</mgrwt>
</event>
<event>
 4    1  0.9032007E-005  0.3419224E+03  0.7818608E-02  0.1065980E+00
         -2   -1    0    0    0  501 -0.00000000000E+00  0.00000000000E+00  0.83893070491E+01  0.83893074366E+01  0.25500000000E-02 0. -1.
          2   -1    0    0  501    0  0.00000000000E+00 -0.00000000000E+00 -0.34839264190E+04  0.34839264190E+04  0.25500000000E-02 0.  1.
    5000001    1    1    2    0    0  0.10479771867E+02  0.32381555590E+02 -0.28538458796E+04  0.28568730626E+04  0.12700000000E+03 0.  0.
   -5000001    1    1    2    0    0 -0.10479771867E+02 -0.32381555590E+02 -0.62169123228E+03  0.63544266386E+03  0.12700000000E+03 0.  0.
<mgrwt>
<rscale>  0 0.34192238E+03</rscale>
<asrwt>0</asrwt>
<pdfrwt beam="1">  1        2 0.49770285E+00 0.34192238E+03</pdfrwt>
<pdfrwt beam="2">  1       -2 0.11984747E-02 0.34192238E+03</pdfrwt>
<totfact> 0.24377788E+03</totfact>
</mgrwt>
</event>
<event>
 4    1  0.9032007E-005  0.5357786E+03  0.7818608E-02  0.1004840E+00
          2   -1    0    0  501    0  0.00000000000E+00  0.00000000000E+00  0.56536711357E+03  0.56536711357E+03  0.25500000000E-02 0.  1.
         -2   -1    0    0    0  501 -0.00000000000E+00 -0.00000000000E+00 -0.12693465284E+03  0.12693465287E+03  0.25500000000E-02 0. -1.
    5000001    1    1    2    0    0 -0.16509846181E+03 -0.15599453177E+03  0.13704698013E+03  0.29411336386E+03  0.12700000000E+03 0.  0.
   -5000001    1    1    2    0    0  0.16509846181E+03  0.15599453177E+03  0.30138548059E+03  0.39818840258E+03  0.12700000000E+03 0.  0.
<mgrwt>
<rscale>  0 0.53577860E+03</rscale>
<asrwt>0</asrwt>
<pdfrwt beam="1">  1        2 0.80766730E-01 0.53577860E+03</pdfrwt>
<pdfrwt beam="2">  1       -2 0.18133522E-01 0.53577860E+03</pdfrwt>
<totfact> 0.14718569E+03</totfact>
</mgrwt>
</event>
<event>
 4    1  0.9032007E-005  0.3224373E+03  0.7818608E-02  0.1074533E+00
         -2   -1    0    0    0  501 -0.00000000000E+00  0.00000000000E+00  0.14391962352E+02  0.14391962578E+02  0.25500000000E-02 0. -1.
          2   -1    0    0  501    0  0.00000000000E+00 -0.00000000000E+00 -0.18059705059E+04  0.18059705059E+04  0.25500000000E-02 0.  1.
    5000001    1    1    2    0    0  0.61191705860E+02 -0.36091722200E+02 -0.50402056893E+03  0.52460725422E+03  0.12700000000E+03 0.  0.
   -5000001    1    1    2    0    0 -0.61191705860E+02  0.36091722200E+02 -0.12875579747E+04  0.12957552143E+04  0.12700000000E+03 0.  0.
<mgrwt>
<rscale>  0 0.32243734E+03</rscale>
<asrwt>0</asrwt>
<pdfrwt beam="1">  1        2 0.25799564E+00 0.32243734E+03</pdfrwt>
<pdfrwt beam="2">  1       -2 0.20559958E-02 0.32243734E+03</pdfrwt>
<totfact> 0.81764971E+03</totfact>
</mgrwt>
</event>
<event>
 4    1  0.9032007E-005  0.4324647E+03  0.7818608E-02  0.1033084E+00
          2   -1    0    0  501    0  0.00000000000E+00  0.00000000000E+00  0.17178366898E+03  0.17178366899E+03  0.25500000000E-02 0.  1.
         -2   -1    0    0    0  501 -0.00000000000E+00 -0.00000000000E+00 -0.27218209845E+03  0.27218209846E+03  0.25500000000E-02 0. -1.
    5000001    1    1    2    0    0  0.37534789077E+01 -0.15029633039E+03 -0.14216029886E+03  0.24277896553E+03  0.12700000000E+03 0.  0.
   -5000001    1    1    2    0    0 -0.37534789077E+01  0.15029633039E+03  0.41761869390E+02  0.20118680192E+03  0.12700000000E+03 0.  0.
<mgrwt>
<rscale>  0 0.43246475E+03</rscale>
<asrwt>0</asrwt>
<pdfrwt beam="1">  1        2 0.24540524E-01 0.43246475E+03</pdfrwt>
<pdfrwt beam="2">  1       -2 0.38883157E-01 0.43246475E+03</pdfrwt>
<totfact> 0.13937138E+03</totfact>
</mgrwt>
</event>
<event>
 4    1  0.9032007E-005  0.2626159E+03  0.7818608E-02  0.1105582E+00
          2   -1    0    0  501    0  0.00000000000E+00  0.00000000000E+00  0.96762094446E+02  0.96762094480E+02  0.25500000000E-02 0.  1.
         -2   -1    0    0    0  501 -0.00000000000E+00 -0.00000000000E+00 -0.17818727562E+03  0.17818727564E+03  0.25500000000E-02 0. -1.
    5000001    1    1    2    0    0  0.25216869580E+01  0.32866686831E+02 -0.35354017270E+02  0.13588776452E+03  0.12700000000E+03 0.  0.
   -5000001    1    1    2    0    0 -0.25216869580E+01 -0.32866686831E+02 -0.46071163900E+02  0.13906160560E+03  0.12700000000E+03 0.  0.
<mgrwt>
<rscale>  0 0.26261587E+03</rscale>
<asrwt>0</asrwt>
<pdfrwt beam="1">  1        2 0.13823156E-01 0.26261587E+03</pdfrwt>
<pdfrwt beam="2">  1       -2 0.25455325E-01 0.26261587E+03</pdfrwt>
<totfact> 0.58599727E+03</totfact>
</mgrwt>
</event>
<event>
 4    1  0.9032007E-005  0.3399353E+03  0.7818608E-02  0.1066823E+00
          2   -1    0    0  501    0  0.00000000000E+00  0.00000000000E+00  0.10925945756E+03  0.10925945759E+03  0.25500000000E-02 0.  1.
         -2   -1    0    0    0  501 -0.00000000000E+00 -0.00000000000E+00 -0.26440728166E+03  0.26440728167E+03  0.25500000000E-02 0. -1.
    5000001    1    1    2    0    0 -0.38228929992E+02  0.92675037156E+02 -0.20351856166E+02  0.16307455856E+03  0.12700000000E+03 0.  0.
   -5000001    1    1    2    0    0  0.38228929992E+02 -0.92675037156E+02 -0.13479596794E+03  0.21059218070E+03  0.12700000000E+03 0.  0.
<mgrwt>
<rscale>  0 0.33993527E+03</rscale>
<asrwt>0</asrwt>
<pdfrwt beam="1">  1        2 0.15608494E-01 0.33993527E+03</pdfrwt>
<pdfrwt beam="2">  1       -2 0.37772468E-01 0.33993527E+03</pdfrwt>
<totfact> 0.24814297E+03</totfact>
</mgrwt>
</event>
<event>
 4    1  0.9032007E-005  0.3476698E+03  0.7818608E-02  0.1063576E+00
          2   -1    0    0  501    0  0.00000000000E+00  0.00000000000E+00  0.20666788188E+04  0.20666788188E+04  0.25500000000E-02 0.  1.
         -2   -1    0    0    0  501 -0.00000000000E+00 -0.00000000000E+00 -0.14621803324E+02  0.14621803546E+02  0.25500000000E-02 0. -1.
    5000001    1    1    2    0    0  0.46252609788E+02 -0.10726680982E+03  0.89987254622E+03  0.91626692172E+03  0.12700000000E+03 0.  0.
   -5000001    1    1    2    0    0 -0.46252609788E+02  0.10726680982E+03  0.11521844693E+04  0.11650337006E+04  0.12700000000E+03 0.  0.
<mgrwt>
<rscale>  0 0.34766979E+03</rscale>
<asrwt>0</asrwt>
<pdfrwt beam="1">  1        2 0.29523973E+00 0.34766979E+03</pdfrwt>
<pdfrwt beam="2">  1       -2 0.20888298E-02 0.34766979E+03</pdfrwt>
<totfact> 0.59474372E+03</totfact>
</mgrwt>
</event>
<event>
 4    1  0.9032007E-005  0.4746496E+03  0.7818608E-02  0.1020616E+00
          2   -1    0    0  501    0  0.00000000000E+00  0.00000000000E+00  0.20877393081E+04  0.20877393081E+04  0.25500000000E-02 0.  1.
         -2   -1    0    0    0  501 -0.00000000000E+00 -0.00000000000E+00 -0.26978009978E+02  0.26978010099E+02  0.25500000000E-02 0. -1.
    5000001    1    1    2    0    0  0.29587088252E+02  0.18295489637E+03  0.68972573089E+03  0.72539539132E+03  0.12700000000E+03 0.  0.
   -5000001    1    1    2    0    0 -0.29587088252E+02 -0.18295489637E+03  0.13710355673E+04  0.13893219269E+04  0.12700000000E+03 0.  0.
<mgrwt>
<rscale>  0 0.47464956E+03</rscale>
<asrwt>0</asrwt>
<pdfrwt beam="1">  1        2 0.29824853E+00 0.47464956E+03</pdfrwt>
<pdfrwt beam="2">  1       -2 0.38540007E-02 0.47464956E+03</pdfrwt>
<totfact> 0.23051572E+03</totfact>
</mgrwt>
</event>
<event>
 4    1  0.9032007E-005  0.5402029E+03  0.7818608E-02  0.1003787E+00
          2   -1    0    0  501    0  0.00000000000E+00  0.00000000000E+00  0.25166371837E+04  0.25166371837E+04  0.25500000000E-02 0.  1.
         -2   -1    0    0    0  501 -0.00000000000E+00 -0.00000000000E+00 -0.28988998328E+02  0.28988998440E+02  0.25500000000E-02 0. -1.
    5000001    1    1    2    0    0 -0.14679964933E+03 -0.18774276437E+03  0.12688965692E+04  0.12973145285E+04  0.12700000000E+03 0.  0.
   -5000001    1    1    2    0    0  0.14679964933E+03  0.18774276437E+03  0.12187516162E+04  0.12483116536E+04  0.12700000000E+03 0.  0.
<mgrwt>
<rscale>  0 0.54020289E+03</rscale>
<asrwt>0</asrwt>
<pdfrwt beam="1">  1        2 0.35951965E+00 0.54020289E+03</pdfrwt>
<pdfrwt beam="2">  1       -2 0.41412848E-02 0.54020289E+03</pdfrwt>
<totfact> 0.12508551E+03</totfact>
</mgrwt>
</event>
<event>
 4    1  0.9032007E-005  0.3172209E+03  0.7818608E-02  0.1076935E+00
         -2   -1    0    0    0  501 -0.00000000000E+00  0.00000000000E+00  0.46272634562E+02  0.46272634633E+02  0.25500000000E-02 0. -1.
          2   -1    0    0  501    0  0.00000000000E+00 -0.00000000000E+00 -0.54367514412E+03  0.54367514413E+03  0.25500000000E-02 0.  1.
    5000001    1    1    2    0    0  0.80508968415E+02 -0.20674170551E+02 -0.16308934073E+03  0.22279193967E+03  0.12700000000E+03 0.  0.
   -5000001    1    1    2    0    0 -0.80508968415E+02  0.20674170551E+02 -0.33431316883E+03  0.36715583909E+03  0.12700000000E+03 0.  0.
<mgrwt>
<rscale>  0 0.31722094E+03</rscale>
<asrwt>0</asrwt>
<pdfrwt beam="1">  1        2 0.77667874E-01 0.31722094E+03</pdfrwt>
<pdfrwt beam="2">  1       -2 0.66103767E-02 0.31722094E+03</pdfrwt>
<totfact> 0.78527809E+03</totfact>
</mgrwt>
</event>
<event>
 4    1  0.9032007E-005  0.4618388E+03  0.7818608E-02  0.1024249E+00
         -2   -1    0    0    0  501 -0.00000000000E+00  0.00000000000E+00  0.12083951836E+04  0.12083951836E+04  0.25500000000E-02 0. -1.
          2   -1    0    0  501    0  0.00000000000E+00 -0.00000000000E+00 -0.44127760361E+02  0.44127760435E+02  0.25500000000E-02 0.  1.
    5000001    1    1    2    0    0 -0.11034205461E+03  0.11263707875E+03  0.88330749782E+03  0.90621389099E+03  0.12700000000E+03 0.  0.
   -5000001    1    1    2    0    0  0.11034205461E+03 -0.11263707875E+03  0.28095992539E+03  0.34630905301E+03  0.12700000000E+03 0.  0.
<mgrwt>
<rscale>  0 0.46183882E+03</rscale>
<asrwt>0</asrwt>
<pdfrwt beam="1">  1        2 0.63039651E-02 0.46183882E+03</pdfrwt>
<pdfrwt beam="2">  1       -2 0.17262790E+00 0.46183882E+03</pdfrwt>
<totfact> 0.25272543E+02</totfact>
</mgrwt>
</event>
<event>
 4    1  0.9032007E-005  0.3046688E+03  0.7818608E-02  0.1082930E+00
          2   -1    0    0  501    0  0.00000000000E+00  0.00000000000E+00  0.71172785137E+03  0.71172785138E+03  0.25500000000E-02 0.  1.
         -2   -1    0    0    0  501 -0.00000000000E+00 -0.00000000000E+00 -0.32604833930E+02  0.32604834030E+02  0.25500000000E-02 0. -1.
    5000001    1    1    2    0    0  0.51388523366E+02  0.26236537850E+02  0.48912224604E+03  0.50862432877E+03  0.12700000000E+03 0.  0.
   -5000001    1    1    2    0    0 -0.51388523366E+02 -0.26236537850E+02  0.19000077141E+03  0.23570835663E+03  0.12700000000E+03 0.  0.
<mgrwt>
<rscale>  0 0.30466879E+03</rscale>
<asrwt>0</asrwt>
<pdfrwt beam="1">  1        2 0.10167540E+00 0.30466879E+03</pdfrwt>
<pdfrwt beam="2">  1       -2 0.46578337E-02 0.30466879E+03</pdfrwt>
<totfact> 0.98176356E+03</totfact>
</mgrwt>
</event>
<event>
 4    1  0.9032007E-005  0.3082480E+03  0.7818608E-02  0.1081189E+00
          2   -1    0    0  501    0  0.00000000000E+00  0.00000000000E+00  0.10734226044E+04  0.10734226044E+04  0.25500000000E-02 0.  1.
         -2   -1    0    0    0  501 -0.00000000000E+00 -0.00000000000E+00 -0.22129409553E+02  0.22129409700E+02  0.25500000000E-02 0. -1.
    5000001    1    1    2    0    0 -0.80954137758E+02 -0.30864973055E+02  0.48687737343E+03  0.51057300725E+03  0.12700000000E+03 0.  0.
   -5000001    1    1    2    0    0  0.80954137758E+02  0.30864973055E+02  0.56441582138E+03  0.58497900681E+03  0.12700000000E+03 0.  0.
<mgrwt>
<rscale>  0 0.30824801E+03</rscale>
<asrwt>0</asrwt>
<pdfrwt beam="1">  1        2 0.15334612E+00 0.30824801E+03</pdfrwt>
<pdfrwt beam="2">  1       -2 0.31613435E-02 0.30824801E+03</pdfrwt>
<totfact> 0.10351510E+04</totfact>
</mgrwt>
</event>
<event>
 4    1  0.9032007E-005  0.6560550E+03  0.7818608E-02  0.9795483E-01
         -2   -1    0    0    0  501 -0.00000000000E+00  0.00000000000E+00  0.47671897961E+02  0.47671898029E+02  0.25500000000E-02 0. -1.
          2   -1    0    0  501    0  0.00000000000E+00 -0.00000000000E+00 -0.22571378833E+04  0.22571378833E+04  0.25500000000E-02 0.  1.
    5000001    1    1    2    0    0  0.81256970663E+02  0.26429323966E+03 -0.15352810419E+04  0.15651423224E+04  0.12700000000E+03 0.  0.
   -5000001    1    1    2    0    0 -0.81256970663E+02 -0.26429323966E+03 -0.67418494347E+03  0.73966745894E+03  0.12700000000E+03 0.  0.
<mgrwt>
<rscale>  0 0.65605502E+03</rscale>
<asrwt>0</asrwt>
<pdfrwt beam="1">  1        2 0.32244820E+00 0.65605502E+03</pdfrwt>
<pdfrwt beam="2">  1       -2 0.68102726E-02 0.65605502E+03</pdfrwt>
<totfact> 0.77543536E+02</totfact>
</mgrwt>
</event>
<event>
 4    1  0.9032007E-005  0.5141347E+03  0.7818608E-02  0.1010154E+00
         -2   -1    0    0    0  501 -0.00000000000E+00  0.00000000000E+00  0.32721484488E+02  0.32721484588E+02  0.25500000000E-02 0. -1.
          2   -1    0    0  501    0  0.00000000000E+00 -0.00000000000E+00 -0.20195789688E+04  0.20195789688E+04  0.25500000000E-02 0.  1.
    5000001    1    1    2    0    0  0.14684330961E+03 -0.16339374513E+03 -0.11577295737E+04  0.11852118964E+04  0.12700000000E+03 0.  0.
   -5000001    1    1    2    0    0 -0.14684330961E+03  0.16339374513E+03 -0.82912791060E+03  0.86708855699E+03  0.12700000000E+03 0.  0.
<mgrwt>
<rscale>  0 0.51413470E+03</rscale>
<asrwt>0</asrwt>
<pdfrwt beam="1">  1        2 0.28851120E+00 0.51413470E+03</pdfrwt>
<pdfrwt beam="2">  1       -2 0.46744991E-02 0.51413470E+03</pdfrwt>
<totfact> 0.18511732E+03</totfact>
</mgrwt>
</event>
<event>
 4    1  0.9032007E-005  0.6177276E+03  0.7818608E-02  0.9869295E-01
          2   -1    0    0  501    0  0.00000000000E+00  0.00000000000E+00  0.14126112064E+04  0.14126112065E+04  0.25500000000E-02 0.  1.
         -2   -1    0    0    0  501 -0.00000000000E+00 -0.00000000000E+00 -0.67532270510E+02  0.67532270558E+02  0.25500000000E-02 0. -1.
    5000001    1    1    2    0    0  0.38051681475E+02 -0.25997981049E+03  0.43018371330E+03  0.51983118367E+03  0.12700000000E+03 0.  0.
   -5000001    1    1    2    0    0 -0.38051681475E+02  0.25997981049E+03  0.91489522264E+03  0.96031229334E+03  0.12700000000E+03 0.  0.
<mgrwt>
<rscale>  0 0.61772758E+03</rscale>
<asrwt>0</asrwt>
<pdfrwt beam="1">  1        2 0.20180158E+00 0.61772758E+03</pdfrwt>
<pdfrwt beam="2">  1       -2 0.96474681E-02 0.61772758E+03</pdfrwt>
<totfact> 0.11995441E+03</totfact>
</mgrwt>
</event>
<event>
 4    1  0.9032007E-005  0.3562243E+03  0.7818608E-02  0.1060089E+00
         -2   -1    0    0    0  501 -0.00000000000E+00  0.00000000000E+00  0.42516096015E+02  0.42516096091E+02  0.25500000000E-02 0. -1.
          2   -1    0    0  501    0  0.00000000000E+00 -0.00000000000E+00 -0.74616305698E+03  0.74616305698E+03  0.25500000000E-02 0.  1.
    5000001    1    1    2    0    0  0.93604967624E+02 -0.79782751346E+02 -0.39970739624E+03  0.43706084243E+03  0.12700000000E+03 0.  0.
   -5000001    1    1    2    0    0 -0.93604967624E+02  0.79782751346E+02 -0.30393956473E+03  0.35161831065E+03  0.12700000000E+03 0.  0.
<mgrwt>
<rscale>  0 0.35622431E+03</rscale>
<asrwt>0</asrwt>
<pdfrwt beam="1">  1        2 0.10659471E+00 0.35622431E+03</pdfrwt>
<pdfrwt beam="2">  1       -2 0.60737285E-02 0.35622431E+03</pdfrwt>
<totfact> 0.62018162E+03</totfact>
</mgrwt>
</event>
<event>
 4    1  0.9032007E-005  0.3999860E+03  0.7818608E-02  0.1043785E+00
         -2   -1    0    0    0  501 -0.00000000000E+00  0.00000000000E+00  0.51335169648E+03  0.51335169649E+03  0.25500000000E-02 0. -1.
          2   -1    0    0  501    0  0.00000000000E+00 -0.00000000000E+00 -0.77913833365E+02  0.77913833407E+02  0.25500000000E-02 0.  1.
    5000001    1    1    2    0    0  0.13335723830E+03  0.53063167548E+02  0.30222770099E+03  0.35786930017E+03  0.12700000000E+03 0.  0.
   -5000001    1    1    2    0    0 -0.13335723830E+03 -0.53063167548E+02  0.13321016213E+03  0.23339622973E+03  0.12700000000E+03 0.  0.
<mgrwt>
<rscale>  0 0.39998599E+03</rscale>
<asrwt>0</asrwt>
<pdfrwt beam="1">  1        2 0.11130548E-01 0.39998599E+03</pdfrwt>
<pdfrwt beam="2">  1       -2 0.73335956E-01 0.39998599E+03</pdfrwt>
<totfact> 0.97431037E+02</totfact>
</mgrwt>
</event>
<event>
 4    1  0.9032007E-005  0.4058457E+03  0.7818608E-02  0.1041774E+00
          2   -1    0    0  501    0  0.00000000000E+00  0.00000000000E+00  0.11561778182E+04  0.11561778182E+04  0.25500000000E-02 0.  1.
         -2   -1    0    0    0  501 -0.00000000000E+00 -0.00000000000E+00 -0.35615359103E+02  0.35615359194E+02  0.25500000000E-02 0. -1.
    5000001    1    1    2    0    0 -0.15170309437E+02  0.11228362031E+03  0.23578142341E+03  0.29079138451E+03  0.12700000000E+03 0.  0.
   -5000001    1    1    2    0    0  0.15170309437E+02 -0.11228362031E+03  0.88478103571E+03  0.90100179291E+03  0.12700000000E+03 0.  0.
<mgrwt>
<rscale>  0 0.40584573E+03</rscale>
<asrwt>0</asrwt>
<pdfrwt beam="1">  1        2 0.16516824E+00 0.40584573E+03</pdfrwt>
<pdfrwt beam="2">  1       -2 0.50879089E-02 0.40584573E+03</pdfrwt>
<totfact> 0.45406619E+03</totfact>
</mgrwt>
</event>
<event>
 4    1  0.9032007E-005  0.3292509E+03  0.7818608E-02  0.1071469E+00
          2   -1    0    0  501    0  0.00000000000E+00  0.00000000000E+00  0.14527652672E+02  0.14527652895E+02  0.25500000000E-02 0.  1.
         -2   -1    0    0    0  501 -0.00000000000E+00 -0.00000000000E+00 -0.18655143903E+04  0.18655143903E+04  0.25500000000E-02 0. -1.
    5000001    1    1    2    0    0  0.65752256161E+02  0.40969186143E+02 -0.52291555645E+03  0.54366488996E+03  0.12700000000E+03 0.  0.
   -5000001    1    1    2    0    0 -0.65752256161E+02 -0.40969186143E+02 -0.13280711812E+04  0.13363771532E+04  0.12700000000E+03 0.  0.
<mgrwt>
<rscale>  0 0.32925094E+03</rscale>
<asrwt>0</asrwt>
<pdfrwt beam="1">  1        2 0.20753801E-02 0.32925094E+03</pdfrwt>
<pdfrwt beam="2">  1       -2 0.26650190E+00 0.32925094E+03</pdfrwt>
<totfact> 0.29866364E+02</totfact>
</mgrwt>
</event>
<event>
 4    1  0.9032007E-005  0.4342381E+03  0.7818608E-02  0.1032529E+00
         -2   -1    0    0    0  501 -0.00000000000E+00  0.00000000000E+00  0.34971620284E+03  0.34971620285E+03  0.25500000000E-02 0. -1.
          2   -1    0    0  501    0  0.00000000000E+00 -0.00000000000E+00 -0.13479697122E+03  0.13479697125E+03  0.25500000000E-02 0.  1.
    5000001    1    1    2    0    0 -0.14122098624E+03 -0.97459373572E+02  0.15167016238E+03  0.26186739890E+03  0.12700000000E+03 0.  0.
   -5000001    1    1    2    0    0  0.14122098624E+03  0.97459373572E+02  0.63249069241E+02  0.22264577519E+03  0.12700000000E+03 0.  0.
<mgrwt>
<rscale>  0 0.43423811E+03</rscale>
<asrwt>0</asrwt>
<pdfrwt beam="1">  1        2 0.19256710E-01 0.43423811E+03</pdfrwt>
<pdfrwt beam="2">  1       -2 0.49959457E-01 0.43423811E+03</pdfrwt>
<totfact> 0.11256724E+03</totfact>
</mgrwt>
</event>
<event>
 4    1  0.9032007E-005  0.4087428E+03  0.7818608E-02  0.1040794E+00
          2   -1    0    0  501    0  0.00000000000E+00  0.00000000000E+00  0.11507921212E+04  0.11507921212E+04  0.25500000000E-02 0.  1.
         -2   -1    0    0    0  501 -0.00000000000E+00 -0.00000000000E+00 -0.36294708502E+02  0.36294708591E+02  0.25500000000E-02 0. -1.
    5000001    1    1    2    0    0  0.24225711467E+02  0.15150731635E+03  0.42424492721E+03  0.46867271125E+03  0.12700000000E+03 0.  0.
   -5000001    1    1    2    0    0 -0.24225711467E+02 -0.15150731635E+03  0.69025248549E+03  0.71841411855E+03  0.12700000000E+03 0.  0.
<mgrwt>
<rscale>  0 0.40874278E+03</rscale>
<asrwt>0</asrwt>
<pdfrwt beam="1">  1        2 0.16439884E+00 0.40874278E+03</pdfrwt>
<pdfrwt beam="2">  1       -2 0.51849594E-02 0.40874278E+03</pdfrwt>
<totfact> 0.44416704E+03</totfact>
</mgrwt>
</event>
<event>
 4    1  0.9032007E-005  0.3066393E+03  0.7818608E-02  0.1081968E+00
         -2   -1    0    0    0  501 -0.00000000000E+00  0.00000000000E+00  0.30170373713E+02  0.30170373821E+02  0.25500000000E-02 0. -1.
          2   -1    0    0  501    0  0.00000000000E+00 -0.00000000000E+00 -0.77913888898E+03  0.77913888899E+03  0.25500000000E-02 0.  1.
    5000001    1    1    2    0    0  0.40161724517E+02 -0.23237253043E+02 -0.18370597293E+03  0.22810045711E+03  0.12700000000E+03 0.  0.
   -5000001    1    1    2    0    0 -0.40161724517E+02  0.23237253043E+02 -0.56526254234E+03  0.58120880569E+03  0.12700000000E+03 0.  0.
<mgrwt>
<rscale>  0 0.30663928E+03</rscale>
<asrwt>0</asrwt>
<pdfrwt beam="1">  1        2 0.11130554E+00 0.30663928E+03</pdfrwt>
<pdfrwt beam="2">  1       -2 0.43100539E-02 0.30663928E+03</pdfrwt>
<totfact> 0.98961857E+03</totfact>
</mgrwt>
</event>
<event>
 4    1  0.9032007E-005  0.6445169E+03  0.7818608E-02  0.9817122E-01
         -2   -1    0    0    0  501 -0.00000000000E+00  0.00000000000E+00  0.69450036060E+02  0.69450036107E+02  0.25500000000E-02 0. -1.
          2   -1    0    0  501    0  0.00000000000E+00 -0.00000000000E+00 -0.14953271303E+04  0.14953271303E+04  0.25500000000E-02 0.  1.
    5000001    1    1    2    0    0  0.11968355297E+03  0.20848250589E+02 -0.13687344066E+04  0.13799716223E+04  0.12700000000E+03 0.  0.
   -5000001    1    1    2    0    0 -0.11968355297E+03 -0.20848250589E+02 -0.57142687656E+02  0.18480554417E+03  0.12700000000E+03 0.  0.
<mgrwt>
<rscale>  0 0.64451695E+03</rscale>
<asrwt>0</asrwt>
<pdfrwt beam="1">  1        2 0.21361814E+00 0.64451695E+03</pdfrwt>
<pdfrwt beam="2">  1       -2 0.99214346E-02 0.64451695E+03</pdfrwt>
<totfact> 0.10359238E+03</totfact>
</mgrwt>
</event>
<event>
 4    1  0.9032007E-005  0.3824220E+03  0.7818608E-02  0.1050042E+00
          2   -1    0    0  501    0  0.00000000000E+00  0.00000000000E+00  0.14572036444E+04  0.14572036444E+04  0.25500000000E-02 0.  1.
         -2   -1    0    0    0  501 -0.00000000000E+00 -0.00000000000E+00 -0.25090284414E+02  0.25090284543E+02  0.25500000000E-02 0. -1.
    5000001    1    1    2    0    0  0.11617049073E+03  0.31458433123E+02  0.41713571145E+03  0.45234546278E+03  0.12700000000E+03 0.  0.
   -5000001    1    1    2    0    0 -0.11617049073E+03 -0.31458433123E+02  0.10149776485E+04  0.10299484661E+04  0.12700000000E+03 0.  0.
<mgrwt>
<rscale>  0 0.38242204E+03</rscale>
<asrwt>0</asrwt>
<pdfrwt beam="1">  1        2 0.20817203E+00 0.38242204E+03</pdfrwt>
<pdfrwt beam="2">  1       -2 0.35843250E-02 0.38242204E+03</pdfrwt>
<totfact> 0.53411971E+03</totfact>
</mgrwt>
</event>
<event>
 4    1  0.9032007E-005  0.6178878E+03  0.7818608E-02  0.9868974E-01
          2   -1    0    0  501    0  0.00000000000E+00  0.00000000000E+00  0.13185104940E+04  0.13185104940E+04  0.25500000000E-02 0.  1.
         -2   -1    0    0    0  501 -0.00000000000E+00 -0.00000000000E+00 -0.72389503599E+02  0.72389503644E+02  0.25500000000E-02 0. -1.
    5000001    1    1    2    0    0 -0.18818954409E+03  0.99615938762E+02  0.10380045729E+04  0.10672024799E+04  0.12700000000E+03 0.  0.
   -5000001    1    1    2    0    0  0.18818954409E+03 -0.99615938762E+02  0.20811641751E+03  0.32369751775E+03  0.12700000000E+03 0.  0.
<mgrwt>
<rscale>  0 0.61788776E+03</rscale>
<asrwt>0</asrwt>
<pdfrwt beam="1">  1        2 0.18835866E+00 0.61788776E+03</pdfrwt>
<pdfrwt beam="2">  1       -2 0.10341357E-01 0.61788776E+03</pdfrwt>
<totfact> 0.12036838E+03</totfact>
</mgrwt>
</event>
<event>
 4    1  0.9032007E-005  0.3929920E+03  0.7818608E-02  0.1046234E+00
          2   -1    0    0  501    0  0.00000000000E+00  0.00000000000E+00  0.55572429926E+03  0.55572429926E+03  0.25500000000E-02 0.  1.
         -2   -1    0    0    0  501 -0.00000000000E+00 -0.00000000000E+00 -0.69478130929E+02  0.69478130976E+02  0.25500000000E-02 0. -1.
    5000001    1    1    2    0    0  0.99887765598E+02  0.10463916008E+03  0.18039392928E+03  0.26381411877E+03  0.12700000000E+03 0.  0.
   -5000001    1    1    2    0    0 -0.99887765598E+02 -0.10463916008E+03  0.30585223905E+03  0.36138831147E+03  0.12700000000E+03 0.  0.
<mgrwt>
<rscale>  0 0.39299204E+03</rscale>
<asrwt>0</asrwt>
<pdfrwt beam="1">  1        2 0.79389187E-01 0.39299204E+03</pdfrwt>
<pdfrwt beam="2">  1       -2 0.99254471E-02 0.39299204E+03</pdfrwt>
<totfact> 0.40606872E+03</totfact>
</mgrwt>
</event>
<event>
 4    1  0.9032007E-005  0.4365448E+03  0.7818608E-02  0.1031812E+00
          2   -1    0    0  501    0  0.00000000000E+00  0.00000000000E+00  0.20208192902E+03  0.20208192903E+03  0.25500000000E-02 0.  1.
         -2   -1    0    0    0  501 -0.00000000000E+00 -0.00000000000E+00 -0.23576005931E+03  0.23576005932E+03  0.25500000000E-02 0. -1.
    5000001    1    1    2    0    0 -0.28894692469E+02  0.12309590228E+03  0.10813593519E+03  0.20930810995E+03  0.12700000000E+03 0.  0.
   -5000001    1    1    2    0    0  0.28894692469E+02 -0.12309590228E+03 -0.14181406548E+03  0.22853387840E+03  0.12700000000E+03 0.  0.
<mgrwt>
<rscale>  0 0.43654483E+03</rscale>
<asrwt>0</asrwt>
<pdfrwt beam="1">  1        2 0.28868847E-01 0.43654483E+03</pdfrwt>
<pdfrwt beam="2">  1       -2 0.33680008E-01 0.43654483E+03</pdfrwt>
<totfact> 0.15238284E+03</totfact>
</mgrwt>
</event>
<event>
 4    1  0.9032007E-005  0.7260407E+03  0.7818608E-02  0.9673707E-01
          2   -1    0    0  501    0  0.00000000000E+00  0.00000000000E+00  0.11241788271E+04  0.11241788271E+04  0.25500000000E-02 0.  1.
         -2   -1    0    0    0  501 -0.00000000000E+00 -0.00000000000E+00 -0.11722668843E+03  0.11722668845E+03  0.25500000000E-02 0. -1.
    5000001    1    1    2    0    0 -0.24691641470E+03  0.73797146665E+02  0.12405951611E+03  0.31294328279E+03  0.12700000000E+03 0.  0.
   -5000001    1    1    2    0    0  0.24691641470E+03 -0.73797146665E+02  0.88289262260E+03  0.92846223280E+03  0.12700000000E+03 0.  0.
<mgrwt>
<rscale>  0 0.72604066E+03</rscale>
<asrwt>0</asrwt>
<pdfrwt beam="1">  1        2 0.16059697E+00 0.72604066E+03</pdfrwt>
<pdfrwt beam="2">  1       -2 0.16746670E-01 0.72604066E+03</pdfrwt>
<totfact> 0.68999852E+02</totfact>
</mgrwt>
</event>
<event>
 4    1  0.9032007E-005  0.7523652E+03  0.7818608E-02  0.9631647E-01
         -2   -1    0    0    0  501 -0.00000000000E+00  0.00000000000E+00  0.43287703110E+02  0.43287703185E+02  0.25500000000E-02 0. -1.
          2   -1    0    0  501    0  0.00000000000E+00 -0.00000000000E+00 -0.32691353176E+04  0.32691353176E+04  0.25500000000E-02 0.  1.
    5000001    1    1    2    0    0  0.16117647956E+03 -0.28091913741E+03 -0.98269533780E+03  0.10424550572E+04  0.12700000000E+03 0.  0.
   -5000001    1    1    2    0    0 -0.16117647956E+03  0.28091913741E+03 -0.22431522767E+04  0.22699679636E+04  0.12700000000E+03 0.  0.
<mgrwt>
<rscale>  0 0.75236523E+03</rscale>
<asrwt>0</asrwt>
<pdfrwt beam="1">  1        2 0.46701917E+00 0.75236523E+03</pdfrwt>
<pdfrwt beam="2">  1       -2 0.61839597E-02 0.75236523E+03</pdfrwt>
<totfact> 0.25868531E+02</totfact>
</mgrwt>
</event>
<event>
 4    1  0.9032007E-005  0.3497791E+03  0.7818608E-02  0.1062706E+00
         -2   -1    0    0    0  501 -0.00000000000E+00  0.00000000000E+00  0.13234828863E+02  0.13234829109E+02  0.25500000000E-02 0. -1.
          2   -1    0    0  501    0  0.00000000000E+00 -0.00000000000E+00 -0.23110502112E+04  0.23110502113E+04  0.25500000000E-02 0.  1.
    5000001    1    1    2    0    0  0.62216146139E+02 -0.99360047730E+02 -0.97133715120E+03  0.98659420697E+03  0.12700000000E+03 0.  0.
   -5000001    1    1    2    0    0 -0.62216146139E+02  0.99360047730E+02 -0.13264782312E+04  0.13376908334E+04  0.12700000000E+03 0.  0.
<mgrwt>
<rscale>  0 0.34977910E+03</rscale>
<asrwt>0</asrwt>
<pdfrwt beam="1">  1        2 0.33014977E+00 0.34977910E+03</pdfrwt>
<pdfrwt beam="2">  1       -2 0.18906913E-02 0.34977910E+03</pdfrwt>
<totfact> 0.52208581E+03</totfact>
</mgrwt>
</event>
<event>
 4    1  0.9032007E-005  0.5213088E+03  0.7818608E-02  0.1008362E+00
          2   -1    0    0  501    0  0.00000000000E+00  0.00000000000E+00  0.11594641060E+04  0.11594641060E+04  0.25500000000E-02 0.  1.
         -2   -1    0    0    0  501 -0.00000000000E+00 -0.00000000000E+00 -0.58596651599E+02  0.58596651655E+02  0.25500000000E-02 0. -1.
    5000001    1    1    2    0    0 -0.15557207020E+03 -0.14700777065E+03  0.73138784338E+03  0.77257435312E+03  0.12700000000E+03 0.  0.
   -5000001    1    1    2    0    0  0.15557207020E+03  0.14700777065E+03  0.36947961097E+03  0.44548640449E+03  0.12700000000E+03 0.  0.
<mgrwt>
<rscale>  0 0.52130879E+03</rscale>
<asrwt>0</asrwt>
<pdfrwt beam="1">  1        2 0.16563773E+00 0.52130879E+03</pdfrwt>
<pdfrwt beam="2">  1       -2 0.83709503E-02 0.52130879E+03</pdfrwt>
<totfact> 0.20757678E+03</totfact>
</mgrwt>
</event>
<event>
 4    1  0.9032007E-005  0.3280404E+03  0.7818608E-02  0.1072007E+00
          2   -1    0    0  501    0  0.00000000000E+00  0.00000000000E+00  0.54041744911E+03  0.54041744912E+03  0.25500000000E-02 0.  1.
         -2   -1    0    0    0  501 -0.00000000000E+00 -0.00000000000E+00 -0.49781185386E+02  0.49781185451E+02  0.25500000000E-02 0. -1.
    5000001    1    1    2    0    0 -0.57759390903E+02  0.21508385104E+02  0.39557653136E+03  0.42001017848E+03  0.12700000000E+03 0.  0.
   -5000001    1    1    2    0    0  0.57759390903E+02 -0.21508385104E+02  0.95059732367E+02  0.17018845609E+03  0.12700000000E+03 0.  0.
<mgrwt>
<rscale>  0 0.32804037E+03</rscale>
<asrwt>0</asrwt>
<pdfrwt beam="1">  1        2 0.77202496E-01 0.32804037E+03</pdfrwt>
<pdfrwt beam="2">  1       -2 0.71115976E-02 0.32804037E+03</pdfrwt>
<totfact> 0.70652497E+03</totfact>
</mgrwt>
</event>
<event>
 4    1  0.9032007E-005  0.2780053E+03  0.7818608E-02  0.1096783E+00
          2   -1    0    0  501    0  0.00000000000E+00  0.00000000000E+00  0.15538778527E+03  0.15538778529E+03  0.25500000000E-02 0. -1.
         -2   -1    0    0    0  501 -0.00000000000E+00 -0.00000000000E+00 -0.12434523681E+03  0.12434523683E+03  0.25500000000E-02 0.  1.
    5000001    1    1    2    0    0 -0.39224664183E+02  0.31617251685E+02  0.41263587344E+02  0.14272318846E+03  0.12700000000E+03 0.  0.
   -5000001    1    1    2    0    0  0.39224664183E+02 -0.31617251685E+02 -0.10221038882E+02  0.13700983366E+03  0.12700000000E+03 0.  0.
<mgrwt>
<rscale>  0 0.27800526E+03</rscale>
<asrwt>0</asrwt>
<pdfrwt beam="1">  1        2 0.22198255E-01 0.27800526E+03</pdfrwt>
<pdfrwt beam="2">  1       -2 0.17763605E-01 0.27800526E+03</pdfrwt>
<totfact> 0.62957915E+03</totfact>
</mgrwt>
</event>
