<event>
 4    1  0.2209668E-005  0.7408291E+03  0.7818608E-02  0.9649849E-01
         -2   -1    0    0    0  501 -0.00000000000E+00  0.00000000000E+00  0.15642592495E+03  0.15642592497E+03  0.25500000000E-02 0. -1.
          2   -1    0    0  501    0  0.00000000000E+00 -0.00000000000E+00 -0.87713677987E+03  0.87713677987E+03  0.25500000000E-02 0.  1.
    5000001    1    1    2    0    0 -0.30485105578E+03  0.88050668089E+02 -0.31251511757E+03  0.48342195345E+03  0.18800000000E+03 0.  0.
   -5000001    1    1    2    0    0  0.30485105578E+03 -0.88050668089E+02 -0.40819573735E+03  0.55014075140E+03  0.18800000000E+03 0.  0.
<mgrwt>
<rscale>  0 0.74082908E+03</rscale>
<asrwt>0</asrwt>
<pdfrwt beam="1">  1        2 0.12530525E+00 0.74082908E+03</pdfrwt>
<pdfrwt beam="2">  1       -2 0.22346561E-01 0.74082908E+03</pdfrwt>
<totfact> 0.59231936E+02</totfact>
</mgrwt>
</event>
<event>
 4    1  0.2209668E-005  0.6220528E+03  0.7818608E-02  0.9860681E-01
         -2   -1    0    0    0  501 -0.00000000000E+00  0.00000000000E+00  0.11479787951E+03  0.11479787953E+03  0.25500000000E-02 0. -1.
          2   -1    0    0  501    0  0.00000000000E+00 -0.00000000000E+00 -0.84267595511E+03  0.84267595511E+03  0.25500000000E-02 0.  1.
    5000001    1    1    2    0    0 -0.27334832427E+02  0.23711551782E+03 -0.26157882131E+03  0.40092198944E+03  0.18800000000E+03 0.  0.
   -5000001    1    1    2    0    0  0.27334832427E+02 -0.23711551782E+03 -0.46629925429E+03  0.55655184521E+03  0.18800000000E+03 0.  0.
<mgrwt>
<rscale>  0 0.62205277E+03</rscale>
<asrwt>0</asrwt>
<pdfrwt beam="1">  1        2 0.12038228E+00 0.62205277E+03</pdfrwt>
<pdfrwt beam="2">  1       -2 0.16399698E-01 0.62205277E+03</pdfrwt>
<totfact> 0.10721484E+03</totfact>
</mgrwt>
</event>
<event>
 4    1  0.2209668E-005  0.7227349E+03  0.7818608E-02  0.9679123E-01
          2   -1    0    0  501    0  0.00000000000E+00  0.00000000000E+00  0.23422194687E+04  0.23422194687E+04  0.25500000000E-02 0.  1.
         -2   -1    0    0    0  501 -0.00000000000E+00 -0.00000000000E+00 -0.55753292184E+02  0.55753292242E+02  0.25500000000E-02 0. -1.
    5000001    1    1    2    0    0  0.24598957482E+03  0.18559515857E+03  0.10871208197E+04  0.11454833523E+04  0.18800000000E+03 0.  0.
   -5000001    1    1    2    0    0 -0.24598957482E+03 -0.18559515857E+03  0.11993453568E+04  0.12524894086E+04  0.18800000000E+03 0.  0.
<mgrwt>
<rscale>  0 0.72273493E+03</rscale>
<asrwt>0</asrwt>
<pdfrwt beam="1">  1        2 0.33460286E+00 0.72273493E+03</pdfrwt>
<pdfrwt beam="2">  1       -2 0.79647542E-02 0.72273493E+03</pdfrwt>
<totfact> 0.54464730E+02</totfact>
</mgrwt>
</event>
<event>
 4    1  0.2209668E-005  0.4509316E+03  0.7818608E-02  0.1027445E+00
         -2   -1    0    0    0  501 -0.00000000000E+00  0.00000000000E+00  0.10505816954E+03  0.10505816957E+03  0.25500000000E-02 0.  1.
          2   -1    0    0  501    0  0.00000000000E+00 -0.00000000000E+00 -0.48387315185E+03  0.48387315185E+03  0.25500000000E-02 0. -1.
    5000001    1    1    2    0    0  0.57123832887E+02  0.10979131786E+03 -0.17220144263E+03  0.28339831087E+03  0.18800000000E+03 0.  0.
   -5000001    1    1    2    0    0 -0.57123832887E+02 -0.10979131786E+03 -0.20661353968E+03  0.30553301055E+03  0.18800000000E+03 0.  0.
<mgrwt>
<rscale>  0 0.45093160E+03</rscale>
<asrwt>0</asrwt>
<pdfrwt beam="1">  1        2 0.69124735E-01 0.45093160E+03</pdfrwt>
<pdfrwt beam="2">  1       -2 0.15008310E-01 0.45093160E+03</pdfrwt>
<totfact> 0.24189663E+03</totfact>
</mgrwt>
</event>
<event>
 4    1  0.2209668E-005  0.5711035E+03  0.7818608E-02  0.9967240E-01
         -2   -1    0    0    0  501 -0.00000000000E+00  0.00000000000E+00  0.34514081409E+02  0.34514081504E+02  0.25500000000E-02 0. -1.
          2   -1    0    0  501    0  0.00000000000E+00 -0.00000000000E+00 -0.23625080875E+04  0.23625080875E+04  0.25500000000E-02 0.  1.
    5000001    1    1    2    0    0 -0.41750712822E+02 -0.20940227794E+03 -0.12670939246E+04  0.12986390761E+04  0.18800000000E+03 0.  0.
   -5000001    1    1    2    0    0  0.41750712822E+02  0.20940227794E+03 -0.10609000814E+04  0.10983830929E+04  0.18800000000E+03 0.  0.
<mgrwt>
<rscale>  0 0.57110348E+03</rscale>
<asrwt>0</asrwt>
<pdfrwt beam="1">  1        2 0.33750105E+00 0.57110348E+03</pdfrwt>
<pdfrwt beam="2">  1       -2 0.49305846E-02 0.57110348E+03</pdfrwt>
<totfact> 0.11428865E+03</totfact>
</mgrwt>
</event>
<event>
 4    1  0.2209668E-005  0.4301558E+03  0.7818608E-02  0.1033811E+00
         -2   -1    0    0    0  501 -0.00000000000E+00  0.00000000000E+00  0.77730121104E+02  0.77730121146E+02  0.25500000000E-02 0. -1.
          2   -1    0    0  501    0  0.00000000000E+00 -0.00000000000E+00 -0.59511677410E+03  0.59511677411E+03  0.25500000000E-02 0.  1.
    5000001    1    1    2    0    0  0.82059330117E+02  0.12543237163E+01 -0.15757342253E+03  0.25866714224E+03  0.18800000000E+03 0.  0.
   -5000001    1    1    2    0    0 -0.82059330117E+02 -0.12543237163E+01 -0.35981323047E+03  0.41417975301E+03  0.18800000000E+03 0.  0.
<mgrwt>
<rscale>  0 0.43015578E+03</rscale>
<asrwt>0</asrwt>
<pdfrwt beam="1">  1        2 0.85016680E-01 0.43015578E+03</pdfrwt>
<pdfrwt beam="2">  1       -2 0.11104303E-01 0.43015578E+03</pdfrwt>
<totfact> 0.31361150E+03</totfact>
</mgrwt>
</event>
<event>
 4    1  0.2209668E-005  0.4584623E+03  0.7818608E-02  0.1025228E+00
          2   -1    0    0  501    0  0.00000000000E+00  0.00000000000E+00  0.29327718387E+03  0.29327718388E+03  0.25500000000E-02 0.  1.
         -2   -1    0    0    0  501 -0.00000000000E+00 -0.00000000000E+00 -0.17917150068E+03  0.17917150069E+03  0.25500000000E-02 0. -1.
    5000001    1    1    2    0    0  0.99759841260E+02 -0.76349221850E+02  0.95908342596E+02  0.24560871276E+03  0.18800000000E+03 0.  0.
   -5000001    1    1    2    0    0 -0.99759841260E+02  0.76349221850E+02  0.18197340594E+02  0.22683997181E+03  0.18800000000E+03 0.  0.
<mgrwt>
<rscale>  0 0.45846227E+03</rscale>
<asrwt>0</asrwt>
<pdfrwt beam="1">  1        2 0.41896741E-01 0.45846227E+03</pdfrwt>
<pdfrwt beam="2">  1       -2 0.25595929E-01 0.45846227E+03</pdfrwt>
<totfact> 0.16695793E+03</totfact>
</mgrwt>
</event>
<event>
 4    1  0.2209668E-005  0.8825091E+03  0.7818608E-02  0.9447714E-01
         -2   -1    0    0    0  501 -0.00000000000E+00  0.00000000000E+00  0.66079746973E+02  0.66079747022E+02  0.25500000000E-02 0. -1.
          2   -1    0    0  501    0  0.00000000000E+00 -0.00000000000E+00 -0.29465241193E+04  0.29465241193E+04  0.25500000000E-02 0.  1.
    5000001    1    1    2    0    0 -0.31324221820E+03  0.18809796904E+03 -0.19891780172E+04  0.20311756983E+04  0.18800000000E+03 0.  0.
   -5000001    1    1    2    0    0  0.31324221820E+03 -0.18809796904E+03 -0.89126635513E+03  0.98142816803E+03  0.18800000000E+03 0.  0.
<mgrwt>
<rscale>  0 0.88250908E+03</rscale>
<asrwt>0</asrwt>
<pdfrwt beam="1">  1        2 0.42093193E+00 0.88250908E+03</pdfrwt>
<pdfrwt beam="2">  1       -2 0.94399657E-02 0.88250908E+03</pdfrwt>
<totfact> 0.19658689E+02</totfact>
</mgrwt>
</event>
<event>
 4    1  0.2209668E-005  0.5510367E+03  0.7818608E-02  0.1001254E+00
         -2   -1    0    0    0  501 -0.00000000000E+00  0.00000000000E+00  0.12341042598E+03  0.12341042601E+03  0.25500000000E-02 0. -1.
          2   -1    0    0  501    0  0.00000000000E+00 -0.00000000000E+00 -0.61510491515E+03  0.61510491515E+03  0.25500000000E-02 0.  1.
    5000001    1    1    2    0    0 -0.19106319029E+03 -0.23570500440E+02 -0.16649427540E+03  0.31642543343E+03  0.18800000000E+03 0.  0.
   -5000001    1    1    2    0    0  0.19106319029E+03  0.23570500440E+02 -0.32520021376E+03  0.42208990773E+03  0.18800000000E+03 0.  0.
<mgrwt>
<rscale>  0 0.55103669E+03</rscale>
<asrwt>0</asrwt>
<pdfrwt beam="1">  1        2 0.87872129E-01 0.55103669E+03</pdfrwt>
<pdfrwt beam="2">  1       -2 0.17630061E-01 0.55103669E+03</pdfrwt>
<totfact> 0.13996190E+03</totfact>
</mgrwt>
</event>
<event>
 4    1  0.2209668E-005  0.4823702E+03  0.7818608E-02  0.1018486E+00
         -2   -1    0    0    0  501 -0.00000000000E+00  0.00000000000E+00  0.50901212162E+03  0.50901212163E+03  0.25500000000E-02 0. -1.
          2   -1    0    0  501    0  0.00000000000E+00 -0.00000000000E+00 -0.11428069016E+03  0.11428069019E+03  0.25500000000E-02 0.  1.
    5000001    1    1    2    0    0 -0.50236238205E+02 -0.18337564091E+02  0.14782628815E+02  0.19601650951E+03  0.18800000000E+03 0.  0.
   -5000001    1    1    2    0    0  0.50236238205E+02  0.18337564091E+02  0.37994880264E+03  0.42727630231E+03  0.18800000000E+03 0.  0.
<mgrwt>
<rscale>  0 0.48237022E+03</rscale>
<asrwt>0</asrwt>
<pdfrwt beam="1">  1        2 0.16325813E-01 0.48237022E+03</pdfrwt>
<pdfrwt beam="2">  1       -2 0.72716018E-01 0.48237022E+03</pdfrwt>
<totfact> 0.62303129E+02</totfact>
</mgrwt>
</event>
<event>
 4    1  0.2209668E-005  0.4506365E+03  0.7818608E-02  0.1027532E+00
         -2   -1    0    0    0  501 -0.00000000000E+00  0.00000000000E+00  0.45309458691E+02  0.45309458763E+02  0.25500000000E-02 0. -1.
          2   -1    0    0  501    0  0.00000000000E+00 -0.00000000000E+00 -0.11204793748E+04  0.11204793748E+04  0.25500000000E-02 0.  1.
    5000001    1    1    2    0    0 -0.72836863580E+02 -0.10053214437E+03 -0.54669218153E+03  0.59129371897E+03  0.18800000000E+03 0.  0.
   -5000001    1    1    2    0    0  0.72836863580E+02  0.10053214437E+03 -0.52847773459E+03  0.57449511461E+03  0.18800000000E+03 0.  0.
<mgrwt>
<rscale>  0 0.45063650E+03</rscale>
<asrwt>0</asrwt>
<pdfrwt beam="1">  1        2 0.16006846E+00 0.45063650E+03</pdfrwt>
<pdfrwt beam="2">  1       -2 0.64727805E-02 0.45063650E+03</pdfrwt>
<totfact> 0.32778735E+03</totfact>
</mgrwt>
</event>
<event>
 4    1  0.2209668E-005  0.4305246E+03  0.7818608E-02  0.1033694E+00
          2   -1    0    0  501    0  0.00000000000E+00  0.00000000000E+00  0.17461896200E+04  0.17461896200E+04  0.25500000000E-02 0.  1.
         -2   -1    0    0    0  501 -0.00000000000E+00 -0.00000000000E+00 -0.26536552464E+02  0.26536552586E+02  0.25500000000E-02 0. -1.
    5000001    1    1    2    0    0 -0.45840810017E+02  0.45141304589E+02  0.12007359952E+04  0.12170661640E+04  0.18800000000E+03 0.  0.
   -5000001    1    1    2    0    0  0.45840810017E+02 -0.45141304589E+02  0.51891707228E+03  0.55566000859E+03  0.18800000000E+03 0.  0.
<mgrwt>
<rscale>  0 0.43052458E+03</rscale>
<asrwt>0</asrwt>
<pdfrwt beam="1">  1        2 0.24945569E+00 0.43052458E+03</pdfrwt>
<pdfrwt beam="2">  1       -2 0.37909356E-02 0.43052458E+03</pdfrwt>
<totfact> 0.35018933E+03</totfact>
</mgrwt>
</event>
<event>
 4    1  0.2209668E-005  0.1128933E+04  0.7818608E-02  0.9177442E-01
          2   -1    0    0  501    0  0.00000000000E+00  0.00000000000E+00  0.51142164182E+03  0.51142164183E+03  0.25500000000E-02 0.  1.
         -2   -1    0    0    0  501 -0.00000000000E+00 -0.00000000000E+00 -0.62301294724E+03  0.62301294724E+03  0.25500000000E-02 0. -1.
    5000001    1    1    2    0    0  0.33768010598E+03 -0.32008582469E+03  0.20391216863E+03  0.54167052869E+03  0.18800000000E+03 0.  0.
   -5000001    1    1    2    0    0 -0.33768010598E+03  0.32008582469E+03 -0.31550347404E+03  0.59276406038E+03  0.18800000000E+03 0.  0.
<mgrwt>
<rscale>  0 0.11289328E+04</rscale>
<asrwt>0</asrwt>
<pdfrwt beam="1">  1        2 0.73060235E-01 0.11289328E+04</pdfrwt>
<pdfrwt beam="2">  1       -2 0.89001849E-01 0.11289328E+04</pdfrwt>
<totfact> 0.70392809E+01</totfact>
</mgrwt>
</event>
<event>
 4    1  0.2209668E-005  0.4660044E+03  0.7818608E-02  0.1023054E+00
          2   -1    0    0  501    0  0.00000000000E+00  0.00000000000E+00  0.28097052657E+04  0.28097052657E+04  0.25500000000E-02 0.  1.
         -2   -1    0    0    0  501 -0.00000000000E+00 -0.00000000000E+00 -0.19322319211E+02  0.19322319380E+02  0.25500000000E-02 0. -1.
    5000001    1    1    2    0    0  0.13468805076E+03 -0.10205472119E+02  0.12344580997E+04  0.12559760438E+04  0.18800000000E+03 0.  0.
   -5000001    1    1    2    0    0 -0.13468805076E+03  0.10205472119E+02  0.15559248468E+04  0.15730515413E+04  0.18800000000E+03 0.  0.
<mgrwt>
<rscale>  0 0.46600439E+03</rscale>
<asrwt>0</asrwt>
<pdfrwt beam="1">  1        2 0.40138636E+00 0.46600439E+03</pdfrwt>
<pdfrwt beam="2">  1       -2 0.27603321E-02 0.46600439E+03</pdfrwt>
<totfact> 0.16424721E+03</totfact>
</mgrwt>
</event>
<event>
 4    1  0.2209668E-005  0.4251865E+03  0.7818608E-02  0.1035391E+00
         -2   -1    0    0    0  501 -0.00000000000E+00  0.00000000000E+00  0.29719501895E+02  0.29719502004E+02  0.25500000000E-02 0. -1.
          2   -1    0    0  501    0  0.00000000000E+00 -0.00000000000E+00 -0.15207487662E+04  0.15207487662E+04  0.25500000000E-02 0.  1.
    5000001    1    1    2    0    0 -0.51153813015E+02 -0.71192204184E+02 -0.91526008599E+03  0.93847219859E+03  0.18800000000E+03 0.  0.
   -5000001    1    1    2    0    0  0.51153813015E+02  0.71192204184E+02 -0.57576917827E+03  0.61199606957E+03  0.18800000000E+03 0.  0.
<mgrwt>
<rscale>  0 0.42518653E+03</rscale>
<asrwt>0</asrwt>
<pdfrwt beam="1">  1        2 0.21724978E+00 0.42518653E+03</pdfrwt>
<pdfrwt beam="2">  1       -2 0.42456441E-02 0.42518653E+03</pdfrwt>
<totfact> 0.38317582E+03</totfact>
</mgrwt>
</event>
<event>
 4    1  0.2209668E-005  0.4677028E+03  0.7818608E-02  0.1022571E+00
          2   -1    0    0  501    0  0.00000000000E+00  0.00000000000E+00  0.30948676306E+03  0.30948676307E+03  0.25500000000E-02 0.  1.
         -2   -1    0    0    0  501 -0.00000000000E+00 -0.00000000000E+00 -0.17670051322E+03  0.17670051324E+03  0.25500000000E-02 0. -1.
    5000001    1    1    2    0    0  0.37569507430E+02 -0.10625373926E+03 -0.18320862844E+02  0.21995676623E+03  0.18800000000E+03 0.  0.
   -5000001    1    1    2    0    0 -0.37569507430E+02  0.10625373926E+03  0.15110711268E+03  0.26623051008E+03  0.18800000000E+03 0.  0.
<mgrwt>
<rscale>  0 0.46770277E+03</rscale>
<asrwt>0</asrwt>
<pdfrwt beam="1">  1        2 0.44212394E-01 0.46770277E+03</pdfrwt>
<pdfrwt beam="2">  1       -2 0.25242931E-01 0.46770277E+03</pdfrwt>
<totfact> 0.16139265E+03</totfact>
</mgrwt>
</event>
<event>
 4    1  0.2209668E-005  0.4346620E+03  0.7818608E-02  0.1032397E+00
         -2   -1    0    0    0  501 -0.00000000000E+00  0.00000000000E+00  0.19446668556E+03  0.19446668558E+03  0.25500000000E-02 0. -1.
          2   -1    0    0  501    0  0.00000000000E+00 -0.00000000000E+00 -0.24288354340E+03  0.24288354342E+03  0.25500000000E-02 0.  1.
    5000001    1    1    2    0    0  0.36978167922E+02 -0.45653530823E+02  0.68213499807E+02  0.20844354472E+03  0.18800000000E+03 0.  0.
   -5000001    1    1    2    0    0 -0.36978167922E+02  0.45653530823E+02 -0.11663035765E+03  0.22890668427E+03  0.18800000000E+03 0.  0.
<mgrwt>
<rscale>  0 0.43466197E+03</rscale>
<asrwt>0</asrwt>
<pdfrwt beam="1">  1        2 0.34697649E-01 0.43466197E+03</pdfrwt>
<pdfrwt beam="2">  1       -2 0.27780955E-01 0.43466197E+03</pdfrwt>
<totfact> 0.17711641E+03</totfact>
</mgrwt>
</event>
<event>
 4    1  0.2209668E-005  0.4740294E+03  0.7818608E-02  0.1020789E+00
         -2   -1    0    0    0  501 -0.00000000000E+00  0.00000000000E+00  0.33019126942E+02  0.33019127041E+02  0.25500000000E-02 0.  1.
          2   -1    0    0  501    0  0.00000000000E+00 -0.00000000000E+00 -0.17013159242E+04  0.17013159242E+04  0.25500000000E-02 0. -1.
    5000001    1    1    2    0    0 -0.84788183558E+02  0.10152266324E+03 -0.62282581397E+03  0.66389146837E+03  0.18800000000E+03 0.  0.
   -5000001    1    1    2    0    0  0.84788183558E+02 -0.10152266324E+03 -0.10454709833E+04  0.10704435828E+04  0.18800000000E+03 0.  0.
<mgrwt>
<rscale>  0 0.47402939E+03</rscale>
<asrwt>0</asrwt>
<pdfrwt beam="1">  1        2 0.24304508E+00 0.47402939E+03</pdfrwt>
<pdfrwt beam="2">  1       -2 0.47170192E-02 0.47402939E+03</pdfrwt>
<totfact> 0.26383257E+03</totfact>
</mgrwt>
</event>
<event>
 4    1  0.2209668E-005  0.1299426E+04  0.7818608E-02  0.9030021E-01
         -2   -1    0    0    0  501 -0.00000000000E+00  0.00000000000E+00  0.23781173978E+03  0.23781173980E+03  0.25500000000E-02 0. -1.
          2   -1    0    0  501    0  0.00000000000E+00 -0.00000000000E+00 -0.17750455798E+04  0.17750455798E+04  0.25500000000E-02 0.  1.
    5000001    1    1    2    0    0 -0.61512375824E+03 -0.77525193946E+02 -0.69280454667E+03  0.94853019643E+03  0.18800000000E+03 0.  0.
   -5000001    1    1    2    0    0  0.61512375824E+03  0.77525193946E+02 -0.84442929335E+03  0.10643271232E+04  0.18800000000E+03 0.  0.
<mgrwt>
<rscale>  0 0.12994255E+04</rscale>
<asrwt>0</asrwt>
<pdfrwt beam="1">  1        2 0.25357793E+00 0.12994255E+04</pdfrwt>
<pdfrwt beam="2">  1       -2 0.33973107E-01 0.12994255E+04</pdfrwt>
<totfact> 0.83348802E+01</totfact>
</mgrwt>
</event>
<event>
 4    1  0.2209668E-005  0.4944057E+03  0.7818608E-02  0.1015250E+00
          2   -1    0    0  501    0  0.00000000000E+00  0.00000000000E+00  0.34686587566E+03  0.34686587567E+03  0.25500000000E-02 0.  1.
         -2   -1    0    0    0  501 -0.00000000000E+00 -0.00000000000E+00 -0.17617541482E+03  0.17617541484E+03  0.25500000000E-02 0. -1.
    5000001    1    1    2    0    0  0.12923841072E+03 -0.62414289054E+02  0.92990856052E+01  0.23670357681E+03  0.18800000000E+03 0.  0.
   -5000001    1    1    2    0    0 -0.12923841072E+03  0.62414289054E+02  0.16139137524E+03  0.28633771370E+03  0.18800000000E+03 0.  0.
<mgrwt>
<rscale>  0 0.49440566E+03</rscale>
<asrwt>0</asrwt>
<pdfrwt beam="1">  1        2 0.49552267E-01 0.49440566E+03</pdfrwt>
<pdfrwt beam="2">  1       -2 0.25167917E-01 0.49440566E+03</pdfrwt>
<totfact> 0.14323219E+03</totfact>
</mgrwt>
</event>
<event>
 4    1  0.2209668E-005  0.4913082E+03  0.7818608E-02  0.1016073E+00
          2   -1    0    0  501    0  0.00000000000E+00  0.00000000000E+00  0.49245746786E+03  0.49245746787E+03  0.25500000000E-02 0.  1.
         -2   -1    0    0    0  501 -0.00000000000E+00 -0.00000000000E+00 -0.12254040413E+03  0.12254040416E+03  0.25500000000E-02 0. -1.
    5000001    1    1    2    0    0  0.14939343656E+03 -0.39579763134E+02  0.14312327739E+03  0.28233531318E+03  0.18800000000E+03 0.  0.
   -5000001    1    1    2    0    0 -0.14939343656E+03  0.39579763134E+02  0.22679378634E+03  0.33266255885E+03  0.18800000000E+03 0.  0.
<mgrwt>
<rscale>  0 0.49130820E+03</rscale>
<asrwt>0</asrwt>
<pdfrwt beam="1">  1        2 0.70351068E-01 0.49130820E+03</pdfrwt>
<pdfrwt beam="2">  1       -2 0.17505772E-01 0.49130820E+03</pdfrwt>
<totfact> 0.18300302E+03</totfact>
</mgrwt>
</event>
<event>
 4    1  0.2209668E-005  0.6108632E+03  0.7818608E-02  0.9883121E-01
          2   -1    0    0  501    0  0.00000000000E+00  0.00000000000E+00  0.11000951021E+04  0.11000951021E+04  0.25500000000E-02 0.  1.
         -2   -1    0    0    0  501 -0.00000000000E+00 -0.00000000000E+00 -0.84800360673E+02  0.84800360711E+02  0.25500000000E-02 0. -1.
    5000001    1    1    2    0    0 -0.23272193598E+03  0.35146348169E+02  0.40970281681E+03  0.50852252987E+03  0.18800000000E+03 0.  0.
   -5000001    1    1    2    0    0  0.23272193598E+03 -0.35146348169E+02  0.60559192465E+03  0.67637293299E+03  0.18800000000E+03 0.  0.
<mgrwt>
<rscale>  0 0.61086320E+03</rscale>
<asrwt>0</asrwt>
<pdfrwt beam="1">  1        2 0.15715644E+00 0.61086320E+03</pdfrwt>
<pdfrwt beam="2">  1       -2 0.12114337E-01 0.61086320E+03</pdfrwt>
<totfact> 0.12315180E+03</totfact>
</mgrwt>
</event>
<event>
 4    1  0.2209668E-005  0.7305088E+03  0.7818608E-02  0.9666435E-01
          2   -1    0    0  501    0  0.00000000000E+00  0.00000000000E+00  0.42589824819E+03  0.42589824820E+03  0.25500000000E-02 0.  1.
         -2   -1    0    0    0  501 -0.00000000000E+00 -0.00000000000E+00 -0.31324564263E+03  0.31324564264E+03  0.25500000000E-02 0. -1.
    5000001    1    1    2    0    0  0.12174654472E+03 -0.28834907306E+03  0.46240456607E+02  0.36803476590E+03  0.18800000000E+03 0.  0.
   -5000001    1    1    2    0    0 -0.12174654472E+03  0.28834907306E+03  0.66412148955E+02  0.37110912494E+03  0.18800000000E+03 0.  0.
<mgrwt>
<rscale>  0 0.73050878E+03</rscale>
<asrwt>0</asrwt>
<pdfrwt beam="1">  1        2 0.60842607E-01 0.73050878E+03</pdfrwt>
<pdfrwt beam="2">  1       -2 0.44749377E-01 0.73050878E+03</pdfrwt>
<totfact> 0.38435287E+02</totfact>
</mgrwt>
</event>
<event>
 4    1  0.2209668E-005  0.9355652E+03  0.7818608E-02  0.9382184E-01
         -2   -1    0    0    0  501 -0.00000000000E+00  0.00000000000E+00  0.20431643704E+04  0.20431643704E+04  0.25500000000E-02 0. -1.
          2   -1    0    0  501    0  0.00000000000E+00 -0.00000000000E+00 -0.10709886280E+03  0.10709886283E+03  0.25500000000E-02 0.  1.
    5000001    1    1    2    0    0  0.42592154254E+03 -0.43021391133E+02  0.10018569013E+04  0.11055863834E+04  0.18800000000E+03 0.  0.
   -5000001    1    1    2    0    0 -0.42592154254E+03  0.43021391133E+02  0.93420860634E+03  0.10446768499E+04  0.18800000000E+03 0.  0.
<mgrwt>
<rscale>  0 0.93556524E+03</rscale>
<asrwt>0</asrwt>
<pdfrwt beam="1">  1        2 0.15299838E-01 0.93556524E+03</pdfrwt>
<pdfrwt beam="2">  1       -2 0.29188061E+00 0.93556524E+03</pdfrwt>
<totfact> 0.14244557E+01</totfact>
</mgrwt>
</event>
<event>
 4    1  0.2209668E-005  0.6268334E+03  0.7818608E-02  0.9851248E-01
          2   -1    0    0  501    0  0.00000000000E+00  0.00000000000E+00  0.24976626461E+04  0.24976626461E+04  0.25500000000E-02 0.  1.
         -2   -1    0    0    0  501 -0.00000000000E+00 -0.00000000000E+00 -0.39328786622E+02  0.39328786704E+02  0.25500000000E-02 0. -1.
    5000001    1    1    2    0    0 -0.63332854043E+02  0.24021040451E+03  0.13678399934E+04  0.14028693226E+04  0.18800000000E+03 0.  0.
   -5000001    1    1    2    0    0  0.63332854043E+02 -0.24021040451E+03  0.10904938662E+04  0.11341221102E+04  0.18800000000E+03 0.  0.
<mgrwt>
<rscale>  0 0.62683344E+03</rscale>
<asrwt>0</asrwt>
<pdfrwt beam="1">  1        2 0.35680891E+00 0.62683344E+03</pdfrwt>
<pdfrwt beam="2">  1       -2 0.56183987E-02 0.62683344E+03</pdfrwt>
<totfact> 0.79270118E+02</totfact>
</mgrwt>
</event>
<event>
 4    1  0.2209668E-005  0.4468604E+03  0.7818608E-02  0.1028662E+00
          2   -1    0    0  501    0  0.00000000000E+00  0.00000000000E+00  0.95941830202E+02  0.95941830236E+02  0.25500000000E-02 0.  1.
         -2   -1    0    0    0  501 -0.00000000000E+00 -0.00000000000E+00 -0.52032629643E+03  0.52032629643E+03  0.25500000000E-02 0. -1.
    5000001    1    1    2    0    0  0.15005652846E+02 -0.11585309549E+03 -0.17013631488E+03  0.27917284072E+03  0.18800000000E+03 0.  0.
   -5000001    1    1    2    0    0 -0.15005652846E+02  0.11585309549E+03 -0.25424815134E+03  0.33709528596E+03  0.18800000000E+03 0.  0.
<mgrwt>
<rscale>  0 0.44686041E+03</rscale>
<asrwt>0</asrwt>
<pdfrwt beam="1">  1        2 0.13705976E-01 0.44686041E+03</pdfrwt>
<pdfrwt beam="2">  1       -2 0.74332327E-01 0.44686041E+03</pdfrwt>
<totfact> 0.73296107E+02</totfact>
</mgrwt>
</event>
<event>
 4    1  0.2209668E-005  0.6973558E+03  0.7818608E-02  0.9721765E-01
         -2   -1    0    0    0  501 -0.00000000000E+00  0.00000000000E+00  0.15998943256E+03  0.15998943258E+03  0.25500000000E-02 0. -1.
          2   -1    0    0  501    0  0.00000000000E+00 -0.00000000000E+00 -0.75990195587E+03  0.75990195587E+03  0.25500000000E-02 0.  1.
    5000001    1    1    2    0    0  0.25390487861E+03  0.14401847932E+03 -0.34215290228E+03  0.48746447902E+03  0.18800000000E+03 0.  0.
   -5000001    1    1    2    0    0 -0.25390487861E+03 -0.14401847932E+03 -0.25775962103E+03  0.43242690943E+03  0.18800000000E+03 0.  0.
<mgrwt>
<rscale>  0 0.69735581E+03</rscale>
<asrwt>0</asrwt>
<pdfrwt beam="1">  1        2 0.10855742E+00 0.69735581E+03</pdfrwt>
<pdfrwt beam="2">  1       -2 0.22855634E-01 0.69735581E+03</pdfrwt>
<totfact> 0.68625594E+02</totfact>
</mgrwt>
</event>
<event>
 4    1  0.2209668E-005  0.7881839E+03  0.7818608E-02  0.9577280E-01
         -2   -1    0    0    0  501 -0.00000000000E+00  0.00000000000E+00  0.72085413949E+02  0.72085413994E+02  0.25500000000E-02 0.  1.
          2   -1    0    0  501    0  0.00000000000E+00 -0.00000000000E+00 -0.21545058449E+04  0.21545058449E+04  0.25500000000E-02 0. -1.
    5000001    1    1    2    0    0 -0.89630752475E+02  0.28497636971E+03 -0.54608138001E+03  0.65022617348E+03  0.18800000000E+03 0.  0.
   -5000001    1    1    2    0    0  0.89630752475E+02 -0.28497636971E+03 -0.15363390510E+04  0.15763650854E+04  0.18800000000E+03 0.  0.
<mgrwt>
<rscale>  0 0.78818385E+03</rscale>
<asrwt>0</asrwt>
<pdfrwt beam="1">  1        2 0.30778651E+00 0.78818385E+03</pdfrwt>
<pdfrwt beam="2">  1       -2 0.10297918E-01 0.78818385E+03</pdfrwt>
<totfact> 0.44597784E+02</totfact>
</mgrwt>
</event>
<event>
 4    1  0.2209668E-005  0.9181782E+03  0.7818608E-02  0.9403139E-01
          2   -1    0    0  501    0  0.00000000000E+00  0.00000000000E+00  0.13632815786E+04  0.13632815786E+04  0.25500000000E-02 0.  1.
         -2   -1    0    0    0  501 -0.00000000000E+00 -0.00000000000E+00 -0.15459962195E+03  0.15459962197E+03  0.25500000000E-02 0. -1.
    5000001    1    1    2    0    0  0.19494221844E+03 -0.20844195900E+03  0.11110999773E+04  0.11624705065E+04  0.18800000000E+03 0.  0.
   -5000001    1    1    2    0    0 -0.19494221844E+03  0.20844195900E+03  0.97581979351E+02  0.35541069412E+03  0.18800000000E+03 0.  0.
<mgrwt>
<rscale>  0 0.91817823E+03</rscale>
<asrwt>0</asrwt>
<pdfrwt beam="1">  1        2 0.19475452E+00 0.91817823E+03</pdfrwt>
<pdfrwt beam="2">  1       -2 0.22085659E-01 0.91817823E+03</pdfrwt>
<totfact> 0.31030844E+02</totfact>
</mgrwt>
</event>
<event>
 4    1  0.2209668E-005  0.8343771E+03  0.7818608E-02  0.9511549E-01
          2   -1    0    0  501    0  0.00000000000E+00  0.00000000000E+00  0.10739808626E+04  0.10739808626E+04  0.25500000000E-02 0.  1.
         -2   -1    0    0    0  501 -0.00000000000E+00 -0.00000000000E+00 -0.16205716210E+03  0.16205716212E+03  0.25500000000E-02 0. -1.
    5000001    1    1    2    0    0  0.12671227061E+03  0.18453187191E+03  0.15029168407E+02  0.29270785295E+03  0.18800000000E+03 0.  0.
   -5000001    1    1    2    0    0 -0.12671227061E+03 -0.18453187191E+03  0.89689453205E+03  0.94333017173E+03  0.18800000000E+03 0.  0.
<mgrwt>
<rscale>  0 0.83437711E+03</rscale>
<asrwt>0</asrwt>
<pdfrwt beam="1">  1        2 0.15342584E+00 0.83437711E+03</pdfrwt>
<pdfrwt beam="2">  1       -2 0.23151022E-01 0.83437711E+03</pdfrwt>
<totfact> 0.41757182E+02</totfact>
</mgrwt>
</event>
<event>
 4    1  0.2209668E-005  0.6535180E+03  0.7818608E-02  0.9800200E-01
         -2   -1    0    0    0  501 -0.00000000000E+00  0.00000000000E+00  0.17843662170E+03  0.17843662172E+03  0.25500000000E-02 0. -1.
          2   -1    0    0  501    0  0.00000000000E+00 -0.00000000000E+00 -0.59837180705E+03  0.59837180705E+03  0.25500000000E-02 0.  1.
    5000001    1    1    2    0    0 -0.19122976767E+03  0.16416476037E+03 -0.10426032653E+03  0.33125988027E+03  0.18800000000E+03 0.  0.
   -5000001    1    1    2    0    0  0.19122976767E+03 -0.16416476037E+03 -0.31567485882E+03  0.44554854851E+03  0.18800000000E+03 0.  0.
<mgrwt>
<rscale>  0 0.65351800E+03</rscale>
<asrwt>0</asrwt>
<pdfrwt beam="1">  1        2 0.85481685E-01 0.65351800E+03</pdfrwt>
<pdfrwt beam="2">  1       -2 0.25490946E-01 0.65351800E+03</pdfrwt>
<totfact> 0.75580477E+02</totfact>
</mgrwt>
</event>
<event>
 4    1  0.2209668E-005  0.4208417E+03  0.7818608E-02  0.1036793E+00
         -2   -1    0    0    0  501 -0.00000000000E+00  0.00000000000E+00  0.28781922490E+02  0.28781922603E+02  0.25500000000E-02 0. -1.
          2   -1    0    0  501    0  0.00000000000E+00 -0.00000000000E+00 -0.15383588380E+04  0.15383588380E+04  0.25500000000E-02 0.  1.
    5000001    1    1    2    0    0  0.32131119580E+02 -0.77410172022E+02 -0.59212158830E+03  0.62687855196E+03  0.18800000000E+03 0.  0.
   -5000001    1    1    2    0    0 -0.32131119580E+02  0.77410172022E+02 -0.91745532722E+03  0.94026220865E+03  0.18800000000E+03 0.  0.
<mgrwt>
<rscale>  0 0.42084166E+03</rscale>
<asrwt>0</asrwt>
<pdfrwt beam="1">  1        2 0.21976550E+00 0.42084166E+03</pdfrwt>
<pdfrwt beam="2">  1       -2 0.41117042E-02 0.42084166E+03</pdfrwt>
<totfact> 0.39411508E+03</totfact>
</mgrwt>
</event>
<event>
 4    1  0.2209668E-005  0.6146207E+03  0.7818608E-02  0.9875528E-01
          2   -1    0    0  501    0  0.00000000000E+00  0.00000000000E+00  0.58853090014E+02  0.58853090069E+02  0.25500000000E-02 0. -1.
         -2   -1    0    0    0  501 -0.00000000000E+00 -0.00000000000E+00 -0.16046679349E+04  0.16046679349E+04  0.25500000000E-02 0.  1.
    5000001    1    1    2    0    0 -0.11789806932E+03  0.95014600791E+02 -0.12876415306E+04  0.13100734485E+04  0.18800000000E+03 0.  0.
   -5000001    1    1    2    0    0  0.11789806932E+03 -0.95014600791E+02 -0.25817331429E+03  0.35344757649E+03  0.18800000000E+03 0.  0.
<mgrwt>
<rscale>  0 0.61462075E+03</rscale>
<asrwt>0</asrwt>
<pdfrwt beam="1">  1        2 0.84075852E-02 0.61462075E+03</pdfrwt>
<pdfrwt beam="2">  1       -2 0.22923825E+00 0.61462075E+03</pdfrwt>
<totfact> 0.74126362E+01</totfact>
</mgrwt>
</event>
<event>
 4    1  0.2209668E-005  0.8339860E+03  0.7818608E-02  0.9512086E-01
         -2   -1    0    0    0  501 -0.00000000000E+00  0.00000000000E+00  0.72869044684E+02  0.72869044729E+02  0.25500000000E-02 0. -1.
          2   -1    0    0  501    0  0.00000000000E+00 -0.00000000000E+00 -0.23862417608E+04  0.23862417608E+04  0.25500000000E-02 0.  1.
    5000001    1    1    2    0    0 -0.36582455559E+03 -0.37828740436E+02 -0.98780103395E+03  0.10706789910E+04  0.18800000000E+03 0.  0.
   -5000001    1    1    2    0    0  0.36582455559E+03  0.37828740436E+02 -0.13255716822E+04  0.13884318146E+04  0.18800000000E+03 0.  0.
<mgrwt>
<rscale>  0 0.83398599E+03</rscale>
<asrwt>0</asrwt>
<pdfrwt beam="1">  1        2 0.34089163E+00 0.83398599E+03</pdfrwt>
<pdfrwt beam="2">  1       -2 0.10409865E-01 0.83398599E+03</pdfrwt>
<totfact> 0.33259689E+02</totfact>
</mgrwt>
</event>
<event>
 4    1  0.2209668E-005  0.6049727E+03  0.7818608E-02  0.9895143E-01
          2   -1    0    0  501    0  0.00000000000E+00  0.00000000000E+00  0.64701070863E+03  0.64701070864E+03  0.25500000000E-02 0.  1.
         -2   -1    0    0    0  501 -0.00000000000E+00 -0.00000000000E+00 -0.14141648377E+03  0.14141648379E+03  0.25500000000E-02 0. -1.
    5000001    1    1    2    0    0  0.21504371467E+03 -0.37649403753E+02  0.13269550934E+03  0.31719611445E+03  0.18800000000E+03 0.  0.
   -5000001    1    1    2    0    0 -0.21504371467E+03  0.37649403753E+02  0.37289871552E+03  0.47123107799E+03  0.18800000000E+03 0.  0.
<mgrwt>
<rscale>  0 0.60497266E+03</rscale>
<asrwt>0</asrwt>
<pdfrwt beam="1">  1        2 0.92430102E-01 0.60497266E+03</pdfrwt>
<pdfrwt beam="2">  1       -2 0.20202355E-01 0.60497266E+03</pdfrwt>
<totfact> 0.10411446E+03</totfact>
</mgrwt>
</event>
<event>
 4    1  0.2209668E-005  0.6605519E+03  0.7818608E-02  0.9787178E-01
         -2   -1    0    0    0  501 -0.00000000000E+00  0.00000000000E+00  0.56927526787E+02  0.56927526844E+02  0.25500000000E-02 0. -1.
          2   -1    0    0  501    0  0.00000000000E+00 -0.00000000000E+00 -0.19161592484E+04  0.19161592484E+04  0.25500000000E-02 0.  1.
    5000001    1    1    2    0    0  0.17210054904E+03  0.10593694383E+02 -0.30299911504E+03  0.39608495181E+03  0.18800000000E+03 0.  0.
   -5000001    1    1    2    0    0 -0.17210054904E+03 -0.10593694383E+02 -0.15562326066E+04  0.15770018234E+04  0.18800000000E+03 0.  0.
<mgrwt>
<rscale>  0 0.66055191E+03</rscale>
<asrwt>0</asrwt>
<pdfrwt beam="1">  1        2 0.27373700E+00 0.66055191E+03</pdfrwt>
<pdfrwt beam="2">  1       -2 0.81325050E-02 0.66055191E+03</pdfrwt>
<totfact> 0.86882620E+02</totfact>
</mgrwt>
</event>
<event>
 4    1  0.2209668E-005  0.5675657E+03  0.7818608E-02  0.9975080E-01
         -2   -1    0    0    0  501 -0.00000000000E+00  0.00000000000E+00  0.19565195173E+03  0.19565195174E+03  0.25500000000E-02 0. -1.
          2   -1    0    0  501    0  0.00000000000E+00 -0.00000000000E+00 -0.41161202827E+03  0.41161202827E+03  0.25500000000E-02 0.  1.
    5000001    1    1    2    0    0 -0.20814198941E+03 -0.62095448373E+01 -0.62246302359E+02  0.28736779283E+03  0.18800000000E+03 0.  0.
   -5000001    1    1    2    0    0  0.20814198941E+03  0.62095448373E+01 -0.15371377418E+03  0.31989618718E+03  0.18800000000E+03 0.  0.
<mgrwt>
<rscale>  0 0.56756567E+03</rscale>
<asrwt>0</asrwt>
<pdfrwt beam="1">  1        2 0.58801718E-01 0.56756567E+03</pdfrwt>
<pdfrwt beam="2">  1       -2 0.27950279E-01 0.56756567E+03</pdfrwt>
<totfact> 0.98088258E+02</totfact>
</mgrwt>
</event>
<event>
 4    1  0.2209668E-005  0.6764941E+03  0.7818608E-02  0.9758297E-01
          2   -1    0    0  501    0  0.00000000000E+00  0.00000000000E+00  0.26605755244E+04  0.26605755244E+04  0.25500000000E-02 0.  1.
         -2   -1    0    0    0  501 -0.00000000000E+00 -0.00000000000E+00 -0.43002373144E+02  0.43002373220E+02  0.25500000000E-02 0. -1.
    5000001    1    1    2    0    0  0.53603396378E+01 -0.24260529343E+03  0.18765223024E+04  0.19014641761E+04  0.18800000000E+03 0.  0.
   -5000001    1    1    2    0    0 -0.53603396378E+01  0.24260529343E+03  0.74105084889E+03  0.80211372154E+03  0.18800000000E+03 0.  0.
<mgrwt>
<rscale>  0 0.67649408E+03</rscale>
<asrwt>0</asrwt>
<pdfrwt beam="1">  1        2 0.38008221E+00 0.67649408E+03</pdfrwt>
<pdfrwt beam="2">  1       -2 0.61431963E-02 0.67649408E+03</pdfrwt>
<totfact> 0.56521290E+02</totfact>
</mgrwt>
</event>
<event>
 4    1  0.2209668E-005  0.5776466E+03  0.7818608E-02  0.9952899E-01
          2   -1    0    0  501    0  0.00000000000E+00  0.00000000000E+00  0.12530517503E+04  0.12530517503E+04  0.25500000000E-02 0.  1.
         -2   -1    0    0    0  501 -0.00000000000E+00 -0.00000000000E+00 -0.66572592013E+02  0.66572592062E+02  0.25500000000E-02 0. -1.
    5000001    1    1    2    0    0 -0.15802382641E+03 -0.14132560709E+03  0.72105733755E+03  0.77473359355E+03  0.18800000000E+03 0.  0.
   -5000001    1    1    2    0    0  0.15802382641E+03  0.14132560709E+03  0.46542182075E+03  0.54489074883E+03  0.18800000000E+03 0.  0.
<mgrwt>
<rscale>  0 0.57764662E+03</rscale>
<asrwt>0</asrwt>
<pdfrwt beam="1">  1        2 0.17900740E+00 0.57764662E+03</pdfrwt>
<pdfrwt beam="2">  1       -2 0.95103700E-02 0.57764662E+03</pdfrwt>
<totfact> 0.14985691E+03</totfact>
</mgrwt>
</event>
<event>
 4    1  0.2209668E-005  0.6338876E+03  0.7818608E-02  0.9837492E-01
         -2   -1    0    0    0  501 -0.00000000000E+00  0.00000000000E+00  0.36894301912E+02  0.36894302000E+02  0.25500000000E-02 0. -1.
          2   -1    0    0  501    0  0.00000000000E+00 -0.00000000000E+00 -0.27227341387E+04  0.27227341387E+04  0.25500000000E-02 0.  1.
    5000001    1    1    2    0    0 -0.67756043493E+01  0.23696184741E+03 -0.17539175575E+04  0.17798223575E+04  0.18800000000E+03 0.  0.
   -5000001    1    1    2    0    0  0.67756043493E+01 -0.23696184741E+03 -0.93192227932E+03  0.97980608318E+03  0.18800000000E+03 0.  0.
<mgrwt>
<rscale>  0 0.63388761E+03</rscale>
<asrwt>0</asrwt>
<pdfrwt beam="1">  1        2 0.38896189E+00 0.63388761E+03</pdfrwt>
<pdfrwt beam="2">  1       -2 0.52706163E-02 0.63388761E+03</pdfrwt>
<totfact> 0.66873746E+02</totfact>
</mgrwt>
</event>
<event>
 4    1  0.2209668E-005  0.6206811E+03  0.7818608E-02  0.9863405E-01
          2   -1    0    0  501    0  0.00000000000E+00  0.00000000000E+00  0.14456353138E+04  0.14456353138E+04  0.25500000000E-02 0.  1.
         -2   -1    0    0    0  501 -0.00000000000E+00 -0.00000000000E+00 -0.66622097268E+02  0.66622097317E+02  0.25500000000E-02 0. -1.
    5000001    1    1    2    0    0 -0.23212148994E+03  0.60504558785E+02  0.54689488052E+03  0.62608242114E+03  0.18800000000E+03 0.  0.
   -5000001    1    1    2    0    0  0.23212148994E+03 -0.60504558785E+02  0.83211833598E+03  0.88617498994E+03  0.18800000000E+03 0.  0.
<mgrwt>
<rscale>  0 0.62068110E+03</rscale>
<asrwt>0</asrwt>
<pdfrwt beam="1">  1        2 0.20651931E+00 0.62068110E+03</pdfrwt>
<pdfrwt beam="2">  1       -2 0.95174432E-02 0.62068110E+03</pdfrwt>
<totfact> 0.11777186E+03</totfact>
</mgrwt>
</event>
<event>
 4    1  0.2209668E-005  0.7221537E+03  0.7818608E-02  0.9680079E-01
          2   -1    0    0  501    0  0.00000000000E+00  0.00000000000E+00  0.20128049370E+04  0.20128049370E+04  0.25500000000E-02 0.  1.
         -2   -1    0    0    0  501 -0.00000000000E+00 -0.00000000000E+00 -0.64773534373E+02  0.64773534423E+02  0.25500000000E-02 0. -1.
    5000001    1    1    2    0    0 -0.28109939026E+03 -0.93967768064E+02  0.12178876064E+04  0.12674545477E+04  0.18800000000E+03 0.  0.
   -5000001    1    1    2    0    0  0.28109939026E+03  0.93967768064E+02  0.73014379625E+03  0.81012392375E+03  0.18800000000E+03 0.  0.
<mgrwt>
<rscale>  0 0.72215370E+03</rscale>
<asrwt>0</asrwt>
<pdfrwt beam="1">  1        2 0.28754358E+00 0.72215370E+03</pdfrwt>
<pdfrwt beam="2">  1       -2 0.92533615E-02 0.72215370E+03</pdfrwt>
<totfact> 0.62864377E+02</totfact>
</mgrwt>
</event>
<event>
 4    1  0.2209668E-005  0.6202116E+03  0.7818608E-02  0.9864339E-01
          2   -1    0    0  501    0  0.00000000000E+00  0.00000000000E+00  0.16877798687E+03  0.16877798689E+03  0.25500000000E-02 0.  1.
         -2   -1    0    0    0  501 -0.00000000000E+00 -0.00000000000E+00 -0.56977574570E+03  0.56977574570E+03  0.25500000000E-02 0. -1.
    5000001    1    1    2    0    0  0.55495256947E+02  0.18702106359E+03 -0.38016908453E+03  0.46682880652E+03  0.18800000000E+03 0.  0.
   -5000001    1    1    2    0    0 -0.55495256947E+02 -0.18702106359E+03 -0.20828674300E+02  0.27172492606E+03  0.18800000000E+03 0.  0.
<mgrwt>
<rscale>  0 0.62021159E+03</rscale>
<asrwt>0</asrwt>
<pdfrwt beam="1">  1        2 0.24111141E-01 0.62021159E+03</pdfrwt>
<pdfrwt beam="2">  1       -2 0.81396535E-01 0.62021159E+03</pdfrwt>
<totfact> 0.30689044E+02</totfact>
</mgrwt>
</event>
<event>
 4    1  0.2209668E-005  0.5716960E+03  0.7818608E-02  0.9965933E-01
          2   -1    0    0  501    0  0.00000000000E+00  0.00000000000E+00  0.64100953895E+03  0.64100953895E+03  0.25500000000E-02 0.  1.
         -2   -1    0    0    0  501 -0.00000000000E+00 -0.00000000000E+00 -0.12746937608E+03  0.12746937610E+03  0.25500000000E-02 0. -1.
    5000001    1    1    2    0    0  0.10972754284E+02  0.10493585620E+03  0.44553978585E+01  0.21562881492E+03  0.18800000000E+03 0.  0.
   -5000001    1    1    2    0    0 -0.10972754284E+02 -0.10493585620E+03  0.50908476501E+03  0.55285010013E+03  0.18800000000E+03 0.  0.
<mgrwt>
<rscale>  0 0.57169602E+03</rscale>
<asrwt>0</asrwt>
<pdfrwt beam="1">  1        2 0.91572793E-01 0.57169602E+03</pdfrwt>
<pdfrwt beam="2">  1       -2 0.18209911E-01 0.57169602E+03</pdfrwt>
<totfact> 0.12606633E+03</totfact>
</mgrwt>
</event>
<event>
 4    1  0.2209668E-005  0.4993956E+03  0.7818608E-02  0.1013937E+00
         -2   -1    0    0    0  501 -0.00000000000E+00  0.00000000000E+00  0.40368749905E+02  0.40368749986E+02  0.25500000000E-02 0. -1.
          2   -1    0    0  501    0  0.00000000000E+00 -0.00000000000E+00 -0.15444866543E+04  0.15444866543E+04  0.25500000000E-02 0.  1.
    5000001    1    1    2    0    0  0.14234562002E+03  0.59876904015E+02 -0.93038507751E+03  0.96166933590E+03  0.18800000000E+03 0.  0.
   -5000001    1    1    2    0    0 -0.14234562002E+03 -0.59876904015E+02 -0.57373282687E+03  0.62318606836E+03  0.18800000000E+03 0.  0.
<mgrwt>
<rscale>  0 0.49939562E+03</rscale>
<asrwt>0</asrwt>
<pdfrwt beam="1">  1        2 0.22064091E+00 0.49939562E+03</pdfrwt>
<pdfrwt beam="2">  1       -2 0.57669652E-02 0.49939562E+03</pdfrwt>
<totfact> 0.23219198E+03</totfact>
</mgrwt>
</event>
<event>
 4    1  0.2209668E-005  0.5090495E+03  0.7818608E-02  0.1011443E+00
          2   -1    0    0  501    0  0.00000000000E+00  0.00000000000E+00  0.11252151274E+04  0.11252151274E+04  0.25500000000E-02 0.  1.
         -2   -1    0    0    0  501 -0.00000000000E+00 -0.00000000000E+00 -0.57573751021E+02  0.57573751078E+02  0.25500000000E-02 0. -1.
    5000001    1    1    2    0    0  0.81780360813E+02 -0.10891127573E+03  0.77628310334E+03  0.81025252232E+03  0.18800000000E+03 0.  0.
   -5000001    1    1    2    0    0 -0.81780360813E+02  0.10891127573E+03  0.29135827306E+03  0.37253635618E+03  0.18800000000E+03 0.  0.
<mgrwt>
<rscale>  0 0.50904953E+03</rscale>
<asrwt>0</asrwt>
<pdfrwt beam="1">  1        2 0.16074502E+00 0.50904953E+03</pdfrwt>
<pdfrwt beam="2">  1       -2 0.82248215E-02 0.50904953E+03</pdfrwt>
<totfact> 0.22330326E+03</totfact>
</mgrwt>
</event>
<event>
 4    1  0.2209668E-005  0.4434928E+03  0.7818608E-02  0.1029681E+00
          2   -1    0    0  501    0  0.00000000000E+00  0.00000000000E+00  0.24574899300E+03  0.24574899301E+03  0.25500000000E-02 0.  1.
         -2   -1    0    0    0  501 -0.00000000000E+00 -0.00000000000E+00 -0.20008813034E+03  0.20008813036E+03  0.25500000000E-02 0. -1.
    5000001    1    1    2    0    0 -0.15360730419E+02  0.10947857940E+03  0.63116515106E+02  0.22704450195E+03  0.18800000000E+03 0.  0.
   -5000001    1    1    2    0    0  0.15360730419E+02 -0.10947857940E+03 -0.17455652450E+02  0.21879262142E+03  0.18800000000E+03 0.  0.
<mgrwt>
<rscale>  0 0.44349276E+03</rscale>
<asrwt>0</asrwt>
<pdfrwt beam="1">  1        2 0.35106999E-01 0.44349276E+03</pdfrwt>
<pdfrwt beam="2">  1       -2 0.28584018E-01 0.44349276E+03</pdfrwt>
<totfact> 0.16604813E+03</totfact>
</mgrwt>
</event>
<event>
 4    1  0.2209668E-005  0.5437691E+03  0.7818608E-02  0.1002947E+00
         -2   -1    0    0    0  501 -0.00000000000E+00  0.00000000000E+00  0.90279679492E+02  0.90279679528E+02  0.25500000000E-02 0. -1.
          2   -1    0    0  501    0  0.00000000000E+00 -0.00000000000E+00 -0.81880217623E+03  0.81880217623E+03  0.25500000000E-02 0.  1.
    5000001    1    1    2    0    0  0.16178077077E+03 -0.95605490837E+02 -0.26875136945E+03  0.37800096065E+03  0.18800000000E+03 0.  0.
   -5000001    1    1    2    0    0 -0.16178077077E+03  0.95605490837E+02 -0.45977112729E+03  0.53108089511E+03  0.18800000000E+03 0.  0.
<mgrwt>
<rscale>  0 0.54376906E+03</rscale>
<asrwt>0</asrwt>
<pdfrwt beam="1">  1        2 0.11697174E+00 0.54376906E+03</pdfrwt>
<pdfrwt beam="2">  1       -2 0.12897098E-01 0.54376906E+03</pdfrwt>
<totfact> 0.16667771E+03</totfact>
</mgrwt>
</event>
<event>
 4    1  0.2209668E-005  0.7159883E+03  0.7818608E-02  0.9690274E-01
          2   -1    0    0  501    0  0.00000000000E+00  0.00000000000E+00  0.12715607126E+04  0.12715607126E+04  0.25500000000E-02 0.  1.
         -2   -1    0    0    0  501 -0.00000000000E+00 -0.00000000000E+00 -0.10078936308E+03  0.10078936311E+03  0.25500000000E-02 0. -1.
    5000001    1    1    2    0    0 -0.20836523775E+03  0.21971281172E+03  0.52106824532E+03  0.63130492491E+03  0.18800000000E+03 0.  0.
   -5000001    1    1    2    0    0  0.20836523775E+03 -0.21971281172E+03  0.64970310424E+03  0.74104515085E+03  0.18800000000E+03 0.  0.
<mgrwt>
<rscale>  0 0.71598825E+03</rscale>
<asrwt>0</asrwt>
<pdfrwt beam="1">  1        2 0.18165152E+00 0.71598825E+03</pdfrwt>
<pdfrwt beam="2">  1       -2 0.14398481E-01 0.71598825E+03</pdfrwt>
<totfact> 0.73625707E+02</totfact>
</mgrwt>
</event>
<event>
 4    1  0.2209668E-005  0.4809169E+03  0.7818608E-02  0.1018883E+00
          2   -1    0    0  501    0  0.00000000000E+00  0.00000000000E+00  0.56632154652E+03  0.56632154653E+03  0.25500000000E-02 0.  1.
         -2   -1    0    0    0  501 -0.00000000000E+00 -0.00000000000E+00 -0.10209794219E+03  0.10209794222E+03  0.25500000000E-02 0. -1.
    5000001    1    1    2    0    0 -0.51013452626E+01 -0.12200425718E+03  0.35300151236E+03  0.41816878198E+03  0.18800000000E+03 0.  0.
   -5000001    1    1    2    0    0  0.51013452626E+01  0.12200425718E+03  0.11122209197E+03  0.25025070676E+03  0.18800000000E+03 0.  0.
<mgrwt>
<rscale>  0 0.48091689E+03</rscale>
<asrwt>0</asrwt>
<pdfrwt beam="1">  1        2 0.80903080E-01 0.48091689E+03</pdfrwt>
<pdfrwt beam="2">  1       -2 0.14585420E-01 0.48091689E+03</pdfrwt>
<totfact> 0.21228845E+03</totfact>
</mgrwt>
</event>
<event>
 4    1  0.2209668E-005  0.5676393E+03  0.7818608E-02  0.9974916E-01
          2   -1    0    0  501    0  0.00000000000E+00  0.00000000000E+00  0.75855304065E+03  0.75855304065E+03  0.25500000000E-02 0.  1.
         -2   -1    0    0    0  501 -0.00000000000E+00 -0.00000000000E+00 -0.10619376173E+03  0.10619376176E+03  0.25500000000E-02 0. -1.
    5000001    1    1    2    0    0 -0.73679132535E+02  0.19423680425E+03  0.25715307285E+03  0.38030021505E+03  0.18800000000E+03 0.  0.
   -5000001    1    1    2    0    0  0.73679132535E+02 -0.19423680425E+03  0.39520620607E+03  0.48444658737E+03  0.18800000000E+03 0.  0.
<mgrwt>
<rscale>  0 0.56763933E+03</rscale>
<asrwt>0</asrwt>
<pdfrwt beam="1">  1        2 0.10836472E+00 0.56763933E+03</pdfrwt>
<pdfrwt beam="2">  1       -2 0.15170537E-01 0.56763933E+03</pdfrwt>
<totfact> 0.14002663E+03</totfact>
</mgrwt>
</event>
<event>
 4    1  0.2209668E-005  0.1116453E+04  0.7818608E-02  0.9189302E-01
          2   -1    0    0  501    0  0.00000000000E+00  0.00000000000E+00  0.10681454700E+03  0.10681454703E+03  0.25500000000E-02 0.  1.
         -2   -1    0    0    0  501 -0.00000000000E+00 -0.00000000000E+00 -0.29173655067E+04  0.29173655067E+04  0.25500000000E-02 0. -1.
    5000001    1    1    2    0    0  0.36221045905E+03  0.35469517058E+03 -0.17812732601E+04  0.18615271977E+04  0.18800000000E+03 0.  0.
   -5000001    1    1    2    0    0 -0.36221045905E+03 -0.35469517058E+03 -0.10292776995E+04  0.11626528559E+04  0.18800000000E+03 0.  0.
<mgrwt>
<rscale>  0 0.11164534E+04</rscale>
<asrwt>0</asrwt>
<pdfrwt beam="1">  1        2 0.15259223E-01 0.11164534E+04</pdfrwt>
<pdfrwt beam="2">  1       -2 0.41676645E+00 0.11164534E+04</pdfrwt>
<totfact> 0.23066945E+00</totfact>
</mgrwt>
</event>
<event>
 4    1  0.2209668E-005  0.4504046E+03  0.7818608E-02  0.1027601E+00
         -2   -1    0    0    0  501 -0.00000000000E+00  0.00000000000E+00  0.35712640695E+02  0.35712640786E+02  0.25500000000E-02 0. -1.
          2   -1    0    0  501    0  0.00000000000E+00 -0.00000000000E+00 -0.14201152492E+04  0.14201152492E+04  0.25500000000E-02 0.  1.
    5000001    1    1    2    0    0  0.89073552235E+02 -0.84740241927E+02 -0.74402447784E+03  0.77719458949E+03  0.18800000000E+03 0.  0.
   -5000001    1    1    2    0    0 -0.89073552235E+02  0.84740241927E+02 -0.64037813067E+03  0.67863330050E+03  0.18800000000E+03 0.  0.
<mgrwt>
<rscale>  0 0.45040455E+03</rscale>
<asrwt>0</asrwt>
<pdfrwt beam="1">  1        2 0.20287357E+00 0.45040455E+03</pdfrwt>
<pdfrwt beam="2">  1       -2 0.51018067E-02 0.45040455E+03</pdfrwt>
<totfact> 0.32586595E+03</totfact>
</mgrwt>
</event>
<event>
 4    1  0.2209668E-005  0.5026473E+03  0.7818608E-02  0.1013090E+00
          2   -1    0    0  501    0  0.00000000000E+00  0.00000000000E+00  0.10983575806E+04  0.10983575806E+04  0.25500000000E-02 0.  1.
         -2   -1    0    0    0  501 -0.00000000000E+00 -0.00000000000E+00 -0.57507289939E+02  0.57507289995E+02  0.25500000000E-02 0. -1.
    5000001    1    1    2    0    0  0.99574603775E+02 -0.10038640159E+03  0.72386799136E+03  0.76113165764E+03  0.18800000000E+03 0.  0.
   -5000001    1    1    2    0    0 -0.99574603775E+02  0.10038640159E+03  0.31698229928E+03  0.39473321294E+03  0.18800000000E+03 0.  0.
<mgrwt>
<rscale>  0 0.50264726E+03</rscale>
<asrwt>0</asrwt>
<pdfrwt beam="1">  1        2 0.15690823E+00 0.50264726E+03</pdfrwt>
<pdfrwt beam="2">  1       -2 0.82153270E-02 0.50264726E+03</pdfrwt>
<totfact> 0.23182727E+03</totfact>
</mgrwt>
</event>
<event>
 4    1  0.2209668E-005  0.5196937E+03  0.7818608E-02  0.1008763E+00
         -2   -1    0    0    0  501 -0.00000000000E+00  0.00000000000E+00  0.28319951190E+02  0.28319951305E+02  0.25500000000E-02 0. -1.
          2   -1    0    0  501    0  0.00000000000E+00 -0.00000000000E+00 -0.23841987319E+04  0.23841987319E+04  0.25500000000E-02 0.  1.
    5000001    1    1    2    0    0  0.10706786318E+03  0.20898129922E+01 -0.50990702417E+03  0.55391070394E+03  0.18800000000E+03 0.  0.
   -5000001    1    1    2    0    0 -0.10706786318E+03 -0.20898129922E+01 -0.18459717566E+04  0.18586079793E+04  0.18800000000E+03 0.  0.
<mgrwt>
<rscale>  0 0.51969372E+03</rscale>
<asrwt>0</asrwt>
<pdfrwt beam="1">  1        2 0.34059969E+00 0.51969372E+03</pdfrwt>
<pdfrwt beam="2">  1       -2 0.40457088E-02 0.51969372E+03</pdfrwt>
<totfact> 0.15162125E+03</totfact>
</mgrwt>
</event>
<event>
 4    1  0.2209668E-005  0.5676211E+03  0.7818608E-02  0.9974957E-01
         -2   -1    0    0    0  501 -0.00000000000E+00  0.00000000000E+00  0.40398864578E+02  0.40398864659E+02  0.25500000000E-02 0. -1.
          2   -1    0    0  501    0  0.00000000000E+00 -0.00000000000E+00 -0.19938289319E+04  0.19938289319E+04  0.25500000000E-02 0.  1.
    5000001    1    1    2    0    0 -0.40338170001E+02 -0.87478025471E+02 -0.16559789692E+04  0.16693980710E+04  0.18800000000E+03 0.  0.
   -5000001    1    1    2    0    0  0.40338170001E+02  0.87478025471E+02 -0.29745109807E+03  0.36482972555E+03  0.18800000000E+03 0.  0.
<mgrwt>
<rscale>  0 0.56762109E+03</rscale>
<asrwt>0</asrwt>
<pdfrwt beam="1">  1        2 0.28483264E+00 0.56762109E+03</pdfrwt>
<pdfrwt beam="2">  1       -2 0.57712677E-02 0.56762109E+03</pdfrwt>
<totfact> 0.13717381E+03</totfact>
</mgrwt>
</event>
<event>
 4    1  0.2209668E-005  0.7170366E+03  0.7818608E-02  0.9688533E-01
          2   -1    0    0  501    0  0.00000000000E+00  0.00000000000E+00  0.25866159811E+03  0.25866159812E+03  0.25500000000E-02 0.  1.
         -2   -1    0    0    0  501 -0.00000000000E+00 -0.00000000000E+00 -0.49692479820E+03  0.49692479821E+03  0.25500000000E-02 0. -1.
    5000001    1    1    2    0    0  0.28885456147E+03 -0.97245300795E+02 -0.13731492321E+03  0.38352704513E+03  0.18800000000E+03 0.  0.
   -5000001    1    1    2    0    0 -0.28885456147E+03  0.97245300795E+02 -0.10094827688E+03  0.37205935120E+03  0.18800000000E+03 0.  0.
<mgrwt>
<rscale>  0 0.71703657E+03</rscale>
<asrwt>0</asrwt>
<pdfrwt beam="1">  1        2 0.36951657E-01 0.71703657E+03</pdfrwt>
<pdfrwt beam="2">  1       -2 0.70989257E-01 0.71703657E+03</pdfrwt>
<totfact> 0.25600828E+02</totfact>
</mgrwt>
</event>
<event>
 4    1  0.2209668E-005  0.6409966E+03  0.7818608E-02  0.9823822E-01
          2   -1    0    0  501    0  0.00000000000E+00  0.00000000000E+00  0.20802459233E+04  0.20802459233E+04  0.25500000000E-02 0.  1.
         -2   -1    0    0    0  501 -0.00000000000E+00 -0.00000000000E+00 -0.49378366212E+02  0.49378366278E+02  0.25500000000E-02 0. -1.
    5000001    1    1    2    0    0  0.61293301662E+02 -0.23964240559E+03  0.75404593551E+03  0.81554559912E+03  0.18800000000E+03 0.  0.
   -5000001    1    1    2    0    0 -0.61293301662E+02  0.23964240559E+03  0.12768216216E+04  0.13140786904E+04  0.18800000000E+03 0.  0.
<mgrwt>
<rscale>  0 0.64099655E+03</rscale>
<asrwt>0</asrwt>
<pdfrwt beam="1">  1        2 0.29717805E+00 0.64099655E+03</pdfrwt>
<pdfrwt beam="2">  1       -2 0.70540509E-02 0.64099655E+03</pdfrwt>
<totfact> 0.90173267E+02</totfact>
</mgrwt>
</event>
<event>
 4    1  0.2209668E-005  0.7352030E+03  0.7818608E-02  0.9658855E-01
          2   -1    0    0  501    0  0.00000000000E+00  0.00000000000E+00  0.64989350611E+03  0.64989350612E+03  0.25500000000E-02 0.  1.
         -2   -1    0    0    0  501 -0.00000000000E+00 -0.00000000000E+00 -0.20792772672E+03  0.20792772673E+03  0.25500000000E-02 0. -1.
    5000001    1    1    2    0    0 -0.28881647364E+03 -0.12661179277E+03  0.19942495506E+03  0.41780355936E+03  0.18800000000E+03 0.  0.
   -5000001    1    1    2    0    0  0.28881647364E+03  0.12661179277E+03  0.24254082433E+03  0.44001767349E+03  0.18800000000E+03 0.  0.
<mgrwt>
<rscale>  0 0.73520304E+03</rscale>
<asrwt>0</asrwt>
<pdfrwt beam="1">  1        2 0.92841930E-01 0.73520304E+03</pdfrwt>
<pdfrwt beam="2">  1       -2 0.29703961E-01 0.73520304E+03</pdfrwt>
<totfact> 0.51686810E+02</totfact>
</mgrwt>
</event>
<event>
 4    1  0.2209668E-005  0.5077935E+03  0.7818608E-02  0.1011764E+00
          2   -1    0    0  501    0  0.00000000000E+00  0.00000000000E+00  0.16111956316E+04  0.16111956316E+04  0.25500000000E-02 0.  1.
         -2   -1    0    0    0  501 -0.00000000000E+00 -0.00000000000E+00 -0.40009761921E+02  0.40009762003E+02  0.25500000000E-02 0. -1.
    5000001    1    1    2    0    0  0.50605538494E+02  0.12883962968E+03  0.11100979975E+04  0.11343818293E+04  0.18800000000E+03 0.  0.
   -5000001    1    1    2    0    0 -0.50605538494E+02 -0.12883962968E+03  0.46108787220E+03  0.51682356428E+03  0.18800000000E+03 0.  0.
<mgrwt>
<rscale>  0 0.50779348E+03</rscale>
<asrwt>0</asrwt>
<pdfrwt beam="1">  1        2 0.23017077E+00 0.50779348E+03</pdfrwt>
<pdfrwt beam="2">  1       -2 0.57156811E-02 0.50779348E+03</pdfrwt>
<totfact> 0.21758785E+03</totfact>
</mgrwt>
</event>
<event>
 4    1  0.2209668E-005  0.1023807E+04  0.7818608E-02  0.9282812E-01
         -2   -1    0    0    0  501 -0.00000000000E+00  0.00000000000E+00  0.41267390175E+03  0.41267390176E+03  0.25500000000E-02 0. -1.
          2   -1    0    0  501    0  0.00000000000E+00 -0.00000000000E+00 -0.63499384489E+03  0.63499384490E+03  0.25500000000E-02 0.  1.
    5000001    1    1    2    0    0 -0.46918286691E+03 -0.23309307039E+02 -0.31726799534E+02  0.50697778670E+03  0.18800000000E+03 0.  0.
   -5000001    1    1    2    0    0  0.46918286691E+03  0.23309307039E+02 -0.19059314361E+03  0.54068995995E+03  0.18800000000E+03 0.  0.
<mgrwt>
<rscale>  0 0.10238074E+04</rscale>
<asrwt>0</asrwt>
<pdfrwt beam="1">  1        2 0.90713406E-01 0.10238074E+04</pdfrwt>
<pdfrwt beam="2">  1       -2 0.58953415E-01 0.10238074E+04</pdfrwt>
<totfact> 0.13596383E+02</totfact>
</mgrwt>
</event>
<event>
 4    1  0.2209668E-005  0.8629063E+03  0.7818608E-02  0.9473176E-01
          2   -1    0    0  501    0  0.00000000000E+00  0.00000000000E+00  0.81891087188E+03  0.81891087188E+03  0.25500000000E-02 0.  1.
         -2   -1    0    0    0  501 -0.00000000000E+00 -0.00000000000E+00 -0.22731632383E+03  0.22731632385E+03  0.25500000000E-02 0. -1.
    5000001    1    1    2    0    0 -0.12421279384E+03 -0.28951143933E+03  0.20483620285E+02  0.36743607656E+03  0.18800000000E+03 0.  0.
   -5000001    1    1    2    0    0  0.12421279384E+03  0.28951143933E+03  0.57111092776E+03  0.67879111917E+03  0.18800000000E+03 0.  0.
<mgrwt>
<rscale>  0 0.86290627E+03</rscale>
<asrwt>0</asrwt>
<pdfrwt beam="1">  1        2 0.11698727E+00 0.86290627E+03</pdfrwt>
<pdfrwt beam="2">  1       -2 0.32473761E-01 0.86290627E+03</pdfrwt>
<totfact> 0.32620072E+02</totfact>
</mgrwt>
</event>
<event>
 4    1  0.2209668E-005  0.5160093E+03  0.7818608E-02  0.1009683E+00
         -2   -1    0    0    0  501 -0.00000000000E+00  0.00000000000E+00  0.71207288440E+02  0.71207288485E+02  0.25500000000E-02 0. -1.
          2   -1    0    0  501    0  0.00000000000E+00 -0.00000000000E+00 -0.93482548673E+03  0.93482548674E+03  0.25500000000E-02 0.  1.
    5000001    1    1    2    0    0 -0.12651363380E+03  0.12106005384E+03 -0.38562474587E+03  0.46336991788E+03  0.18800000000E+03 0.  0.
   -5000001    1    1    2    0    0  0.12651363380E+03 -0.12106005384E+03 -0.47799345242E+03  0.54266285734E+03  0.18800000000E+03 0.  0.
<mgrwt>
<rscale>  0 0.51600926E+03</rscale>
<asrwt>0</asrwt>
<pdfrwt beam="1">  1        2 0.13354649E+00 0.51600926E+03</pdfrwt>
<pdfrwt beam="2">  1       -2 0.10172470E-01 0.51600926E+03</pdfrwt>
<totfact> 0.20638461E+03</totfact>
</mgrwt>
</event>
<event>
 4    1  0.2209668E-005  0.4574406E+03  0.7818608E-02  0.1025526E+00
         -2   -1    0    0    0  501 -0.00000000000E+00  0.00000000000E+00  0.42506005602E+02  0.42506005678E+02  0.25500000000E-02 0. -1.
          2   -1    0    0  501    0  0.00000000000E+00 -0.00000000000E+00 -0.12307194596E+04  0.12307194596E+04  0.25500000000E-02 0.  1.
    5000001    1    1    2    0    0 -0.75387579951E+00  0.63856934523E+02 -0.91012249503E+03  0.93152843884E+03  0.18800000000E+03 0.  0.
   -5000001    1    1    2    0    0  0.75387579951E+00 -0.63856934523E+02 -0.27809095896E+03  0.34169702643E+03  0.18800000000E+03 0.  0.
<mgrwt>
<rscale>  0 0.45744057E+03</rscale>
<asrwt>0</asrwt>
<pdfrwt beam="1">  1        2 0.17581704E+00 0.45744057E+03</pdfrwt>
<pdfrwt beam="2">  1       -2 0.60722873E-02 0.45744057E+03</pdfrwt>
<totfact> 0.31419683E+03</totfact>
</mgrwt>
</event>
<event>
 4    1  0.2209668E-005  0.6607954E+03  0.7818608E-02  0.9786731E-01
          2   -1    0    0  501    0  0.00000000000E+00  0.00000000000E+00  0.60664941465E+03  0.60664941466E+03  0.25500000000E-02 0.  1.
         -2   -1    0    0    0  501 -0.00000000000E+00 -0.00000000000E+00 -0.17994353707E+03  0.17994353709E+03  0.25500000000E-02 0. -1.
    5000001    1    1    2    0    0 -0.11034962888E+03  0.21083169018E+03  0.57275123768E+02  0.30862838816E+03  0.18800000000E+03 0.  0.
   -5000001    1    1    2    0    0  0.11034962888E+03 -0.21083169018E+03  0.36943075382E+03  0.47796456358E+03  0.18800000000E+03 0.  0.
<mgrwt>
<rscale>  0 0.66079540E+03</rscale>
<asrwt>0</asrwt>
<pdfrwt beam="1">  1        2 0.86664203E-01 0.66079540E+03</pdfrwt>
<pdfrwt beam="2">  1       -2 0.25706219E-01 0.66079540E+03</pdfrwt>
<totfact> 0.73232690E+02</totfact>
</mgrwt>
</event>
<event>
 4    1  0.2209668E-005  0.6841647E+03  0.7818608E-02  0.9744703E-01
         -2   -1    0    0    0  501 -0.00000000000E+00  0.00000000000E+00  0.10946560164E+03  0.10946560167E+03  0.25500000000E-02 0.  1.
          2   -1    0    0  501    0  0.00000000000E+00 -0.00000000000E+00 -0.10690147097E+04  0.10690147097E+04  0.25500000000E-02 0. -1.
    5000001    1    1    2    0    0  0.11775182216E+03  0.77717121318E+02 -0.51666290764E+02  0.24066335028E+03  0.18800000000E+03 0.  0.
   -5000001    1    1    2    0    0 -0.11775182216E+03 -0.77717121318E+02 -0.90788281727E+03  0.93781696107E+03  0.18800000000E+03 0.  0.
<mgrwt>
<rscale>  0 0.68416471E+03</rscale>
<asrwt>0</asrwt>
<pdfrwt beam="1">  1        2 0.15271638E+00 0.68416471E+03</pdfrwt>
<pdfrwt beam="2">  1       -2 0.15637944E-01 0.68416471E+03</pdfrwt>
<totfact> 0.83648127E+02</totfact>
</mgrwt>
</event>
<event>
 4    1  0.2209668E-005  0.7773605E+03  0.7818608E-02  0.9593378E-01
         -2   -1    0    0    0  501 -0.00000000000E+00  0.00000000000E+00  0.10234533337E+03  0.10234533340E+03  0.25500000000E-02 0. -1.
          2   -1    0    0  501    0  0.00000000000E+00 -0.00000000000E+00 -0.14761036254E+04  0.14761036254E+04  0.25500000000E-02 0.  1.
    5000001    1    1    2    0    0  0.15284223791E+03  0.30235859670E+03 -0.62439814199E+03  0.73484590929E+03  0.18800000000E+03 0.  0.
   -5000001    1    1    2    0    0 -0.15284223791E+03 -0.30235859670E+03 -0.74936015005E+03  0.84360304952E+03  0.18800000000E+03 0.  0.
<mgrwt>
<rscale>  0 0.77736045E+03</rscale>
<asrwt>0</asrwt>
<pdfrwt beam="1">  1        2 0.21087193E+00 0.77736045E+03</pdfrwt>
<pdfrwt beam="2">  1       -2 0.14620763E-01 0.77736045E+03</pdfrwt>
<totfact> 0.55517602E+02</totfact>
</mgrwt>
</event>
<event>
 4    1  0.2209668E-005  0.6874573E+03  0.7818608E-02  0.9738925E-01
          2   -1    0    0  501    0  0.00000000000E+00  0.00000000000E+00  0.75988246243E+02  0.75988246286E+02  0.25500000000E-02 0.  1.
         -2   -1    0    0    0  501 -0.00000000000E+00 -0.00000000000E+00 -0.15548378394E+04  0.15548378394E+04  0.25500000000E-02 0. -1.
    5000001    1    1    2    0    0 -0.74395811324E+02  0.27423042868E+03 -0.84731261854E+03  0.91324681127E+03  0.18800000000E+03 0.  0.
   -5000001    1    1    2    0    0  0.74395811324E+02 -0.27423042868E+03 -0.63153697457E+03  0.71757927437E+03  0.18800000000E+03 0.  0.
<mgrwt>
<rscale>  0 0.68745735E+03</rscale>
<asrwt>0</asrwt>
<pdfrwt beam="1">  1        2 0.10855465E-01 0.68745735E+03</pdfrwt>
<pdfrwt beam="2">  1       -2 0.22211967E+00 0.68745735E+03</pdfrwt>
<totfact> 0.58890210E+01</totfact>
</mgrwt>
</event>
<event>
 4    1  0.2209668E-005  0.6056173E+03  0.7818608E-02  0.9893820E-01
          2   -1    0    0  501    0  0.00000000000E+00  0.00000000000E+00  0.15192274144E+04  0.15192274144E+04  0.25500000000E-02 0.  1.
         -2   -1    0    0    0  501 -0.00000000000E+00 -0.00000000000E+00 -0.60355075443E+02  0.60355075497E+02  0.25500000000E-02 0. -1.
    5000001    1    1    2    0    0 -0.61488023727E+02  0.12256740787E+03  0.12348221522E+04  0.12565561246E+04  0.18800000000E+03 0.  0.
   -5000001    1    1    2    0    0  0.61488023727E+02 -0.12256740787E+03  0.22405018674E+03  0.32302636535E+03  0.18800000000E+03 0.  0.
<mgrwt>
<rscale>  0 0.60561732E+03</rscale>
<asrwt>0</asrwt>
<pdfrwt beam="1">  1        2 0.21703245E+00 0.60561732E+03</pdfrwt>
<pdfrwt beam="2">  1       -2 0.86221550E-02 0.60561732E+03</pdfrwt>
<totfact> 0.12642036E+03</totfact>
</mgrwt>
</event>
<event>
 4    1  0.2209668E-005  0.7057083E+03  0.7818608E-02  0.9707520E-01
         -2   -1    0    0    0  501 -0.00000000000E+00  0.00000000000E+00  0.65668352489E+02  0.65668352539E+02  0.25500000000E-02 0. -1.
          2   -1    0    0  501    0  0.00000000000E+00 -0.00000000000E+00 -0.18959828273E+04  0.18959828273E+04  0.25500000000E-02 0.  1.
    5000001    1    1    2    0    0  0.26411255823E+03  0.13886825117E+03 -0.88442510782E+03  0.95215104156E+03  0.18800000000E+03 0.  0.
   -5000001    1    1    2    0    0 -0.26411255823E+03 -0.13886825117E+03 -0.94588936696E+03  0.10095001383E+04  0.18800000000E+03 0.  0.
<mgrwt>
<rscale>  0 0.70570835E+03</rscale>
<asrwt>0</asrwt>
<pdfrwt beam="1">  1        2 0.27085466E+00 0.70570835E+03</pdfrwt>
<pdfrwt beam="2">  1       -2 0.93811944E-02 0.70570835E+03</pdfrwt>
<totfact> 0.70508103E+02</totfact>
</mgrwt>
</event>
<event>
 4    1  0.2209668E-005  0.9403291E+03  0.7818608E-02  0.9376526E-01
         -2   -1    0    0    0  501 -0.00000000000E+00  0.00000000000E+00  0.19620816697E+03  0.19620816699E+03  0.25500000000E-02 0. -1.
          2   -1    0    0  501    0  0.00000000000E+00 -0.00000000000E+00 -0.11266335852E+04  0.11266335852E+04  0.25500000000E-02 0.  1.
    5000001    1    1    2    0    0  0.42595317923E+03  0.96886277866E+01 -0.55617346954E+03  0.72539844818E+03  0.18800000000E+03 0.  0.
   -5000001    1    1    2    0    0 -0.42595317923E+03 -0.96886277866E+01 -0.37425194867E+03  0.59744330400E+03  0.18800000000E+03 0.  0.
<mgrwt>
<rscale>  0 0.94032911E+03</rscale>
<asrwt>0</asrwt>
<pdfrwt beam="1">  1        2 0.16094765E+00 0.94032911E+03</pdfrwt>
<pdfrwt beam="2">  1       -2 0.28029739E-01 0.94032911E+03</pdfrwt>
<totfact> 0.27355955E+02</totfact>
</mgrwt>
</event>
<event>
 4    1  0.2209668E-005  0.6252749E+03  0.7818608E-02  0.9854313E-01
          2   -1    0    0  501    0  0.00000000000E+00  0.00000000000E+00  0.79477360826E+03  0.79477360827E+03  0.25500000000E-02 0.  1.
         -2   -1    0    0    0  501 -0.00000000000E+00 -0.00000000000E+00 -0.12298115659E+03  0.12298115661E+03  0.25500000000E-02 0. -1.
    5000001    1    1    2    0    0 -0.24657558715E+03 -0.23237838706E+01  0.27730958152E+03  0.41599221646E+03  0.18800000000E+03 0.  0.
   -5000001    1    1    2    0    0  0.24657558715E+03  0.23237838706E+01  0.39448287016E+03  0.50176254842E+03  0.18800000000E+03 0.  0.
<mgrwt>
<rscale>  0 0.62527491E+03</rscale>
<asrwt>0</asrwt>
<pdfrwt beam="1">  1        2 0.11353908E+00 0.62527491E+03</pdfrwt>
<pdfrwt beam="2">  1       -2 0.17568737E-01 0.62527491E+03</pdfrwt>
<totfact> 0.10278830E+03</totfact>
</mgrwt>
</event>
<event>
 4    1  0.2209668E-005  0.7794173E+03  0.7818608E-02  0.9590297E-01
          2   -1    0    0  501    0  0.00000000000E+00  0.00000000000E+00  0.40650726397E+03  0.40650726398E+03  0.25500000000E-02 0.  1.
         -2   -1    0    0    0  501 -0.00000000000E+00 -0.00000000000E+00 -0.37360419909E+03  0.37360419910E+03  0.25500000000E-02 0. -1.
    5000001    1    1    2    0    0  0.43021592781E+01 -0.31319348617E+03  0.15229327504E+03  0.39578518160E+03  0.18800000000E+03 0.  0.
   -5000001    1    1    2    0    0 -0.43021592781E+01  0.31319348617E+03 -0.11939021016E+03  0.38432628148E+03  0.18800000000E+03 0.  0.
<mgrwt>
<rscale>  0 0.77941727E+03</rscale>
<asrwt>0</asrwt>
<pdfrwt beam="1">  1        2 0.58072466E-01 0.77941727E+03</pdfrwt>
<pdfrwt beam="2">  1       -2 0.53372028E-01 0.77941727E+03</pdfrwt>
<totfact> 0.28302596E+02</totfact>
</mgrwt>
</event>
<event>
 4    1  0.2209668E-005  0.5416773E+03  0.7818608E-02  0.1003439E+00
          2   -1    0    0  501    0  0.00000000000E+00  0.00000000000E+00  0.43033542216E+03  0.43033542217E+03  0.25500000000E-02 0.  1.
         -2   -1    0    0    0  501 -0.00000000000E+00 -0.00000000000E+00 -0.17045673367E+03  0.17045673369E+03  0.25500000000E-02 0. -1.
    5000001    1    1    2    0    0  0.12802874064E+03 -0.14208868057E+03  0.88011492432E+02  0.28225976401E+03  0.18800000000E+03 0.  0.
   -5000001    1    1    2    0    0 -0.12802874064E+03  0.14208868057E+03  0.17186719606E+03  0.31853239185E+03  0.18800000000E+03 0.  0.
<mgrwt>
<rscale>  0 0.54167729E+03</rscale>
<asrwt>0</asrwt>
<pdfrwt beam="1">  1        2 0.61476489E-01 0.54167729E+03</pdfrwt>
<pdfrwt beam="2">  1       -2 0.24350962E-01 0.54167729E+03</pdfrwt>
<totfact> 0.11972646E+03</totfact>
</mgrwt>
</event>
<event>
 4    1  0.2209668E-005  0.5759532E+03  0.7818608E-02  0.9956591E-01
         -2   -1    0    0    0  501 -0.00000000000E+00  0.00000000000E+00  0.16046485313E+04  0.16046485313E+04  0.25500000000E-02 0.  1.
          2   -1    0    0  501    0  0.00000000000E+00 -0.00000000000E+00 -0.51681415817E+02  0.51681415880E+02  0.25500000000E-02 0. -1.
    5000001    1    1    2    0    0 -0.20445179812E+03  0.55228910910E+02  0.62606655801E+03  0.68713470689E+03  0.18800000000E+03 0.  0.
   -5000001    1    1    2    0    0  0.20445179812E+03 -0.55228910910E+02  0.92690055748E+03  0.96919524029E+03  0.18800000000E+03 0.  0.
<mgrwt>
<rscale>  0 0.57595315E+03</rscale>
<asrwt>0</asrwt>
<pdfrwt beam="1">  1        2 0.73830600E-02 0.57595315E+03</pdfrwt>
<pdfrwt beam="2">  1       -2 0.22923549E+00 0.57595315E+03</pdfrwt>
<totfact> 0.87998027E+01</totfact>
</mgrwt>
</event>
<event>
 4    1  0.2209668E-005  0.9129616E+03  0.7818608E-02  0.9409522E-01
          2   -1    0    0  501    0  0.00000000000E+00  0.00000000000E+00  0.87622187505E+03  0.87622187505E+03  0.25500000000E-02 0.  1.
         -2   -1    0    0    0  501 -0.00000000000E+00 -0.00000000000E+00 -0.23781043665E+03  0.23781043667E+03  0.25500000000E-02 0. -1.
    5000001    1    1    2    0    0 -0.33886066594E+03  0.22950505347E+03  0.40996063002E+03  0.60902449759E+03  0.18800000000E+03 0.  0.
   -5000001    1    1    2    0    0  0.33886066594E+03 -0.22950505347E+03  0.22845080837E+03  0.50500781413E+03  0.18800000000E+03 0.  0.
<mgrwt>
<rscale>  0 0.91296157E+03</rscale>
<asrwt>0</asrwt>
<pdfrwt beam="1">  1        2 0.12517455E+00 0.91296157E+03</pdfrwt>
<pdfrwt beam="2">  1       -2 0.33972920E-01 0.91296157E+03</pdfrwt>
<totfact> 0.27333426E+02</totfact>
</mgrwt>
</event>
<event>
 4    1  0.2209668E-005  0.5829446E+03  0.7818608E-02  0.9941436E-01
         -2   -1    0    0    0  501 -0.00000000000E+00  0.00000000000E+00  0.81577578067E+02  0.81577578106E+02  0.25500000000E-02 0. -1.
          2   -1    0    0  501    0  0.00000000000E+00 -0.00000000000E+00 -0.10414147515E+04  0.10414147515E+04  0.25500000000E-02 0.  1.
    5000001    1    1    2    0    0  0.15682903861E+03  0.10762298749E+03 -0.25663704565E+03  0.37065432412E+03  0.18800000000E+03 0.  0.
   -5000001    1    1    2    0    0 -0.15682903861E+03 -0.10762298749E+03 -0.70320012773E+03  0.75233800544E+03  0.18800000000E+03 0.  0.
<mgrwt>
<rscale>  0 0.58294457E+03</rscale>
<asrwt>0</asrwt>
<pdfrwt beam="1">  1        2 0.14877353E+00 0.58294457E+03</pdfrwt>
<pdfrwt beam="2">  1       -2 0.11653940E-01 0.58294457E+03</pdfrwt>
<totfact> 0.14221683E+03</totfact>
</mgrwt>
</event>
<event>
 4    1  0.2209668E-005  0.5858325E+03  0.7818608E-02  0.9935243E-01
         -2   -1    0    0    0  501 -0.00000000000E+00  0.00000000000E+00  0.32571676986E+02  0.32571677085E+02  0.25500000000E-02 0. -1.
          2   -1    0    0  501    0  0.00000000000E+00 -0.00000000000E+00 -0.26341885781E+04  0.26341885781E+04  0.25500000000E-02 0.  1.
    5000001    1    1    2    0    0  0.49560705806E+02 -0.20998823849E+03 -0.15852543243E+04  0.16108775859E+04  0.18800000000E+03 0.  0.
   -5000001    1    1    2    0    0 -0.49560705806E+02  0.20998823849E+03 -0.10163625768E+04  0.10558826693E+04  0.18800000000E+03 0.  0.
<mgrwt>
<rscale>  0 0.58583253E+03</rscale>
<asrwt>0</asrwt>
<pdfrwt beam="1">  1        2 0.37631252E+00 0.58583253E+03</pdfrwt>
<pdfrwt beam="2">  1       -2 0.46530984E-02 0.58583253E+03</pdfrwt>
<totfact> 0.90606294E+02</totfact>
</mgrwt>
</event>
<event>
 4    1  0.2209668E-005  0.5517702E+03  0.7818608E-02  0.1001085E+00
         -2   -1    0    0    0  501 -0.00000000000E+00  0.00000000000E+00  0.39180850998E+03  0.39180850999E+03  0.25500000000E-02 0. -1.
          2   -1    0    0  501    0  0.00000000000E+00 -0.00000000000E+00 -0.19425963028E+03  0.19425963030E+03  0.25500000000E-02 0.  1.
    5000001    1    1    2    0    0  0.19180294996E+03 -0.14022784560E+02  0.16410863939E+03  0.31505659114E+03  0.18800000000E+03 0.  0.
   -5000001    1    1    2    0    0 -0.19180294996E+03  0.14022784560E+02  0.33440240311E+02  0.27101154915E+03  0.18800000000E+03 0.  0.
<mgrwt>
<rscale>  0 0.55177016E+03</rscale>
<asrwt>0</asrwt>
<pdfrwt beam="1">  1        2 0.27751376E-01 0.55177016E+03</pdfrwt>
<pdfrwt beam="2">  1       -2 0.55972643E-01 0.55177016E+03</pdfrwt>
<totfact> 0.58701547E+02</totfact>
</mgrwt>
</event>
<event>
 4    1  0.2209668E-005  0.4792356E+03  0.7818608E-02  0.1019345E+00
          2   -1    0    0  501    0  0.00000000000E+00  0.00000000000E+00  0.75635756101E+03  0.75635756101E+03  0.25500000000E-02 0.  1.
         -2   -1    0    0    0  501 -0.00000000000E+00 -0.00000000000E+00 -0.75912104950E+02  0.75912104993E+02  0.25500000000E-02 0. -1.
    5000001    1    1    2    0    0  0.45602454185E+02  0.14101198045E+03  0.35833170396E+03  0.43094033522E+03  0.18800000000E+03 0.  0.
   -5000001    1    1    2    0    0 -0.45602454185E+02 -0.14101198045E+03  0.32211375210E+03  0.40132933079E+03  0.18800000000E+03 0.  0.
<mgrwt>
<rscale>  0 0.47923562E+03</rscale>
<asrwt>0</asrwt>
<pdfrwt beam="1">  1        2 0.10805108E+00 0.47923562E+03</pdfrwt>
<pdfrwt beam="2">  1       -2 0.10844587E-01 0.47923562E+03</pdfrwt>
<totfact> 0.24472760E+03</totfact>
</mgrwt>
</event>
<event>
 4    1  0.2209668E-005  0.5592387E+03  0.7818608E-02  0.9993779E-01
         -2   -1    0    0    0  501 -0.00000000000E+00  0.00000000000E+00  0.63550709637E+02  0.63550709688E+02  0.25500000000E-02 0. -1.
          2   -1    0    0  501    0  0.00000000000E+00 -0.00000000000E+00 -0.12303083503E+04  0.12303083503E+04  0.25500000000E-02 0.  1.
    5000001    1    1    2    0    0 -0.18246005795E+03  0.47075980275E+02 -0.38522874995E+03  0.46824460537E+03  0.18800000000E+03 0.  0.
   -5000001    1    1    2    0    0  0.18246005795E+03 -0.47075980275E+02 -0.78152889073E+03  0.82561445464E+03  0.18800000000E+03 0.  0.
<mgrwt>
<rscale>  0 0.55923866E+03</rscale>
<asrwt>0</asrwt>
<pdfrwt beam="1">  1        2 0.17575832E+00 0.55923866E+03</pdfrwt>
<pdfrwt beam="2">  1       -2 0.90786735E-02 0.55923866E+03</pdfrwt>
<totfact> 0.16629858E+03</totfact>
</mgrwt>
</event>
<event>
 4    1  0.2209668E-005  0.1146669E+04  0.7818608E-02  0.9160862E-01
          2   -1    0    0  501    0  0.00000000000E+00  0.00000000000E+00  0.59793574861E+03  0.59793574861E+03  0.25500000000E-02 0.  1.
         -2   -1    0    0    0  501 -0.00000000000E+00 -0.00000000000E+00 -0.54974538508E+03  0.54974538509E+03  0.25500000000E-02 0. -1.
    5000001    1    1    2    0    0  0.45177663059E+03 -0.20920668354E+03  0.23758808302E+03  0.58280499104E+03  0.18800000000E+03 0.  0.
   -5000001    1    1    2    0    0 -0.45177663059E+03  0.20920668354E+03 -0.18939771950E+03  0.56487614266E+03  0.18800000000E+03 0.  0.
<mgrwt>
<rscale>  0 0.11466689E+04</rscale>
<asrwt>0</asrwt>
<pdfrwt beam="1">  1        2 0.85419393E-01 0.11466689E+04</pdfrwt>
<pdfrwt beam="2">  1       -2 0.78535055E-01 0.11466689E+04</pdfrwt>
<totfact> 0.77824195E+01</totfact>
</mgrwt>
</event>
<event>
 4    1  0.2209668E-005  0.6274378E+03  0.7818608E-02  0.9850062E-01
          2   -1    0    0  501    0  0.00000000000E+00  0.00000000000E+00  0.13012828018E+04  0.13012828018E+04  0.25500000000E-02 0.  1.
         -2   -1    0    0    0  501 -0.00000000000E+00 -0.00000000000E+00 -0.75632713965E+02  0.75632714008E+02  0.25500000000E-02 0. -1.
    5000001    1    1    2    0    0  0.16742259668E+03  0.15151146949E+03  0.85411584058E+03  0.90324078761E+03  0.18800000000E+03 0.  0.
   -5000001    1    1    2    0    0 -0.16742259668E+03 -0.15151146949E+03  0.37153424729E+03  0.47367472824E+03  0.18800000000E+03 0.  0.
<mgrwt>
<rscale>  0 0.62743781E+03</rscale>
<asrwt>0</asrwt>
<pdfrwt beam="1">  1        2 0.18589753E+00 0.62743781E+03</pdfrwt>
<pdfrwt beam="2">  1       -2 0.10804674E-01 0.62743781E+03</pdfrwt>
<totfact> 0.11447725E+03</totfact>
</mgrwt>
</event>
<event>
 4    1  0.2209668E-005  0.6878232E+03  0.7818608E-02  0.9738286E-01
         -2   -1    0    0    0  501 -0.00000000000E+00  0.00000000000E+00  0.28848388243E+03  0.28848388244E+03  0.25500000000E-02 0. -1.
          2   -1    0    0  501    0  0.00000000000E+00 -0.00000000000E+00 -0.40998888103E+03  0.40998888104E+03  0.25500000000E-02 0.  1.
    5000001    1    1    2    0    0 -0.28207427976E+03  0.13303773372E+02 -0.34132666418E+01  0.33926175746E+03  0.18800000000E+03 0.  0.
   -5000001    1    1    2    0    0  0.28207427976E+03 -0.13303773372E+02 -0.11809173196E+03  0.35921100602E+03  0.18800000000E+03 0.  0.
<mgrwt>
<rscale>  0 0.68782319E+03</rscale>
<asrwt>0</asrwt>
<pdfrwt beam="1">  1        2 0.58569840E-01 0.68782319E+03</pdfrwt>
<pdfrwt beam="2">  1       -2 0.41211983E-01 0.68782319E+03</pdfrwt>
<totfact> 0.47236589E+02</totfact>
</mgrwt>
</event>
<event>
 4    1  0.2209668E-005  0.5466638E+03  0.7818608E-02  0.1002269E+00
         -2   -1    0    0    0  501 -0.00000000000E+00  0.00000000000E+00  0.12251529332E+03  0.12251529335E+03  0.25500000000E-02 0. -1.
          2   -1    0    0  501    0  0.00000000000E+00 -0.00000000000E+00 -0.60980402108E+03  0.60980402109E+03  0.25500000000E-02 0.  1.
    5000001    1    1    2    0    0 -0.16839122892E+03 -0.48797520614E+02 -0.36808819732E+03  0.44896517126E+03  0.18800000000E+03 0.  0.
   -5000001    1    1    2    0    0  0.16839122892E+03  0.48797520614E+02 -0.11920053044E+03  0.28335414317E+03  0.18800000000E+03 0.  0.
<mgrwt>
<rscale>  0 0.54666377E+03</rscale>
<asrwt>0</asrwt>
<pdfrwt beam="1">  1        2 0.87114859E-01 0.54666377E+03</pdfrwt>
<pdfrwt beam="2">  1       -2 0.17502185E-01 0.54666377E+03</pdfrwt>
<totfact> 0.14317042E+03</totfact>
</mgrwt>
</event>
<event>
 4    1  0.2209668E-005  0.5383741E+03  0.7818608E-02  0.1004221E+00
         -2   -1    0    0    0  501 -0.00000000000E+00  0.00000000000E+00  0.28816844746E+02  0.28816844859E+02  0.25500000000E-02 0. -1.
          2   -1    0    0  501    0  0.00000000000E+00 -0.00000000000E+00 -0.25145595885E+04  0.25145595885E+04  0.25500000000E-02 0.  1.
    5000001    1    1    2    0    0  0.14394647722E+03 -0.12377507615E+03 -0.10878480127E+04  0.11201777343E+04  0.18800000000E+03 0.  0.
   -5000001    1    1    2    0    0 -0.14394647722E+03  0.12377507615E+03 -0.13978947311E+04  0.14231986991E+04  0.18800000000E+03 0.  0.
<mgrwt>
<rscale>  0 0.53837412E+03</rscale>
<asrwt>0</asrwt>
<pdfrwt beam="1">  1        2 0.35922266E+00 0.53837412E+03</pdfrwt>
<pdfrwt beam="2">  1       -2 0.41166937E-02 0.53837412E+03</pdfrwt>
<totfact> 0.12655983E+03</totfact>
</mgrwt>
</event>
<event>
 4    1  0.2209668E-005  0.4110613E+03  0.7818608E-02  0.1040015E+00
          2   -1    0    0  501    0  0.00000000000E+00  0.00000000000E+00  0.60489732860E+03  0.60489732861E+03  0.25500000000E-02 0.  1.
         -2   -1    0    0    0  501 -0.00000000000E+00 -0.00000000000E+00 -0.69834728795E+02  0.69834728841E+02  0.25500000000E-02 0. -1.
    5000001    1    1    2    0    0 -0.80235861838E+02  0.14232631760E+02  0.24114138998E+03  0.31643882710E+03  0.18800000000E+03 0.  0.
   -5000001    1    1    2    0    0  0.80235861838E+02 -0.14232631760E+02  0.29392120983E+03  0.35829323035E+03  0.18800000000E+03 0.  0.
<mgrwt>
<rscale>  0 0.41106127E+03</rscale>
<asrwt>0</asrwt>
<pdfrwt beam="1">  1        2 0.86413905E-01 0.41106127E+03</pdfrwt>
<pdfrwt beam="2">  1       -2 0.99763897E-02 0.41106127E+03</pdfrwt>
<totfact> 0.36557695E+03</totfact>
</mgrwt>
</event>
<event>
 4    1  0.2209668E-005  0.5875534E+03  0.7818608E-02  0.9931571E-01
          2   -1    0    0  501    0  0.00000000000E+00  0.00000000000E+00  0.17782164915E+03  0.17782164917E+03  0.25500000000E-02 0.  1.
         -2   -1    0    0    0  501 -0.00000000000E+00 -0.00000000000E+00 -0.48534450151E+03  0.48534450152E+03  0.25500000000E-02 0. -1.
    5000001    1    1    2    0    0 -0.14196701115E+03  0.17019083494E+03 -0.20219274602E+03  0.35404160645E+03  0.18800000000E+03 0.  0.
   -5000001    1    1    2    0    0  0.14196701115E+03 -0.17019083494E+03 -0.10533010634E+03  0.30912454425E+03  0.18800000000E+03 0.  0.
<mgrwt>
<rscale>  0 0.58755343E+03</rscale>
<asrwt>0</asrwt>
<pdfrwt beam="1">  1        2 0.25403093E-01 0.58755343E+03</pdfrwt>
<pdfrwt beam="2">  1       -2 0.69334928E-01 0.58755343E+03</pdfrwt>
<totfact> 0.41221221E+02</totfact>
</mgrwt>
</event>
<event>
 4    1  0.2209668E-005  0.4871857E+03  0.7818608E-02  0.1017179E+00
          2   -1    0    0  501    0  0.00000000000E+00  0.00000000000E+00  0.14786110476E+03  0.14786110478E+03  0.25500000000E-02 0.  1.
         -2   -1    0    0    0  501 -0.00000000000E+00 -0.00000000000E+00 -0.40130548219E+03  0.40130548220E+03  0.25500000000E-02 0. -1.
    5000001    1    1    2    0    0  0.24801537415E+02 -0.84880016839E+02  0.16633455860E+02  0.20842361999E+03  0.18800000000E+03 0.  0.
   -5000001    1    1    2    0    0 -0.24801537415E+02  0.84880016839E+02 -0.27007783329E+03  0.34074296699E+03  0.18800000000E+03 0.  0.
<mgrwt>
<rscale>  0 0.48718568E+03</rscale>
<asrwt>0</asrwt>
<pdfrwt beam="1">  1        2 0.21123015E-01 0.48718568E+03</pdfrwt>
<pdfrwt beam="2">  1       -2 0.57329354E-01 0.48718568E+03</pdfrwt>
<totfact> 0.76339345E+02</totfact>
</mgrwt>
</event>
<event>
 4    1  0.2209668E-005  0.4302770E+03  0.7818608E-02  0.1033772E+00
          2   -1    0    0  501    0  0.00000000000E+00  0.00000000000E+00  0.58147108031E+03  0.58147108031E+03  0.25500000000E-02 0.  1.
         -2   -1    0    0    0  501 -0.00000000000E+00 -0.00000000000E+00 -0.79599116934E+02  0.79599116975E+02  0.25500000000E-02 0. -1.
    5000001    1    1    2    0    0 -0.55986891297E+02  0.88319666115E+02  0.25460053955E+03  0.33331716152E+03  0.18800000000E+03 0.  0.
   -5000001    1    1    2    0    0  0.55986891297E+02 -0.88319666115E+02  0.24727142382E+03  0.32775303577E+03  0.18800000000E+03 0.  0.
<mgrwt>
<rscale>  0 0.43027705E+03</rscale>
<asrwt>0</asrwt>
<pdfrwt beam="1">  1        2 0.83067297E-01 0.43027705E+03</pdfrwt>
<pdfrwt beam="2">  1       -2 0.11371302E-01 0.43027705E+03</pdfrwt>
<totfact> 0.30995499E+03</totfact>
</mgrwt>
</event>
<event>
 4    1  0.2209668E-005  0.5113826E+03  0.7818608E-02  0.1010850E+00
         -2   -1    0    0    0  501 -0.00000000000E+00  0.00000000000E+00  0.53078279390E+02  0.53078279451E+02  0.25500000000E-02 0. -1.
          2   -1    0    0  501    0  0.00000000000E+00 -0.00000000000E+00 -0.12317286358E+04  0.12317286359E+04  0.25500000000E-02 0.  1.
    5000001    1    1    2    0    0 -0.10735758005E+03 -0.12230157697E+03 -0.43961559744E+03  0.50506355960E+03  0.18800000000E+03 0.  0.
   -5000001    1    1    2    0    0  0.10735758005E+03  0.12230157697E+03 -0.73903475902E+03  0.77974335570E+03  0.18800000000E+03 0.  0.
<mgrwt>
<rscale>  0 0.51138258E+03</rscale>
<asrwt>0</asrwt>
<pdfrwt beam="1">  1        2 0.17596122E+00 0.51138258E+03</pdfrwt>
<pdfrwt beam="2">  1       -2 0.75826121E-02 0.51138258E+03</pdfrwt>
<totfact> 0.22136521E+03</totfact>
</mgrwt>
</event>
<event>
 4    1  0.2209668E-005  0.7611496E+03  0.7818608E-02  0.9618019E-01
         -2   -1    0    0    0  501 -0.00000000000E+00  0.00000000000E+00  0.70554806117E+02  0.70554806163E+02  0.25500000000E-02 0. -1.
          2   -1    0    0  501    0  0.00000000000E+00 -0.00000000000E+00 -0.20528324451E+04  0.20528324451E+04  0.25500000000E-02 0.  1.
    5000001    1    1    2    0    0 -0.11128993721E+03  0.30077773313E+03 -0.76380735047E+03  0.84946946002E+03  0.18800000000E+03 0.  0.
   -5000001    1    1    2    0    0  0.11128993721E+03 -0.30077773313E+03 -0.12184702885E+04  0.12739177913E+04  0.18800000000E+03 0.  0.
<mgrwt>
<rscale>  0 0.76114964E+03</rscale>
<asrwt>0</asrwt>
<pdfrwt beam="1">  1        2 0.29326174E+00 0.76114964E+03</pdfrwt>
<pdfrwt beam="2">  1       -2 0.10079259E-01 0.76114964E+03</pdfrwt>
<totfact> 0.52098393E+02</totfact>
</mgrwt>
</event>
<event>
 4    1  0.2209668E-005  0.4935297E+03  0.7818608E-02  0.1015482E+00
          2   -1    0    0  501    0  0.00000000000E+00  0.00000000000E+00  0.30314784044E+04  0.30314784044E+04  0.25500000000E-02 0.  1.
         -2   -1    0    0    0  501 -0.00000000000E+00 -0.00000000000E+00 -0.20086861290E+02  0.20086861452E+02  0.25500000000E-02 0. -1.
    5000001    1    1    2    0    0 -0.34806611027E+02 -0.80585028464E+02  0.67975544170E+03  0.71071577125E+03  0.18800000000E+03 0.  0.
   -5000001    1    1    2    0    0  0.34806611027E+02  0.80585028464E+02  0.23316361014E+04  0.23408494946E+04  0.18800000000E+03 0.  0.
<mgrwt>
<rscale>  0 0.49352968E+03</rscale>
<asrwt>0</asrwt>
<pdfrwt beam="1">  1        2 0.43306811E+00 0.49352968E+03</pdfrwt>
<pdfrwt beam="2">  1       -2 0.28695532E-02 0.49352968E+03</pdfrwt>
<totfact> 0.11763270E+03</totfact>
</mgrwt>
</event>
<event>
 4    1  0.2209668E-005  0.9756564E+03  0.7818608E-02  0.9335655E-01
          2   -1    0    0  501    0  0.00000000000E+00  0.00000000000E+00  0.69159665721E+03  0.69159665721E+03  0.25500000000E-02 0.  1.
         -2   -1    0    0    0  501 -0.00000000000E+00 -0.00000000000E+00 -0.34409700792E+03  0.34409700793E+03  0.25500000000E-02 0. -1.
    5000001    1    1    2    0    0 -0.27443573378E+03 -0.12857897483E+03 -0.17957532626E+03  0.39929791202E+03  0.18800000000E+03 0.  0.
   -5000001    1    1    2    0    0  0.27443573378E+03  0.12857897483E+03  0.52707497554E+03  0.63639575312E+03  0.18800000000E+03 0.  0.
<mgrwt>
<rscale>  0 0.97565637E+03</rscale>
<asrwt>0</asrwt>
<pdfrwt beam="1">  1        2 0.98799522E-01 0.97565637E+03</pdfrwt>
<pdfrwt beam="2">  1       -2 0.49156715E-01 0.97565637E+03</pdfrwt>
<totfact> 0.17885599E+02</totfact>
</mgrwt>
</event>
<event>
 4    1  0.2209668E-005  0.6919920E+03  0.7818608E-02  0.9731026E-01
         -2   -1    0    0    0  501 -0.00000000000E+00  0.00000000000E+00  0.11250873870E+03  0.11250873873E+03  0.25500000000E-02 0. -1.
          2   -1    0    0  501    0  0.00000000000E+00 -0.00000000000E+00 -0.10640348176E+04  0.10640348176E+04  0.25500000000E-02 0.  1.
    5000001    1    1    2    0    0  0.13800129114E+03  0.25058401403E+03 -0.56132537325E+03  0.65747005947E+03  0.18800000000E+03 0.  0.
   -5000001    1    1    2    0    0 -0.13800129114E+03 -0.25058401403E+03 -0.39020070560E+03  0.51907349682E+03  0.18800000000E+03 0.  0.
<mgrwt>
<rscale>  0 0.69199195E+03</rscale>
<asrwt>0</asrwt>
<pdfrwt beam="1">  1        2 0.15200497E+00 0.69199195E+03</pdfrwt>
<pdfrwt beam="2">  1       -2 0.16072678E-01 0.69199195E+03</pdfrwt>
<totfact> 0.80367035E+02</totfact>
</mgrwt>
</event>
<event>
 4    1  0.2209668E-005  0.1108909E+04  0.7818608E-02  0.9196552E-01
         -2   -1    0    0    0  501 -0.00000000000E+00  0.00000000000E+00  0.24136202582E+03  0.24136202583E+03  0.25500000000E-02 0. -1.
          2   -1    0    0  501    0  0.00000000000E+00 -0.00000000000E+00 -0.12736864906E+04  0.12736864906E+04  0.25500000000E-02 0.  1.
    5000001    1    1    2    0    0  0.46226465731E+03 -0.11686941517E+03 -0.22721212327E+03  0.56063929809E+03  0.18800000000E+03 0.  0.
   -5000001    1    1    2    0    0 -0.46226465731E+03  0.11686941517E+03 -0.80511234146E+03  0.95440921830E+03  0.18800000000E+03 0.  0.
<mgrwt>
<rscale>  0 0.11089086E+04</rscale>
<asrwt>0</asrwt>
<pdfrwt beam="1">  1        2 0.18195521E+00 0.11089086E+04</pdfrwt>
<pdfrwt beam="2">  1       -2 0.34480290E-01 0.11089086E+04</pdfrwt>
<totfact> 0.15165075E+02</totfact>
</mgrwt>
</event>
<event>
 4    1  0.2209668E-005  0.6710141E+03  0.7818608E-02  0.9768128E-01
         -2   -1    0    0    0  501 -0.00000000000E+00  0.00000000000E+00  0.44061077254E+02  0.44061077328E+02  0.25500000000E-02 0. -1.
          2   -1    0    0  501    0  0.00000000000E+00 -0.00000000000E+00 -0.25547489744E+04  0.25547489744E+04  0.25500000000E-02 0.  1.
    5000001    1    1    2    0    0 -0.19930224882E+03 -0.66544834948E+02 -0.55102544531E+03  0.61896901605E+03  0.18800000000E+03 0.  0.
   -5000001    1    1    2    0    0  0.19930224882E+03  0.66544834948E+02 -0.19596624518E+04  0.19798410356E+04  0.18800000000E+03 0.  0.
<mgrwt>
<rscale>  0 0.67101413E+03</rscale>
<asrwt>0</asrwt>
<pdfrwt beam="1">  1        2 0.36496404E+00 0.67101413E+03</pdfrwt>
<pdfrwt beam="2">  1       -2 0.62944413E-02 0.67101413E+03</pdfrwt>
<totfact> 0.61778482E+02</totfact>
</mgrwt>
</event>
<event>
 4    1  0.2209668E-005  0.4850642E+03  0.7818608E-02  0.1017753E+00
          2   -1    0    0  501    0  0.00000000000E+00  0.00000000000E+00  0.14391108825E+04  0.14391108825E+04  0.25500000000E-02 0.  1.
         -2   -1    0    0    0  501 -0.00000000000E+00 -0.00000000000E+00 -0.40873719228E+02  0.40873719308E+02  0.25500000000E-02 0. -1.
    5000001    1    1    2    0    0  0.21367441175E+02 -0.15081174378E+03  0.74990510890E+03  0.78797361755E+03  0.18800000000E+03 0.  0.
   -5000001    1    1    2    0    0 -0.21367441175E+02  0.15081174378E+03  0.64833205437E+03  0.69201098426E+03  0.18800000000E+03 0.  0.
<mgrwt>
<rscale>  0 0.48506418E+03</rscale>
<asrwt>0</asrwt>
<pdfrwt beam="1">  1        2 0.20558723E+00 0.48506418E+03</pdfrwt>
<pdfrwt beam="2">  1       -2 0.58391037E-02 0.48506418E+03</pdfrwt>
<totfact> 0.25832593E+03</totfact>
</mgrwt>
</event>
<event>
 4    1  0.2209668E-005  0.4985818E+03  0.7818608E-02  0.1014150E+00
          2   -1    0    0  501    0  0.00000000000E+00  0.00000000000E+00  0.57261531680E+03  0.57261531681E+03  0.25500000000E-02 0.  1.
         -2   -1    0    0    0  501 -0.00000000000E+00 -0.00000000000E+00 -0.10853002796E+03  0.10853002799E+03  0.25500000000E-02 0. -1.
    5000001    1    1    2    0    0  0.12021610581E+03 -0.86150048041E+02  0.32794916058E+03  0.40591673383E+03  0.18800000000E+03 0.  0.
   -5000001    1    1    2    0    0 -0.12021610581E+03  0.86150048041E+02  0.13613612826E+03  0.27522861096E+03  0.18800000000E+03 0.  0.
<mgrwt>
<rscale>  0 0.49858181E+03</rscale>
<asrwt>0</asrwt>
<pdfrwt beam="1">  1        2 0.81802188E-01 0.49858181E+03</pdfrwt>
<pdfrwt beam="2">  1       -2 0.15504290E-01 0.49858181E+03</pdfrwt>
<totfact> 0.18922787E+03</totfact>
</mgrwt>
</event>
<event>
 4    1  0.2209668E-005  0.4144918E+03  0.7818608E-02  0.1038874E+00
          2   -1    0    0  501    0  0.00000000000E+00  0.00000000000E+00  0.62761878328E+03  0.62761878329E+03  0.25500000000E-02 0. -1.
         -2   -1    0    0    0  501 -0.00000000000E+00 -0.00000000000E+00 -0.68434651534E+02  0.68434651582E+02  0.25500000000E-02 0.  1.
    5000001    1    1    2    0    0  0.76713931245E+02 -0.34327034144E+02  0.31874158701E+03  0.37947802546E+03  0.18800000000E+03 0.  0.
   -5000001    1    1    2    0    0 -0.76713931245E+02  0.34327034144E+02  0.24044254474E+03  0.31657540941E+03  0.18800000000E+03 0.  0.
<mgrwt>
<rscale>  0 0.41449185E+03</rscale>
<asrwt>0</asrwt>
<pdfrwt beam="1">  1        2 0.89659826E-01 0.41449185E+03</pdfrwt>
<pdfrwt beam="2">  1       -2 0.97763788E-02 0.41449185E+03</pdfrwt>
<totfact> 0.36178188E+03</totfact>
</mgrwt>
</event>
<event>
 4    1  0.2209668E-005  0.1581961E+04  0.7818608E-02  0.8831707E-01
          2   -1    0    0  501    0  0.00000000000E+00  0.00000000000E+00  0.20430926378E+04  0.20430926378E+04  0.25500000000E-02 0.  1.
         -2   -1    0    0    0  501 -0.00000000000E+00 -0.00000000000E+00 -0.30622694783E+03  0.30622694784E+03  0.25500000000E-02 0. -1.
    5000001    1    1    2    0    0 -0.74313467220E+03  0.17863075795E+03  0.98487519622E+03  0.12607463031E+04  0.18800000000E+03 0.  0.
   -5000001    1    1    2    0    0  0.74313467220E+03 -0.17863075795E+03  0.75199049375E+03  0.10885732825E+04  0.18800000000E+03 0.  0.
<mgrwt>
<rscale>  0 0.15819608E+04</rscale>
<asrwt>0</asrwt>
<pdfrwt beam="1">  1        2 0.29187038E+00 0.15819608E+04</pdfrwt>
<pdfrwt beam="2">  1       -2 0.43746706E-01 0.15819608E+04</pdfrwt>
<totfact> 0.36335356E+01</totfact>
</mgrwt>
</event>
<event>
 4    1  0.2209668E-005  0.4957640E+03  0.7818608E-02  0.1014891E+00
          2   -1    0    0  501    0  0.00000000000E+00  0.00000000000E+00  0.82445251562E+03  0.82445251563E+03  0.25500000000E-02 0.  1.
         -2   -1    0    0    0  501 -0.00000000000E+00 -0.00000000000E+00 -0.74528841378E+02  0.74528841421E+02  0.25500000000E-02 0. -1.
    5000001    1    1    2    0    0 -0.71759618871E+02  0.56079877430E+02  0.61693779724E+03  0.65134525500E+03  0.18800000000E+03 0.  0.
   -5000001    1    1    2    0    0  0.71759618871E+02 -0.56079877430E+02  0.13298587701E+03  0.24763610205E+03  0.18800000000E+03 0.  0.
<mgrwt>
<rscale>  0 0.49576402E+03</rscale>
<asrwt>0</asrwt>
<pdfrwt beam="1">  1        2 0.11777894E+00 0.49576402E+03</pdfrwt>
<pdfrwt beam="2">  1       -2 0.10646977E-01 0.49576402E+03</pdfrwt>
<totfact> 0.22617325E+03</totfact>
</mgrwt>
</event>
<event>
 4    1  0.2209668E-005  0.6039432E+03  0.7818608E-02  0.9897259E-01
         -2   -1    0    0    0  501 -0.00000000000E+00  0.00000000000E+00  0.84590803909E+02  0.84590803947E+02  0.25500000000E-02 0. -1.
          2   -1    0    0  501    0  0.00000000000E+00 -0.00000000000E+00 -0.10779758980E+04  0.10779758980E+04  0.25500000000E-02 0.  1.
    5000001    1    1    2    0    0  0.17767125280E+03  0.12293295546E+03 -0.68095923924E+03  0.73873477725E+03  0.18800000000E+03 0.  0.
   -5000001    1    1    2    0    0 -0.17767125280E+03 -0.12293295546E+03 -0.31242585482E+03  0.42383192468E+03  0.18800000000E+03 0.  0.
<mgrwt>
<rscale>  0 0.60394320E+03</rscale>
<asrwt>0</asrwt>
<pdfrwt beam="1">  1        2 0.15399655E+00 0.60394320E+03</pdfrwt>
<pdfrwt beam="2">  1       -2 0.12084401E-01 0.60394320E+03</pdfrwt>
<totfact> 0.12741471E+03</totfact>
</mgrwt>
</event>
<event>
 4    1  0.2209668E-005  0.3925405E+03  0.7818608E-02  0.1046394E+00
          2   -1    0    0  501    0  0.00000000000E+00  0.00000000000E+00  0.47054880331E+03  0.47054880331E+03  0.25500000000E-02 0.  1.
         -2   -1    0    0    0  501 -0.00000000000E+00 -0.00000000000E+00 -0.81866146398E+02  0.81866146438E+02  0.25500000000E-02 0. -1.
    5000001    1    1    2    0    0  0.19196837330E+02 -0.45795868769E+02  0.23189852825E+03  0.30263295849E+03  0.18800000000E+03 0.  0.
   -5000001    1    1    2    0    0 -0.19196837330E+02  0.45795868769E+02  0.15678412866E+03  0.24978199126E+03  0.18800000000E+03 0.  0.
<mgrwt>
<rscale>  0 0.39254053E+03</rscale>
<asrwt>0</asrwt>
<pdfrwt beam="1">  1        2 0.67221255E-01 0.39254053E+03</pdfrwt>
<pdfrwt beam="2">  1       -2 0.11695164E-01 0.39254053E+03</pdfrwt>
<totfact> 0.37574345E+03</totfact>
</mgrwt>
</event>
<event>
 4    1  0.2209668E-005  0.5772817E+03  0.7818608E-02  0.9953694E-01
         -2   -1    0    0    0  501 -0.00000000000E+00  0.00000000000E+00  0.24180382568E+02  0.24180382703E+02  0.25500000000E-02 0. -1.
          2   -1    0    0  501    0  0.00000000000E+00 -0.00000000000E+00 -0.34455011369E+04  0.34455011369E+04  0.25500000000E-02 0.  1.
    5000001    1    1    2    0    0  0.20307202028E+03 -0.73345196954E+02 -0.19316407196E+04  0.19527410563E+04  0.18800000000E+03 0.  0.
   -5000001    1    1    2    0    0 -0.20307202028E+03  0.73345196954E+02 -0.14896800347E+04  0.15169404633E+04  0.18800000000E+03 0.  0.
<mgrwt>
<rscale>  0 0.57728168E+03</rscale>
<asrwt>0</asrwt>
<pdfrwt beam="1">  1        2 0.49221413E+00 0.57728168E+03</pdfrwt>
<pdfrwt beam="2">  1       -2 0.34543426E-02 0.57728168E+03</pdfrwt>
<totfact> 0.51393899E+02</totfact>
</mgrwt>
</event>
<event>
 4    1  0.2209668E-005  0.5122666E+03  0.7818608E-02  0.1010626E+00
         -2   -1    0    0    0  501 -0.00000000000E+00  0.00000000000E+00  0.49025772768E+03  0.49025772769E+03  0.25500000000E-02 0. -1.
          2   -1    0    0  501    0  0.00000000000E+00 -0.00000000000E+00 -0.13381590049E+03  0.13381590051E+03  0.25500000000E-02 0.  1.
    5000001    1    1    2    0    0  0.17087240163E+03 -0.20537064152E+02  0.20906792021E+03  0.32965518941E+03  0.18800000000E+03 0.  0.
   -5000001    1    1    2    0    0 -0.17087240163E+03  0.20537064152E+02  0.14737390698E+03  0.29441843879E+03  0.18800000000E+03 0.  0.
<mgrwt>
<rscale>  0 0.51226665E+03</rscale>
<asrwt>0</asrwt>
<pdfrwt beam="1">  1        2 0.19116557E-01 0.51226665E+03</pdfrwt>
<pdfrwt beam="2">  1       -2 0.70036820E-01 0.51226665E+03</pdfrwt>
<totfact> 0.56083290E+02</totfact>
</mgrwt>
</event>
<event>
 4    1  0.2209668E-005  0.1652414E+04  0.7818608E-02  0.8788980E-01
          2   -1    0    0  501    0  0.00000000000E+00  0.00000000000E+00  0.27470913719E+04  0.27470913719E+04  0.25500000000E-02 0. -1.
         -2   -1    0    0    0  501 -0.00000000000E+00 -0.00000000000E+00 -0.24848754732E+03  0.24848754733E+03  0.25500000000E-02 0.  1.
    5000001    1    1    2    0    0 -0.50251301046E+03  0.12552271483E+03  0.23653445177E+04  0.24286774106E+04  0.18800000000E+03 0.  0.
   -5000001    1    1    2    0    0  0.50251301046E+03 -0.12552271483E+03  0.13325930696E+03  0.56690150865E+03  0.18800000000E+03 0.  0.
<mgrwt>
<rscale>  0 0.16524140E+04</rscale>
<asrwt>0</asrwt>
<pdfrwt beam="1">  1        2 0.39244159E+00 0.16524140E+04</pdfrwt>
<pdfrwt beam="2">  1       -2 0.35498224E-01 0.16524140E+04</pdfrwt>
<totfact> 0.23246732E+01</totfact>
</mgrwt>
</event>
<event>
 4    1  0.2209668E-005  0.6925911E+03  0.7818608E-02  0.9729987E-01
          2   -1    0    0  501    0  0.00000000000E+00  0.00000000000E+00  0.28311376300E+04  0.28311376301E+04  0.25500000000E-02 0.  1.
         -2   -1    0    0    0  501 -0.00000000000E+00 -0.00000000000E+00 -0.42357746640E+02  0.42357746717E+02  0.25500000000E-02 0. -1.
    5000001    1    1    2    0    0  0.10142419035E+03 -0.27145325109E+03  0.14962602962E+04  0.15356147329E+04  0.18800000000E+03 0.  0.
   -5000001    1    1    2    0    0 -0.10142419035E+03  0.27145325109E+03  0.12925195872E+04  0.13378806438E+04  0.18800000000E+03 0.  0.
<mgrwt>
<rscale>  0 0.69259111E+03</rscale>
<asrwt>0</asrwt>
<pdfrwt beam="1">  1        2 0.40444840E+00 0.69259111E+03</pdfrwt>
<pdfrwt beam="2">  1       -2 0.60511042E-02 0.69259111E+03</pdfrwt>
<totfact> 0.46968406E+02</totfact>
</mgrwt>
</event>
<event>
 4    1  0.2209668E-005  0.4476042E+03  0.7818608E-02  0.1028439E+00
         -2   -1    0    0    0  501 -0.00000000000E+00  0.00000000000E+00  0.95500698167E+02  0.95500698201E+02  0.25500000000E-02 0. -1.
          2   -1    0    0  501    0  0.00000000000E+00 -0.00000000000E+00 -0.52447143057E+03  0.52447143057E+03  0.25500000000E-02 0.  1.
    5000001    1    1    2    0    0 -0.10402861261E+03  0.61573321635E+02 -0.19868309708E+03  0.29905216810E+03  0.18800000000E+03 0.  0.
   -5000001    1    1    2    0    0  0.10402861261E+03 -0.61573321635E+02 -0.23028763532E+03  0.32091996068E+03  0.18800000000E+03 0.  0.
<mgrwt>
<rscale>  0 0.44760424E+03</rscale>
<asrwt>0</asrwt>
<pdfrwt beam="1">  1        2 0.74924488E-01 0.44760424E+03</pdfrwt>
<pdfrwt beam="2">  1       -2 0.13642957E-01 0.44760424E+03</pdfrwt>
<totfact> 0.25885274E+03</totfact>
</mgrwt>
</event>
<event>
 4    1  0.2209668E-005  0.9125448E+03  0.7818608E-02  0.9410034E-01
          2   -1    0    0  501    0  0.00000000000E+00  0.00000000000E+00  0.11936906170E+04  0.11936906170E+04  0.25500000000E-02 0.  1.
         -2   -1    0    0    0  501 -0.00000000000E+00 -0.00000000000E+00 -0.17440408572E+03  0.17440408574E+03  0.25500000000E-02 0. -1.
    5000001    1    1    2    0    0  0.73939050018E+02 -0.35836752712E+03  0.21377745037E+03  0.46361521319E+03  0.18800000000E+03 0.  0.
   -5000001    1    1    2    0    0 -0.73939050018E+02  0.35836752712E+03  0.80550908089E+03  0.90447948955E+03  0.18800000000E+03 0.  0.
<mgrwt>
<rscale>  0 0.91254484E+03</rscale>
<asrwt>0</asrwt>
<pdfrwt beam="1">  1        2 0.17052724E+00 0.91254484E+03</pdfrwt>
<pdfrwt beam="2">  1       -2 0.24914869E-01 0.91254484E+03</pdfrwt>
<totfact> 0.31065076E+02</totfact>
</mgrwt>
</event>
<event>
 4    1  0.2209668E-005  0.5655018E+03  0.7818608E-02  0.9979682E-01
          2   -1    0    0  501    0  0.00000000000E+00  0.00000000000E+00  0.43201436875E+03  0.43201436875E+03  0.25500000000E-02 0.  1.
         -2   -1    0    0    0  501 -0.00000000000E+00 -0.00000000000E+00 -0.18505880000E+03  0.18505880002E+03  0.25500000000E-02 0. -1.
    5000001    1    1    2    0    0  0.16136319286E+03 -0.11605605288E+03  0.20138162667E+03  0.33971406650E+03  0.18800000000E+03 0.  0.
   -5000001    1    1    2    0    0 -0.16136319286E+03  0.11605605288E+03  0.45573942076E+02  0.27735910228E+03  0.18800000000E+03 0.  0.
<mgrwt>
<rscale>  0 0.56550176E+03</rscale>
<asrwt>0</asrwt>
<pdfrwt beam="1">  1        2 0.61716338E-01 0.56550176E+03</pdfrwt>
<pdfrwt beam="2">  1       -2 0.26436972E-01 0.56550176E+03</pdfrwt>
<totfact> 0.10283372E+03</totfact>
</mgrwt>
</event>
<event>
 4    1  0.2209668E-005  0.9426410E+03  0.7818608E-02  0.9373794E-01
          2   -1    0    0  501    0  0.00000000000E+00  0.00000000000E+00  0.13091746292E+04  0.13091746292E+04  0.25500000000E-02 0.  1.
         -2   -1    0    0    0  501 -0.00000000000E+00 -0.00000000000E+00 -0.16968174071E+03  0.16968174072E+03  0.25500000000E-02 0. -1.
    5000001    1    1    2    0    0  0.59408013489E+02 -0.42634948371E+03  0.50906979400E+03  0.69267542867E+03  0.18800000000E+03 0.  0.
   -5000001    1    1    2    0    0 -0.59408013489E+02  0.42634948371E+03  0.63042309450E+03  0.78618094126E+03  0.18800000000E+03 0.  0.
<mgrwt>
<rscale>  0 0.94264103E+03</rscale>
<asrwt>0</asrwt>
<pdfrwt beam="1">  1        2 0.18702495E+00 0.94264103E+03</pdfrwt>
<pdfrwt beam="2">  1       -2 0.24240248E-01 0.94264103E+03</pdfrwt>
<totfact> 0.28086651E+02</totfact>
</mgrwt>
</event>
<event>
 4    1  0.2209668E-005  0.7626870E+03  0.7818608E-02  0.9615654E-01
         -2   -1    0    0    0  501 -0.00000000000E+00  0.00000000000E+00  0.45844803870E+03  0.45844803871E+03  0.25500000000E-02 0. -1.
          2   -1    0    0  501    0  0.00000000000E+00 -0.00000000000E+00 -0.31720682848E+03  0.31720682849E+03  0.25500000000E-02 0.  1.
    5000001    1    1    2    0    0  0.90251602622E+01  0.29042596416E+03  0.23350039226E+03  0.41748667926E+03  0.18800000000E+03 0.  0.
   -5000001    1    1    2    0    0 -0.90251602622E+01 -0.29042596416E+03 -0.92259182034E+02  0.35816818793E+03  0.18800000000E+03 0.  0.
<mgrwt>
<rscale>  0 0.76268696E+03</rscale>
<asrwt>0</asrwt>
<pdfrwt beam="1">  1        2 0.45315261E-01 0.76268696E+03</pdfrwt>
<pdfrwt beam="2">  1       -2 0.65492577E-01 0.76268696E+03</pdfrwt>
<totfact> 0.24267875E+02</totfact>
</mgrwt>
</event>
<event>
 4    1  0.2209668E-005  0.5385043E+03  0.7818608E-02  0.1004190E+00
          2   -1    0    0  501    0  0.00000000000E+00  0.00000000000E+00  0.25359411951E+04  0.25359411951E+04  0.25500000000E-02 0.  1.
         -2   -1    0    0    0  501 -0.00000000000E+00 -0.00000000000E+00 -0.28587701385E+02  0.28587701498E+02  0.25500000000E-02 0. -1.
    5000001    1    1    2    0    0 -0.77255791181E+02  0.51241526843E+01  0.41304983790E+03  0.46037906426E+03  0.18800000000E+03 0.  0.
   -5000001    1    1    2    0    0  0.77255791181E+02 -0.51241526843E+01  0.20943036558E+04  0.21041498323E+04  0.18800000000E+03 0.  0.
<mgrwt>
<rscale>  0 0.53850434E+03</rscale>
<asrwt>0</asrwt>
<pdfrwt beam="1">  1        2 0.36227721E+00 0.53850434E+03</pdfrwt>
<pdfrwt beam="2">  1       -2 0.40839585E-02 0.53850434E+03</pdfrwt>
<totfact> 0.12492618E+03</totfact>
</mgrwt>
</event>
<event>
 4    1  0.2209668E-005  0.6258719E+03  0.7818608E-02  0.9853138E-01
         -2   -1    0    0    0  501 -0.00000000000E+00  0.00000000000E+00  0.20099711894E+03  0.20099711896E+03  0.25500000000E-02 0. -1.
          2   -1    0    0  501    0  0.00000000000E+00 -0.00000000000E+00 -0.48721543829E+03  0.48721543829E+03  0.25500000000E-02 0.  1.
    5000001    1    1    2    0    0  0.14221425716E+03  0.20324479362E+03 -0.10745141712E+03  0.32927670448E+03  0.18800000000E+03 0.  0.
   -5000001    1    1    2    0    0 -0.14221425716E+03 -0.20324479362E+03 -0.17876690222E+03  0.35893585277E+03  0.18800000000E+03 0.  0.
<mgrwt>
<rscale>  0 0.62587187E+03</rscale>
<asrwt>0</asrwt>
<pdfrwt beam="1">  1        2 0.69602205E-01 0.62587187E+03</pdfrwt>
<pdfrwt beam="2">  1       -2 0.28713874E-01 0.62587187E+03</pdfrwt>
<totfact> 0.77213679E+02</totfact>
</mgrwt>
</event>
<event>
 4    1  0.2209668E-005  0.4606346E+03  0.7818608E-02  0.1024597E+00
          2   -1    0    0  501    0  0.00000000000E+00  0.00000000000E+00  0.11976739192E+04  0.11976739192E+04  0.25500000000E-02 0. -1.
         -2   -1    0    0    0  501 -0.00000000000E+00 -0.00000000000E+00 -0.44290898085E+02  0.44290898158E+02  0.25500000000E-02 0.  1.
    5000001    1    1    2    0    0  0.12731780541E+03 -0.92948282194E+01  0.67778428336E+03  0.71486484888E+03  0.18800000000E+03 0.  0.
   -5000001    1    1    2    0    0 -0.12731780541E+03  0.92948282194E+01  0.47559873774E+03  0.52709996846E+03  0.18800000000E+03 0.  0.
<mgrwt>
<rscale>  0 0.46063458E+03</rscale>
<asrwt>0</asrwt>
<pdfrwt beam="1">  1        2 0.17109628E+00 0.46063458E+03</pdfrwt>
<pdfrwt beam="2">  1       -2 0.63272710E-02 0.46063458E+03</pdfrwt>
<totfact> 0.30732632E+03</totfact>
</mgrwt>
</event>
<event>
 4    1  0.2209668E-005  0.6433975E+03  0.7818608E-02  0.9819248E-01
         -2   -1    0    0    0  501 -0.00000000000E+00  0.00000000000E+00  0.37075421344E+02  0.37075421431E+02  0.25500000000E-02 0. -1.
          2   -1    0    0  501    0  0.00000000000E+00 -0.00000000000E+00 -0.27913390204E+04  0.27913390204E+04  0.25500000000E-02 0.  1.
    5000001    1    1    2    0    0  0.22985476635E+03  0.10374333516E+03 -0.16736680999E+04  0.17029694072E+04  0.18800000000E+03 0.  0.
   -5000001    1    1    2    0    0 -0.22985476635E+03 -0.10374333516E+03 -0.10805954991E+04  0.11254450346E+04  0.18800000000E+03 0.  0.
<mgrwt>
<rscale>  0 0.64339745E+03</rscale>
<asrwt>0</asrwt>
<pdfrwt beam="1">  1        2 0.39876258E+00 0.64339745E+03</pdfrwt>
<pdfrwt beam="2">  1       -2 0.52964905E-02 0.64339745E+03</pdfrwt>
<totfact> 0.61007300E+02</totfact>
</mgrwt>
</event>
<event>
 4    1  0.2209668E-005  0.7734750E+03  0.7818608E-02  0.9599225E-01
         -2   -1    0    0    0  501 -0.00000000000E+00  0.00000000000E+00  0.10295456212E+03  0.10295456215E+03  0.25500000000E-02 0.  1.
          2   -1    0    0  501    0  0.00000000000E+00 -0.00000000000E+00 -0.14527369655E+04  0.14527369655E+04  0.25500000000E-02 0. -1.
    5000001    1    1    2    0    0  0.26429624579E+03  0.15435142608E+03 -0.96318187216E+03  0.10279786900E+04  0.18800000000E+03 0.  0.
   -5000001    1    1    2    0    0 -0.26429624579E+03 -0.15435142608E+03 -0.38660053123E+03  0.52771283765E+03  0.18800000000E+03 0.  0.
<mgrwt>
<rscale>  0 0.77347501E+03</rscale>
<asrwt>0</asrwt>
<pdfrwt beam="1">  1        2 0.20753384E+00 0.77347501E+03</pdfrwt>
<pdfrwt beam="2">  1       -2 0.14707795E-01 0.77347501E+03</pdfrwt>
<totfact> 0.56562277E+02</totfact>
</mgrwt>
</event>
<event>
 4    1  0.2209668E-005  0.4761052E+03  0.7818608E-02  0.1020211E+00
         -2   -1    0    0    0  501 -0.00000000000E+00  0.00000000000E+00  0.15590224070E+03  0.15590224072E+03  0.25500000000E-02 0. -1.
          2   -1    0    0  501    0  0.00000000000E+00 -0.00000000000E+00 -0.36349090148E+03  0.36349090149E+03  0.25500000000E-02 0.  1.
    5000001    1    1    2    0    0 -0.24893758168E+01  0.14555452767E+03 -0.11636259640E+03  0.26471979782E+03  0.18800000000E+03 0.  0.
   -5000001    1    1    2    0    0  0.24893758168E+01 -0.14555452767E+03 -0.91226064378E+02  0.25467334438E+03  0.18800000000E+03 0.  0.
<mgrwt>
<rscale>  0 0.47610522E+03</rscale>
<asrwt>0</asrwt>
<pdfrwt beam="1">  1        2 0.51927272E-01 0.47610522E+03</pdfrwt>
<pdfrwt beam="2">  1       -2 0.22271749E-01 0.47610522E+03</pdfrwt>
<totfact> 0.16895646E+03</totfact>
</mgrwt>
</event>
<event>
 4    1  0.2209668E-005  0.5752986E+03  0.7818608E-02  0.9958022E-01
         -2   -1    0    0    0  501 -0.00000000000E+00  0.00000000000E+00  0.11020404797E+03  0.11020404800E+03  0.25500000000E-02 0. -1.
          2   -1    0    0  501    0  0.00000000000E+00 -0.00000000000E+00 -0.75080836410E+03  0.75080836411E+03  0.25500000000E-02 0.  1.
    5000001    1    1    2    0    0 -0.12897471534E+03 -0.16112493979E+03 -0.42401801193E+03  0.50767213619E+03  0.18800000000E+03 0.  0.
   -5000001    1    1    2    0    0  0.12897471534E+03  0.16112493979E+03 -0.21658630420E+03  0.35334027592E+03  0.18800000000E+03 0.  0.
<mgrwt>
<rscale>  0 0.57529860E+03</rscale>
<asrwt>0</asrwt>
<pdfrwt beam="1">  1        2 0.10725834E+00 0.57529860E+03</pdfrwt>
<pdfrwt beam="2">  1       -2 0.15743436E-01 0.57529860E+03</pdfrwt>
<totfact> 0.13322650E+03</totfact>
</mgrwt>
</event>
<event>
 4    1  0.2209668E-005  0.4808000E+03  0.7818608E-02  0.1018916E+00
          2   -1    0    0  501    0  0.00000000000E+00  0.00000000000E+00  0.26647237020E+02  0.26647237142E+02  0.25500000000E-02 0.  1.
         -2   -1    0    0    0  501 -0.00000000000E+00 -0.00000000000E+00 -0.21687863364E+04  0.21687863364E+04  0.25500000000E-02 0. -1.
    5000001    1    1    2    0    0 -0.12224619509E+03  0.42855232508E+02 -0.14148253858E+04  0.14331278992E+04  0.18800000000E+03 0.  0.
   -5000001    1    1    2    0    0  0.12224619509E+03 -0.42855232508E+02 -0.72731371353E+03  0.76230567429E+03  0.18800000000E+03 0.  0.
<mgrwt>
<rscale>  0 0.48080002E+03</rscale>
<asrwt>0</asrwt>
<pdfrwt beam="1">  1        2 0.38067495E-02 0.48080002E+03</pdfrwt>
<pdfrwt beam="2">  1       -2 0.30982651E+00 0.48080002E+03</pdfrwt>
<totfact> 0.71015966E+01</totfact>
</mgrwt>
</event>
<event>
 4    1  0.2209668E-005  0.4701188E+03  0.7818608E-02  0.1021887E+00
         -2   -1    0    0    0  501 -0.00000000000E+00  0.00000000000E+00  0.21117726484E+03  0.21117726486E+03  0.25500000000E-02 0. -1.
          2   -1    0    0  501    0  0.00000000000E+00 -0.00000000000E+00 -0.26164241734E+03  0.26164241736E+03  0.25500000000E-02 0.  1.
    5000001    1    1    2    0    0  0.12623486350E+03  0.16672282960E+00  0.38166558238E+02  0.22964310294E+03  0.18800000000E+03 0.  0.
   -5000001    1    1    2    0    0 -0.12623486350E+03 -0.16672282960E+00 -0.88631710742E+02  0.24317657928E+03  0.18800000000E+03 0.  0.
<mgrwt>
<rscale>  0 0.47011884E+03</rscale>
<asrwt>0</asrwt>
<pdfrwt beam="1">  1        2 0.37377488E-01 0.47011884E+03</pdfrwt>
<pdfrwt beam="2">  1       -2 0.30168181E-01 0.47011884E+03</pdfrwt>
<totfact> 0.14045763E+03</totfact>
</mgrwt>
</event>
<event>
 4    1  0.2209668E-005  0.1232627E+04  0.7818608E-02  0.9084768E-01
         -2   -1    0    0    0  501 -0.00000000000E+00  0.00000000000E+00  0.11896947207E+03  0.11896947209E+03  0.25500000000E-02 0. -1.
          2   -1    0    0  501    0  0.00000000000E+00 -0.00000000000E+00 -0.31927729039E+04  0.31927729039E+04  0.25500000000E-02 0.  1.
    5000001    1    1    2    0    0 -0.48133875586E+03  0.25416027565E+03 -0.21268468649E+04  0.22034305141E+04  0.18800000000E+03 0.  0.
   -5000001    1    1    2    0    0  0.48133875586E+03 -0.25416027565E+03 -0.94695656695E+03  0.11083118619E+04  0.18800000000E+03 0.  0.
<mgrwt>
<rscale>  0 0.12326273E+04</rscale>
<asrwt>0</asrwt>
<pdfrwt beam="1">  1        2 0.45611036E+00 0.12326273E+04</pdfrwt>
<pdfrwt beam="2">  1       -2 0.16995641E-01 0.12326273E+04</pdfrwt>
<totfact> 0.51887292E+01</totfact>
</mgrwt>
</event>
<event>
 4    1  0.2209668E-005  0.5550039E+03  0.7818608E-02  0.1000342E+00
         -2   -1    0    0    0  501 -0.00000000000E+00  0.00000000000E+00  0.17096232033E+03  0.17096232035E+03  0.25500000000E-02 0. -1.
          2   -1    0    0  501    0  0.00000000000E+00 -0.00000000000E+00 -0.45043446449E+03  0.45043446450E+03  0.25500000000E-02 0.  1.
    5000001    1    1    2    0    0 -0.16877976756E+03  0.17440245902E+02 -0.26676577330E+03  0.36782978389E+03  0.18800000000E+03 0.  0.
   -5000001    1    1    2    0    0  0.16877976756E+03 -0.17440245902E+02 -0.12706370864E+02  0.25356700096E+03  0.18800000000E+03 0.  0.
<mgrwt>
<rscale>  0 0.55500386E+03</rscale>
<asrwt>0</asrwt>
<pdfrwt beam="1">  1        2 0.64347780E-01 0.55500386E+03</pdfrwt>
<pdfrwt beam="2">  1       -2 0.24423189E-01 0.55500386E+03</pdfrwt>
<totfact> 0.11316991E+03</totfact>
</mgrwt>
</event>
<event>
 4    1  0.2209668E-005  0.7082548E+03  0.7818608E-02  0.9703219E-01
          2   -1    0    0  501    0  0.00000000000E+00  0.00000000000E+00  0.31283962765E+03  0.31283962766E+03  0.25500000000E-02 0.  1.
         -2   -1    0    0    0  501 -0.00000000000E+00 -0.00000000000E+00 -0.40086420383E+03  0.40086420384E+03  0.25500000000E-02 0. -1.
    5000001    1    1    2    0    0  0.91595899339E+02  0.19747429180E+03  0.16415951890E+03  0.33117707098E+03  0.18800000000E+03 0.  0.
   -5000001    1    1    2    0    0 -0.91595899339E+02 -0.19747429180E+03 -0.25218409509E+03  0.38252676052E+03  0.18800000000E+03 0.  0.
<mgrwt>
<rscale>  0 0.70825478E+03</rscale>
<asrwt>0</asrwt>
<pdfrwt beam="1">  1        2 0.44691376E-01 0.70825478E+03</pdfrwt>
<pdfrwt beam="2">  1       -2 0.57266314E-01 0.70825478E+03</pdfrwt>
<totfact> 0.32802781E+02</totfact>
</mgrwt>
</event>
<event>
 4    1  0.2209668E-005  0.5860143E+03  0.7818608E-02  0.9934854E-01
          2   -1    0    0  501    0  0.00000000000E+00  0.00000000000E+00  0.63700891231E+03  0.63700891232E+03  0.25500000000E-02 0.  1.
         -2   -1    0    0    0  501 -0.00000000000E+00 -0.00000000000E+00 -0.13477549930E+03  0.13477549932E+03  0.25500000000E-02 0. -1.
    5000001    1    1    2    0    0  0.19034726685E+03  0.11656798249E+03  0.21654642132E+03  0.36339582982E+03  0.18800000000E+03 0.  0.
   -5000001    1    1    2    0    0 -0.19034726685E+03 -0.11656798249E+03  0.28568699169E+03  0.40838858182E+03  0.18800000000E+03 0.  0.
<mgrwt>
<rscale>  0 0.58601431E+03</rscale>
<asrwt>0</asrwt>
<pdfrwt beam="1">  1        2 0.91001272E-01 0.58601431E+03</pdfrwt>
<pdfrwt beam="2">  1       -2 0.19253643E-01 0.58601431E+03</pdfrwt>
<totfact> 0.11534940E+03</totfact>
</mgrwt>
</event>
<event>
 4    1  0.2209668E-005  0.8708450E+03  0.7818608E-02  0.9462779E-01
         -2   -1    0    0    0  501 -0.00000000000E+00  0.00000000000E+00  0.28540588243E+03  0.28540588244E+03  0.25500000000E-02 0. -1.
          2   -1    0    0  501    0  0.00000000000E+00 -0.00000000000E+00 -0.66429170198E+03  0.66429170199E+03  0.25500000000E-02 0.  1.
    5000001    1    1    2    0    0 -0.26868752694E+03  0.23462566632E+03 -0.10225923246E+02  0.40334942660E+03  0.18800000000E+03 0.  0.
   -5000001    1    1    2    0    0  0.26868752694E+03 -0.23462566632E+03 -0.36865989630E+03  0.54634815784E+03  0.18800000000E+03 0.  0.
<mgrwt>
<rscale>  0 0.87084501E+03</rscale>
<asrwt>0</asrwt>
<pdfrwt beam="1">  1        2 0.94898814E-01 0.87084501E+03</pdfrwt>
<pdfrwt beam="2">  1       -2 0.40772269E-01 0.87084501E+03</pdfrwt>
<totfact> 0.27414460E+02</totfact>
</mgrwt>
</event>
<event>
 4    1  0.2209668E-005  0.5513744E+03  0.7818608E-02  0.1001176E+00
         -2   -1    0    0    0  501 -0.00000000000E+00  0.00000000000E+00  0.23419971787E+03  0.23419971788E+03  0.25500000000E-02 0. -1.
          2   -1    0    0  501    0  0.00000000000E+00 -0.00000000000E+00 -0.32452399549E+03  0.32452399550E+03  0.25500000000E-02 0.  1.
    5000001    1    1    2    0    0  0.41014160715E+02 -0.19404431006E+03 -0.82893141504E+01  0.27340092972E+03  0.18800000000E+03 0.  0.
   -5000001    1    1    2    0    0 -0.41014160715E+02  0.19404431006E+03 -0.82034963470E+02  0.28532278366E+03  0.18800000000E+03 0.  0.
<mgrwt>
<rscale>  0 0.55137439E+03</rscale>
<asrwt>0</asrwt>
<pdfrwt beam="1">  1        2 0.46360571E-01 0.55137439E+03</pdfrwt>
<pdfrwt beam="2">  1       -2 0.33457103E-01 0.55137439E+03</pdfrwt>
<totfact> 0.91461473E+02</totfact>
</mgrwt>
</event>
<event>
 4    1  0.2209668E-005  0.4807322E+03  0.7818608E-02  0.1018934E+00
          2   -1    0    0  501    0  0.00000000000E+00  0.00000000000E+00  0.20181111415E+04  0.20181111415E+04  0.25500000000E-02 0.  1.
         -2   -1    0    0    0  501 -0.00000000000E+00 -0.00000000000E+00 -0.28628687328E+02  0.28628687442E+02  0.25500000000E-02 0. -1.
    5000001    1    1    2    0    0  0.10030244079E+03 -0.94268092669E+02  0.12460742565E+04  0.12676719235E+04  0.18800000000E+03 0.  0.
   -5000001    1    1    2    0    0 -0.10030244079E+03  0.94268092669E+02  0.74340819769E+03  0.77906790546E+03  0.18800000000E+03 0.  0.
<mgrwt>
<rscale>  0 0.48073225E+03</rscale>
<asrwt>0</asrwt>
<pdfrwt beam="1">  1        2 0.28830156E+00 0.48073225E+03</pdfrwt>
<pdfrwt beam="2">  1       -2 0.40898130E-02 0.48073225E+03</pdfrwt>
<totfact> 0.22797386E+03</totfact>
</mgrwt>
</event>
<event>
 4    1  0.2209668E-005  0.4379923E+03  0.7818608E-02  0.1031365E+00
          2   -1    0    0  501    0  0.00000000000E+00  0.00000000000E+00  0.16558316238E+04  0.16558316238E+04  0.25500000000E-02 0.  1.
         -2   -1    0    0    0  501 -0.00000000000E+00 -0.00000000000E+00 -0.28963878766E+02  0.28963878878E+02  0.25500000000E-02 0. -1.
    5000001    1    1    2    0    0  0.81565743271E+01 -0.86749969618E+02  0.54080500930E+03  0.57914259472E+03  0.18800000000E+03 0.  0.
   -5000001    1    1    2    0    0 -0.81565743271E+01  0.86749969618E+02  0.10860627357E+04  0.11056529079E+04  0.18800000000E+03 0.  0.
<mgrwt>
<rscale>  0 0.43799227E+03</rscale>
<asrwt>0</asrwt>
<pdfrwt beam="1">  1        2 0.23654740E+00 0.43799227E+03</pdfrwt>
<pdfrwt beam="2">  1       -2 0.41376966E-02 0.43799227E+03</pdfrwt>
<totfact> 0.34022080E+03</totfact>
</mgrwt>
</event>
<event>
 4    1  0.2209668E-005  0.5231936E+03  0.7818608E-02  0.1007896E+00
         -2   -1    0    0    0  501 -0.00000000000E+00  0.00000000000E+00  0.43702173817E+03  0.43702173818E+03  0.25500000000E-02 0. -1.
          2   -1    0    0  501    0  0.00000000000E+00 -0.00000000000E+00 -0.15658923304E+03  0.15658923306E+03  0.25500000000E-02 0.  1.
    5000001    1    1    2    0    0  0.32158298329E+02 -0.12595106008E+03  0.28458635744E+03  0.36500852117E+03  0.18800000000E+03 0.  0.
   -5000001    1    1    2    0    0 -0.32158298329E+02  0.12595106008E+03 -0.41538523078E+01  0.22860245007E+03  0.18800000000E+03 0.  0.
<mgrwt>
<rscale>  0 0.52319365E+03</rscale>
<asrwt>0</asrwt>
<pdfrwt beam="1">  1        2 0.22369890E-01 0.52319365E+03</pdfrwt>
<pdfrwt beam="2">  1       -2 0.62431678E-01 0.52319365E+03</pdfrwt>
<totfact> 0.59750672E+02</totfact>
</mgrwt>
</event>
<event>
 4    1  0.2209668E-005  0.5334317E+03  0.7818608E-02  0.1005403E+00
         -2   -1    0    0    0  501 -0.00000000000E+00  0.00000000000E+00  0.26539357263E+03  0.26539357264E+03  0.25500000000E-02 0. -1.
          2   -1    0    0  501    0  0.00000000000E+00 -0.00000000000E+00 -0.26804473463E+03  0.26804473464E+03  0.25500000000E-02 0.  1.
    5000001    1    1    2    0    0  0.15392844902E+03 -0.10031257999E+03 -0.46456711504E+02  0.26694345313E+03  0.18800000000E+03 0.  0.
   -5000001    1    1    2    0    0 -0.15392844902E+03  0.10031257999E+03  0.43805549503E+02  0.26649485416E+03  0.18800000000E+03 0.  0.
<mgrwt>
<rscale>  0 0.53343172E+03</rscale>
<asrwt>0</asrwt>
<pdfrwt beam="1">  1        2 0.38292105E-01 0.53343172E+03</pdfrwt>
<pdfrwt beam="2">  1       -2 0.37913367E-01 0.53343172E+03</pdfrwt>
<totfact> 0.89062312E+02</totfact>
</mgrwt>
</event>
<event>
 4    1  0.2209668E-005  0.6489538E+03  0.7818608E-02  0.9808744E-01
         -2   -1    0    0    0  501 -0.00000000000E+00  0.00000000000E+00  0.73339463445E+02  0.73339463490E+02  0.25500000000E-02 0. -1.
          2   -1    0    0  501    0  0.00000000000E+00 -0.00000000000E+00 -0.14355880018E+04  0.14355880018E+04  0.25500000000E-02 0.  1.
    5000001    1    1    2    0    0  0.16478681939E+03 -0.24641772458E+02 -0.11586584786E+04  0.11855780796E+04  0.18800000000E+03 0.  0.
   -5000001    1    1    2    0    0 -0.16478681939E+03  0.24641772458E+02 -0.20359005975E+03  0.32334938568E+03  0.18800000000E+03 0.  0.
<mgrwt>
<rscale>  0 0.64895379E+03</rscale>
<asrwt>0</asrwt>
<pdfrwt beam="1">  1        2 0.20508398E+00 0.64895379E+03</pdfrwt>
<pdfrwt beam="2">  1       -2 0.10477067E-01 0.64895379E+03</pdfrwt>
<totfact> 0.10190202E+03</totfact>
</mgrwt>
</event>
<event>
 4    1  0.2209668E-005  0.5739915E+03  0.7818608E-02  0.9960885E-01
         -2   -1    0    0    0  501 -0.00000000000E+00  0.00000000000E+00  0.38533969925E+03  0.38533969926E+03  0.25500000000E-02 0.  1.
          2   -1    0    0  501    0  0.00000000000E+00 -0.00000000000E+00 -0.21375054628E+03  0.21375054630E+03  0.25500000000E-02 0. -1.
    5000001    1    1    2    0    0  0.19625625466E+03 -0.43492473713E+02  0.90899933010E+00  0.27523251814E+03  0.18800000000E+03 0.  0.
   -5000001    1    1    2    0    0 -0.19625625466E+03  0.43492473713E+02  0.17068015364E+03  0.32385772742E+03  0.18800000000E+03 0.  0.
<mgrwt>
<rscale>  0 0.57399154E+03</rscale>
<asrwt>0</asrwt>
<pdfrwt beam="1">  1        2 0.30535792E-01 0.57399154E+03</pdfrwt>
<pdfrwt beam="2">  1       -2 0.55048528E-01 0.57399154E+03</pdfrwt>
<totfact> 0.54547418E+02</totfact>
</mgrwt>
</event>
<event>
 4    1  0.2209668E-005  0.4150617E+03  0.7818608E-02  0.1038686E+00
         -2   -1    0    0    0  501 -0.00000000000E+00  0.00000000000E+00  0.76628242775E+03  0.76628242775E+03  0.25500000000E-02 0. -1.
          2   -1    0    0  501    0  0.00000000000E+00 -0.00000000000E+00 -0.56205195637E+02  0.56205195695E+02  0.25500000000E-02 0.  1.
    5000001    1    1    2    0    0 -0.11814686632E+02  0.49580498854E+02  0.21314639701E+03  0.28874417612E+03  0.18800000000E+03 0.  0.
   -5000001    1    1    2    0    0  0.11814686632E+02 -0.49580498854E+02  0.49693083510E+03  0.53374344733E+03  0.18800000000E+03 0.  0.
<mgrwt>
<rscale>  0 0.41506170E+03</rscale>
<asrwt>0</asrwt>
<pdfrwt beam="1">  1        2 0.80293136E-02 0.41506170E+03</pdfrwt>
<pdfrwt beam="2">  1       -2 0.10946892E+00 0.41506170E+03</pdfrwt>
<totfact> 0.59023628E+02</totfact>
</mgrwt>
</event>
<event>
 4    1  0.2209668E-005  0.4993412E+03  0.7818608E-02  0.1013951E+00
         -2   -1    0    0    0  501 -0.00000000000E+00  0.00000000000E+00  0.17164204227E+02  0.17164204416E+02  0.25500000000E-02 0. -1.
          2   -1    0    0  501    0  0.00000000000E+00 -0.00000000000E+00 -0.36317101196E+04  0.36317101196E+04  0.25500000000E-02 0.  1.
    5000001    1    1    2    0    0  0.24234378744E+02 -0.14609780957E+03 -0.23270498610E+04  0.23393240329E+04  0.18800000000E+03 0.  0.
   -5000001    1    1    2    0    0 -0.24234378744E+02  0.14609780957E+03 -0.12874960543E+04  0.13095502911E+04  0.18800000000E+03 0.  0.
<mgrwt>
<rscale>  0 0.49934122E+03</rscale>
<asrwt>0</asrwt>
<pdfrwt beam="1">  1        2 0.51881524E+00 0.49934122E+03</pdfrwt>
<pdfrwt beam="2">  1       -2 0.24520315E-02 0.49934122E+03</pdfrwt>
<totfact> 0.67515745E+02</totfact>
</mgrwt>
</event>
<event>
 4    1  0.2209668E-005  0.6679020E+03  0.7818608E-02  0.9773755E-01
          2   -1    0    0  501    0  0.00000000000E+00  0.00000000000E+00  0.31970343556E+03  0.31970343557E+03  0.25500000000E-02 0.  1.
         -2   -1    0    0    0  501 -0.00000000000E+00 -0.00000000000E+00 -0.34883346914E+03  0.34883346915E+03  0.25500000000E-02 0. -1.
    5000001    1    1    2    0    0 -0.14558033742E+03  0.58678086508E+02 -0.24181058943E+03  0.34417018122E+03  0.18800000000E+03 0.  0.
   -5000001    1    1    2    0    0  0.14558033742E+03 -0.58678086508E+02  0.21268055585E+03  0.32436672350E+03  0.18800000000E+03 0.  0.
<mgrwt>
<rscale>  0 0.66790196E+03</rscale>
<asrwt>0</asrwt>
<pdfrwt beam="1">  1        2 0.45671919E-01 0.66790196E+03</pdfrwt>
<pdfrwt beam="2">  1       -2 0.49833353E-01 0.66790196E+03</pdfrwt>
<totfact> 0.42676200E+02</totfact>
</mgrwt>
</event>
<event>
 4    1  0.2209668E-005  0.4063200E+03  0.7818608E-02  0.1041613E+00
          2   -1    0    0  501    0  0.00000000000E+00  0.00000000000E+00  0.26137994056E+04  0.26137994056E+04  0.25500000000E-02 0.  1.
         -2   -1    0    0    0  501 -0.00000000000E+00 -0.00000000000E+00 -0.15790797848E+02  0.15790798054E+02  0.25500000000E-02 0. -1.
    5000001    1    1    2    0    0  0.75612780519E+02 -0.11320841013E+02  0.12395051682E+04  0.12560105557E+04  0.18800000000E+03 0.  0.
   -5000001    1    1    2    0    0 -0.75612780519E+02  0.11320841013E+02  0.13585034396E+04  0.13735796480E+04  0.18800000000E+03 0.  0.
<mgrwt>
<rscale>  0 0.40631996E+03</rscale>
<asrwt>0</asrwt>
<pdfrwt beam="1">  1        2 0.37339982E+00 0.40631996E+03</pdfrwt>
<pdfrwt beam="2">  1       -2 0.22558288E-02 0.40631996E+03</pdfrwt>
<totfact> 0.28204422E+03</totfact>
</mgrwt>
</event>
<event>
 4    1  0.2209668E-005  0.5101826E+03  0.7818608E-02  0.1011155E+00
          2   -1    0    0  501    0  0.00000000000E+00  0.00000000000E+00  0.92077544682E+03  0.92077544683E+03  0.25500000000E-02 0.  1.
         -2   -1    0    0    0  501 -0.00000000000E+00 -0.00000000000E+00 -0.70670398665E+02  0.70670398711E+02  0.25500000000E-02 0. -1.
    5000001    1    1    2    0    0  0.24198064150E+02  0.11883055198E+03  0.66322821689E+03  0.69994422212E+03  0.18800000000E+03 0.  0.
   -5000001    1    1    2    0    0 -0.24198064150E+02 -0.11883055198E+03  0.18687683127E+03  0.29150162342E+03  0.18800000000E+03 0.  0.
<mgrwt>
<rscale>  0 0.51018259E+03</rscale>
<asrwt>0</asrwt>
<pdfrwt beam="1">  1        2 0.13153934E+00 0.51018259E+03</pdfrwt>
<pdfrwt beam="2">  1       -2 0.10095772E-01 0.51018259E+03</pdfrwt>
<totfact> 0.21323767E+03</totfact>
</mgrwt>
</event>
<event>
 4    1  0.2209668E-005  0.6463889E+03  0.7818608E-02  0.9813579E-01
          2   -1    0    0  501    0  0.00000000000E+00  0.00000000000E+00  0.77063761933E+02  0.77063761975E+02  0.25500000000E-02 0.  1.
         -2   -1    0    0    0  501 -0.00000000000E+00 -0.00000000000E+00 -0.13554314224E+04  0.13554314224E+04  0.25500000000E-02 0. -1.
    5000001    1    1    2    0    0  0.37984497850E+02 -0.17585238018E+03 -0.10639902896E+04  0.10953475330E+04  0.18800000000E+03 0.  0.
   -5000001    1    1    2    0    0 -0.37984497850E+02  0.17585238018E+03 -0.21437737088E+03  0.33714765139E+03  0.18800000000E+03 0.  0.
<mgrwt>
<rscale>  0 0.64638888E+03</rscale>
<asrwt>0</asrwt>
<pdfrwt beam="1">  1        2 0.11009110E-01 0.64638888E+03</pdfrwt>
<pdfrwt beam="2">  1       -2 0.19363305E+00 0.64638888E+03</pdfrwt>
<totfact> 0.88138622E+01</totfact>
</mgrwt>
</event>
<event>
 4    1  0.2209668E-005  0.4310353E+03  0.7818608E-02  0.1033533E+00
          2   -1    0    0  501    0  0.00000000000E+00  0.00000000000E+00  0.19745592227E+04  0.19745592227E+04  0.25500000000E-02 0.  1.
         -2   -1    0    0    0  501 -0.00000000000E+00 -0.00000000000E+00 -0.23523148377E+02  0.23523148515E+02  0.25500000000E-02 0. -1.
    5000001    1    1    2    0    0 -0.50738131815E+02  0.45812970019E+02  0.60378729638E+03  0.63606311441E+03  0.18800000000E+03 0.  0.
   -5000001    1    1    2    0    0  0.50738131815E+02 -0.45812970019E+02  0.13472487779E+04  0.13620192568E+04  0.18800000000E+03 0.  0.
<mgrwt>
<rscale>  0 0.43103526E+03</rscale>
<asrwt>0</asrwt>
<pdfrwt beam="1">  1        2 0.28208001E+00 0.43103526E+03</pdfrwt>
<pdfrwt beam="2">  1       -2 0.33604483E-02 0.43103526E+03</pdfrwt>
<totfact> 0.32362127E+03</totfact>
</mgrwt>
</event>
<event>
 4    1  0.2209668E-005  0.8280462E+03  0.7818608E-02  0.9520286E-01
          2   -1    0    0  501    0  0.00000000000E+00  0.00000000000E+00  0.93521405483E+03  0.93521405484E+03  0.25500000000E-02 0.  1.
         -2   -1    0    0    0  501 -0.00000000000E+00 -0.00000000000E+00 -0.18328973854E+03  0.18328973856E+03  0.25500000000E-02 0. -1.
    5000001    1    1    2    0    0 -0.18790400120E+03  0.24193709276E+03  0.98379892330E+02  0.37264470174E+03  0.18800000000E+03 0.  0.
   -5000001    1    1    2    0    0  0.18790400120E+03 -0.24193709276E+03  0.65354442396E+03  0.74585909166E+03  0.18800000000E+03 0.  0.
<mgrwt>
<rscale>  0 0.82804623E+03</rscale>
<asrwt>0</asrwt>
<pdfrwt beam="1">  1        2 0.13360201E+00 0.82804623E+03</pdfrwt>
<pdfrwt beam="2">  1       -2 0.26184249E-01 0.82804623E+03</pdfrwt>
<totfact> 0.40726456E+02</totfact>
</mgrwt>
</event>
<event>
 4    1  0.2209668E-005  0.4912032E+03  0.7818608E-02  0.1016101E+00
         -2   -1    0    0    0  501 -0.00000000000E+00  0.00000000000E+00  0.10920064174E+03  0.10920064177E+03  0.25500000000E-02 0. -1.
          2   -1    0    0  501    0  0.00000000000E+00 -0.00000000000E+00 -0.55237915466E+03  0.55237915467E+03  0.25500000000E-02 0.  1.
    5000001    1    1    2    0    0  0.13255657804E+03  0.60090807842E+02 -0.30454950501E+03  0.38636323915E+03  0.18800000000E+03 0.  0.
   -5000001    1    1    2    0    0 -0.13255657804E+03 -0.60090807842E+02 -0.13862900792E+03  0.27521655729E+03  0.18800000000E+03 0.  0.
<mgrwt>
<rscale>  0 0.49120325E+03</rscale>
<asrwt>0</asrwt>
<pdfrwt beam="1">  1        2 0.78911306E-01 0.49120325E+03</pdfrwt>
<pdfrwt beam="2">  1       -2 0.15600092E-01 0.49120325E+03</pdfrwt>
<totfact> 0.19520110E+03</totfact>
</mgrwt>
</event>
<event>
 4    1  0.2209668E-005  0.6589467E+03  0.7818608E-02  0.9790135E-01
         -2   -1    0    0    0  501 -0.00000000000E+00  0.00000000000E+00  0.79207100080E+02  0.79207100121E+02  0.25500000000E-02 0. -1.
          2   -1    0    0  501    0  0.00000000000E+00 -0.00000000000E+00 -0.13704920411E+04  0.13704920411E+04  0.25500000000E-02 0.  1.
    5000001    1    1    2    0    0  0.29631144936E+02  0.25259499299E+03 -0.84879024959E+03  0.90579861064E+03  0.18800000000E+03 0.  0.
   -5000001    1    1    2    0    0 -0.29631144936E+02 -0.25259499299E+03 -0.44249469145E+03  0.54390053061E+03  0.18800000000E+03 0.  0.
<mgrwt>
<rscale>  0 0.65894674E+03</rscale>
<asrwt>0</asrwt>
<pdfrwt beam="1">  1        2 0.19578456E+00 0.65894674E+03</pdfrwt>
<pdfrwt beam="2">  1       -2 0.11315301E-01 0.65894674E+03</pdfrwt>
<totfact> 0.97278122E+02</totfact>
</mgrwt>
</event>
<event>
 4    1  0.2209668E-005  0.6516475E+03  0.7818608E-02  0.9803693E-01
         -2   -1    0    0    0  501 -0.00000000000E+00  0.00000000000E+00  0.63114186321E+03  0.63114186322E+03  0.25500000000E-02 0. -1.
          2   -1    0    0  501    0  0.00000000000E+00 -0.00000000000E+00 -0.16820484190E+03  0.16820484192E+03  0.25500000000E-02 0.  1.
    5000001    1    1    2    0    0  0.25487712007E+03 -0.41291251243E+02  0.15244865671E+03  0.35390946116E+03  0.18800000000E+03 0.  0.
   -5000001    1    1    2    0    0 -0.25487712007E+03  0.41291251243E+02  0.31048836461E+03  0.44543724398E+03  0.18800000000E+03 0.  0.
<mgrwt>
<rscale>  0 0.65164750E+03</rscale>
<asrwt>0</asrwt>
<pdfrwt beam="1">  1        2 0.24029263E-01 0.65164750E+03</pdfrwt>
<pdfrwt beam="2">  1       -2 0.90163125E-01 0.65164750E+03</pdfrwt>
<totfact> 0.24395862E+02</totfact>
</mgrwt>
</event>
<event>
 4    1  0.2209668E-005  0.5059124E+03  0.7818608E-02  0.1012247E+00
          2   -1    0    0  501    0  0.00000000000E+00  0.00000000000E+00  0.15866049998E+04  0.15866049998E+04  0.25500000000E-02 0.  1.
         -2   -1    0    0    0  501 -0.00000000000E+00 -0.00000000000E+00 -0.40329399728E+02  0.40329399808E+02  0.25500000000E-02 0. -1.
    5000001    1    1    2    0    0  0.16676431533E+03  0.16599329087E+02  0.69724441528E+03  0.74133639411E+03  0.18800000000E+03 0.  0.
   -5000001    1    1    2    0    0 -0.16676431533E+03 -0.16599329087E+02  0.84903118479E+03  0.88559800549E+03  0.18800000000E+03 0.  0.
<mgrwt>
<rscale>  0 0.50591235E+03</rscale>
<asrwt>0</asrwt>
<pdfrwt beam="1">  1        2 0.22665785E+00 0.50591235E+03</pdfrwt>
<pdfrwt beam="2">  1       -2 0.57613431E-02 0.50591235E+03</pdfrwt>
<totfact> 0.22122763E+03</totfact>
</mgrwt>
</event>
<event>
 4    1  0.2209668E-005  0.5314680E+03  0.7818608E-02  0.1005877E+00
         -2   -1    0    0    0  501 -0.00000000000E+00  0.00000000000E+00  0.29096453423E+02  0.29096453535E+02  0.25500000000E-02 0. -1.
          2   -1    0    0  501    0  0.00000000000E+00 -0.00000000000E+00 -0.24269128527E+04  0.24269128527E+04  0.25500000000E-02 0.  1.
    5000001    1    1    2    0    0 -0.16051566256E+03  0.53832967079E+02 -0.82327445570E+03  0.86127120913E+03  0.18800000000E+03 0.  0.
   -5000001    1    1    2    0    0  0.16051566256E+03 -0.53832967079E+02 -0.15745419435E+04  0.15947380971E+04  0.18800000000E+03 0.  0.
<mgrwt>
<rscale>  0 0.53146799E+03</rscale>
<asrwt>0</asrwt>
<pdfrwt beam="1">  1        2 0.34670171E+00 0.53146799E+03</pdfrwt>
<pdfrwt beam="2">  1       -2 0.41566378E-02 0.53146799E+03</pdfrwt>
<totfact> 0.13828180E+03</totfact>
</mgrwt>
</event>
<event>
 4    1  0.2209668E-005  0.1132418E+04  0.7818608E-02  0.9174158E-01
          2   -1    0    0  501    0  0.00000000000E+00  0.00000000000E+00  0.15630323882E+04  0.15630323882E+04  0.25500000000E-02 0.  1.
         -2   -1    0    0    0  501 -0.00000000000E+00 -0.00000000000E+00 -0.20510950119E+03  0.20510950120E+03  0.25500000000E-02 0. -1.
    5000001    1    1    2    0    0 -0.23284080953E+03  0.62669720770E+02 -0.65127721669E+02  0.31261470953E+03  0.18800000000E+03 0.  0.
   -5000001    1    1    2    0    0  0.23284080953E+03 -0.62669720770E+02  0.14230506086E+04  0.14555271798E+04  0.18800000000E+03 0.  0.
<mgrwt>
<rscale>  0 0.11324183E+04</rscale>
<asrwt>0</asrwt>
<pdfrwt beam="1">  1        2 0.22329034E+00 0.11324183E+04</pdfrwt>
<pdfrwt beam="2">  1       -2 0.29301358E-01 0.11324183E+04</pdfrwt>
<totfact> 0.14350818E+02</totfact>
</mgrwt>
</event>
<event>
 4    1  0.2209668E-005  0.4775180E+03  0.7818608E-02  0.1019820E+00
          2   -1    0    0  501    0  0.00000000000E+00  0.00000000000E+00  0.48085845391E+03  0.48085845391E+03  0.25500000000E-02 0.  1.
         -2   -1    0    0    0  501 -0.00000000000E+00 -0.00000000000E+00 -0.11855017004E+03  0.11855017007E+03  0.25500000000E-02 0. -1.
    5000001    1    1    2    0    0  0.98833800314E+02 -0.57117132967E+02  0.64534151342E+02  0.22921418728E+03  0.18800000000E+03 0.  0.
   -5000001    1    1    2    0    0 -0.98833800314E+02  0.57117132967E+02  0.29777413252E+03  0.37019443670E+03  0.18800000000E+03 0.  0.
<mgrwt>
<rscale>  0 0.47751796E+03</rscale>
<asrwt>0</asrwt>
<pdfrwt beam="1">  1        2 0.68694065E-01 0.47751796E+03</pdfrwt>
<pdfrwt beam="2">  1       -2 0.16935739E-01 0.47751796E+03</pdfrwt>
<totfact> 0.19883275E+03</totfact>
</mgrwt>
</event>
<event>
 4    1  0.2209668E-005  0.5610615E+03  0.7818608E-02  0.9989656E-01
          2   -1    0    0  501    0  0.00000000000E+00  0.00000000000E+00  0.25419462375E+04  0.25419462375E+04  0.25500000000E-02 0.  1.
         -2   -1    0    0    0  501 -0.00000000000E+00 -0.00000000000E+00 -0.30959546713E+02  0.30959546818E+02  0.25500000000E-02 0. -1.
    5000001    1    1    2    0    0 -0.13252444077E+03 -0.14513263544E+03  0.15707902617E+04  0.15941619289E+04  0.18800000000E+03 0.  0.
   -5000001    1    1    2    0    0  0.13252444077E+03  0.14513263544E+03  0.94019642909E+03  0.97874385544E+03  0.18800000000E+03 0.  0.
<mgrwt>
<rscale>  0 0.56106151E+03</rscale>
<asrwt>0</asrwt>
<pdfrwt beam="1">  1        2 0.36313522E+00 0.56106151E+03</pdfrwt>
<pdfrwt beam="2">  1       -2 0.44227918E-02 0.56106151E+03</pdfrwt>
<totfact> 0.10956020E+03</totfact>
</mgrwt>
</event>
<event>
 4    1  0.2209668E-005  0.9194854E+03  0.7818608E-02  0.9401546E-01
         -2   -1    0    0    0  501 -0.00000000000E+00  0.00000000000E+00  0.83690946714E+02  0.83690946753E+02  0.25500000000E-02 0. -1.
          2   -1    0    0  501    0  0.00000000000E+00 -0.00000000000E+00 -0.25255223850E+04  0.25255223850E+04  0.25500000000E-02 0.  1.
    5000001    1    1    2    0    0  0.32653882937E+03  0.19746716857E+03 -0.72616025194E+03  0.84158992463E+03  0.18800000000E+03 0.  0.
   -5000001    1    1    2    0    0 -0.32653882937E+03 -0.19746716857E+03 -0.17156711864E+04  0.17676234072E+04  0.18800000000E+03 0.  0.
<mgrwt>
<rscale>  0 0.91948542E+03</rscale>
<asrwt>0</asrwt>
<pdfrwt beam="1">  1        2 0.36078887E+00 0.91948542E+03</pdfrwt>
<pdfrwt beam="2">  1       -2 0.11955851E-01 0.91948542E+03</pdfrwt>
<totfact> 0.22279819E+02</totfact>
</mgrwt>
</event>
<event>
 4    1  0.2209668E-005  0.1902969E+04  0.7818608E-02  0.8653380E-01
          2   -1    0    0  501    0  0.00000000000E+00  0.00000000000E+00  0.27729840564E+04  0.27729840564E+04  0.25500000000E-02 0.  1.
         -2   -1    0    0    0  501 -0.00000000000E+00 -0.00000000000E+00 -0.32647947878E+03  0.32647947879E+03  0.25500000000E-02 0. -1.
    5000001    1    1    2    0    0  0.18915602412E+03 -0.89577922003E+03  0.93290483108E+03  0.13205513380E+04  0.18800000000E+03 0.  0.
   -5000001    1    1    2    0    0 -0.18915602412E+03  0.89577922003E+03  0.15135997465E+04  0.17789121971E+04  0.18800000000E+03 0.  0.
<mgrwt>
<rscale>  0 0.19029686E+04</rscale>
<asrwt>0</asrwt>
<pdfrwt beam="1">  1        2 0.39614058E+00 0.19029686E+04</pdfrwt>
<pdfrwt beam="2">  1       -2 0.46639925E-01 0.19029686E+04</pdfrwt>
<totfact> 0.12897018E+01</totfact>
</mgrwt>
</event>
<event>
 4    1  0.2209668E-005  0.5184302E+03  0.7818608E-02  0.1009077E+00
         -2   -1    0    0    0  501 -0.00000000000E+00  0.00000000000E+00  0.11524335838E+03  0.11524335841E+03  0.25500000000E-02 0. -1.
          2   -1    0    0  501    0  0.00000000000E+00 -0.00000000000E+00 -0.58304840881E+03  0.58304840881E+03  0.25500000000E-02 0.  1.
    5000001    1    1    2    0    0 -0.16799129846E+03 -0.34444419485E+02 -0.16735572065E+03  0.30456433085E+03  0.18800000000E+03 0.  0.
   -5000001    1    1    2    0    0  0.16799129846E+03  0.34444419485E+02 -0.30044932978E+03  0.39372743638E+03  0.18800000000E+03 0.  0.
<mgrwt>
<rscale>  0 0.51843016E+03</rscale>
<asrwt>0</asrwt>
<pdfrwt beam="1">  1        2 0.83292629E-01 0.51843016E+03</pdfrwt>
<pdfrwt beam="2">  1       -2 0.16463337E-01 0.51843016E+03</pdfrwt>
<totfact> 0.16745481E+03</totfact>
</mgrwt>
</event>
<event>
 4    1  0.2209668E-005  0.5266160E+03  0.7818608E-02  0.1007056E+00
          2   -1    0    0  501    0  0.00000000000E+00  0.00000000000E+00  0.14311944732E+04  0.14311944733E+04  0.25500000000E-02 0.  1.
         -2   -1    0    0    0  501 -0.00000000000E+00 -0.00000000000E+00 -0.48442828915E+02  0.48442828982E+02  0.25500000000E-02 0. -1.
    5000001    1    1    2    0    0  0.56910685538E+01  0.16034682138E+03  0.94648149899E+03  0.97822017937E+03  0.18800000000E+03 0.  0.
   -5000001    1    1    2    0    0 -0.56910685538E+01 -0.16034682138E+03  0.43627014534E+03  0.50141712286E+03  0.18800000000E+03 0.  0.
<mgrwt>
<rscale>  0 0.52661602E+03</rscale>
<asrwt>0</asrwt>
<pdfrwt beam="1">  1        2 0.20445635E+00 0.52661602E+03</pdfrwt>
<pdfrwt beam="2">  1       -2 0.69204043E-02 0.52661602E+03</pdfrwt>
<totfact> 0.19975523E+03</totfact>
</mgrwt>
</event>
<event>
 4    1  0.2209668E-005  0.8175211E+03  0.7818608E-02  0.9534997E-01
          2   -1    0    0  501    0  0.00000000000E+00  0.00000000000E+00  0.25102668642E+04  0.25102668642E+04  0.25500000000E-02 0.  1.
         -2   -1    0    0    0  501 -0.00000000000E+00 -0.00000000000E+00 -0.66560718895E+02  0.66560718943E+02  0.25500000000E-02 0. -1.
    5000001    1    1    2    0    0  0.24712573302E+03  0.81483617302E+02  0.20194431181E+04  0.20447995537E+04  0.18800000000E+03 0.  0.
   -5000001    1    1    2    0    0 -0.24712573302E+03 -0.81483617302E+02  0.42426302727E+03  0.53202802945E+03  0.18800000000E+03 0.  0.
<mgrwt>
<rscale>  0 0.81752105E+03</rscale>
<asrwt>0</asrwt>
<pdfrwt beam="1">  1        2 0.35860958E+00 0.81752105E+03</pdfrwt>
<pdfrwt beam="2">  1       -2 0.95086733E-02 0.81752105E+03</pdfrwt>
<totfact> 0.33309225E+02</totfact>
</mgrwt>
</event>
<event>
 4    1  0.2209668E-005  0.8343309E+03  0.7818608E-02  0.9511612E-01
         -2   -1    0    0    0  501 -0.00000000000E+00  0.00000000000E+00  0.91876456088E+02  0.91876456124E+02  0.25500000000E-02 0. -1.
          2   -1    0    0  501    0  0.00000000000E+00 -0.00000000000E+00 -0.18941414381E+04  0.18941414381E+04  0.25500000000E-02 0.  1.
    5000001    1    1    2    0    0 -0.63153126272E+02 -0.34657512451E+03 -0.61370447955E+03  0.73217472129E+03  0.18800000000E+03 0.  0.
   -5000001    1    1    2    0    0  0.63153126272E+02  0.34657512451E+03 -0.11885605025E+04  0.12538431729E+04  0.18800000000E+03 0.  0.
<mgrwt>
<rscale>  0 0.83433088E+03</rscale>
<asrwt>0</asrwt>
<pdfrwt beam="1">  1        2 0.27059161E+00 0.83433088E+03</pdfrwt>
<pdfrwt beam="2">  1       -2 0.13125209E-01 0.83433088E+03</pdfrwt>
<totfact> 0.40377876E+02</totfact>
</mgrwt>
</event>
<event>
 4    1  0.2209668E-005  0.1429559E+04  0.7818608E-02  0.8932696E-01
         -2   -1    0    0    0  501 -0.00000000000E+00  0.00000000000E+00  0.26492595260E+03  0.26492595262E+03  0.25500000000E-02 0. -1.
          2   -1    0    0  501    0  0.00000000000E+00 -0.00000000000E+00 -0.19285003389E+04  0.19285003389E+04  0.25500000000E-02 0.  1.
    5000001    1    1    2    0    0  0.53013051925E+03 -0.33973375445E+03 -0.40023608898E+03  0.76940907083E+03  0.18800000000E+03 0.  0.
   -5000001    1    1    2    0    0 -0.53013051925E+03  0.33973375445E+03 -0.12633382973E+04  0.14240172207E+04  0.18800000000E+03 0.  0.
<mgrwt>
<rscale>  0 0.14295591E+04</rscale>
<asrwt>0</asrwt>
<pdfrwt beam="1">  1        2 0.27550004E+00 0.14295591E+04</pdfrwt>
<pdfrwt beam="2">  1       -2 0.37846566E-01 0.14295591E+04</pdfrwt>
<totfact> 0.55944335E+01</totfact>
</mgrwt>
</event>
<event>
 4    1  0.2209668E-005  0.4744964E+03  0.7818608E-02  0.1020659E+00
         -2   -1    0    0    0  501 -0.00000000000E+00  0.00000000000E+00  0.23070869537E+02  0.23070869677E+02  0.25500000000E-02 0. -1.
          2   -1    0    0  501    0  0.00000000000E+00 -0.00000000000E+00 -0.24397303225E+04  0.24397303225E+04  0.25500000000E-02 0.  1.
    5000001    1    1    2    0    0 -0.18736815441E+02 -0.14131908382E+03 -0.10790339582E+04  0.11045272449E+04  0.18800000000E+03 0.  0.
   -5000001    1    1    2    0    0  0.18736815441E+02  0.14131908382E+03 -0.13376254947E+04  0.13582739473E+04  0.18800000000E+03 0.  0.
<mgrwt>
<rscale>  0 0.47449637E+03</rscale>
<asrwt>0</asrwt>
<pdfrwt beam="1">  1        2 0.34853274E+00 0.47449637E+03</pdfrwt>
<pdfrwt beam="2">  1       -2 0.32958401E-02 0.47449637E+03</pdfrwt>
<totfact> 0.19476655E+03</totfact>
</mgrwt>
</event>
<event>
 4    1  0.2209668E-005  0.6837134E+03  0.7818608E-02  0.9745497E-01
         -2   -1    0    0    0  501 -0.00000000000E+00  0.00000000000E+00  0.50387513688E+03  0.50387513688E+03  0.25500000000E-02 0. -1.
          2   -1    0    0  501    0  0.00000000000E+00 -0.00000000000E+00 -0.23193441861E+03  0.23193441863E+03  0.25500000000E-02 0.  1.
    5000001    1    1    2    0    0 -0.65761857702E+02 -0.27541440599E+03  0.96512400594E+02  0.35332189349E+03  0.18800000000E+03 0.  0.
   -5000001    1    1    2    0    0  0.65761857702E+02  0.27541440599E+03  0.17542831767E+03  0.38248766201E+03  0.18800000000E+03 0.  0.
<mgrwt>
<rscale>  0 0.68371335E+03</rscale>
<asrwt>0</asrwt>
<pdfrwt beam="1">  1        2 0.33133488E-01 0.68371335E+03</pdfrwt>
<pdfrwt beam="2">  1       -2 0.71982162E-01 0.68371335E+03</pdfrwt>
<totfact> 0.28078587E+02</totfact>
</mgrwt>
</event>
<event>
 4    1  0.2209668E-005  0.8264105E+03  0.7818608E-02  0.9522557E-01
         -2   -1    0    0    0  501 -0.00000000000E+00  0.00000000000E+00  0.47776467349E+03  0.47776467350E+03  0.25500000000E-02 0. -1.
          2   -1    0    0  501    0  0.00000000000E+00 -0.00000000000E+00 -0.35736962619E+03  0.35736962620E+03  0.25500000000E-02 0.  1.
    5000001    1    1    2    0    0 -0.17662362237E+03  0.30102401022E+03 -0.57579865153E+02  0.40058806720E+03  0.18800000000E+03 0.  0.
   -5000001    1    1    2    0    0  0.17662362237E+03 -0.30102401022E+03  0.17797491246E+03  0.43454623249E+03  0.18800000000E+03 0.  0.
<mgrwt>
<rscale>  0 0.82641051E+03</rscale>
<asrwt>0</asrwt>
<pdfrwt beam="1">  1        2 0.51052804E-01 0.82641051E+03</pdfrwt>
<pdfrwt beam="2">  1       -2 0.68252096E-01 0.82641051E+03</pdfrwt>
<totfact> 0.19398289E+02</totfact>
</mgrwt>
</event>
<event>
 4    1  0.2209668E-005  0.1446262E+04  0.7818608E-02  0.8920996E-01
         -2   -1    0    0    0  501 -0.00000000000E+00  0.00000000000E+00  0.47291800393E+03  0.47291800394E+03  0.25500000000E-02 0. -1.
          2   -1    0    0  501    0  0.00000000000E+00 -0.00000000000E+00 -0.11057278342E+04  0.11057278342E+04  0.25500000000E-02 0.  1.
    5000001    1    1    2    0    0 -0.53672082996E+03  0.32601003815E+03 -0.64967685832E+03  0.92291701389E+03  0.18800000000E+03 0.  0.
   -5000001    1    1    2    0    0  0.53672082996E+03 -0.32601003815E+03  0.16867028069E+02  0.65572882423E+03  0.18800000000E+03 0.  0.
<mgrwt>
<rscale>  0 0.14462622E+04</rscale>
<asrwt>0</asrwt>
<pdfrwt beam="1">  1        2 0.15796112E+00 0.14462622E+04</pdfrwt>
<pdfrwt beam="2">  1       -2 0.67559715E-01 0.14462622E+04</pdfrwt>
<totfact> 0.47303613E+01</totfact>
</mgrwt>
</event>
<event>
 4    1  0.2209668E-005  0.5795558E+03  0.7818608E-02  0.9948753E-01
         -2   -1    0    0    0  501 -0.00000000000E+00  0.00000000000E+00  0.17919630175E+03  0.17919630177E+03  0.25500000000E-02 0. -1.
          2   -1    0    0  501    0  0.00000000000E+00 -0.00000000000E+00 -0.46859907290E+03  0.46859907291E+03  0.25500000000E-02 0.  1.
    5000001    1    1    2    0    0  0.31617387515E+02 -0.21753124552E+03 -0.12509399940E+03  0.31513808188E+03  0.18800000000E+03 0.  0.
   -5000001    1    1    2    0    0 -0.31617387515E+02  0.21753124552E+03 -0.16430877176E+03  0.33265729279E+03  0.18800000000E+03 0.  0.
<mgrwt>
<rscale>  0 0.57955576E+03</rscale>
<asrwt>0</asrwt>
<pdfrwt beam="1">  1        2 0.66942725E-01 0.57955576E+03</pdfrwt>
<pdfrwt beam="2">  1       -2 0.25599472E-01 0.57955576E+03</pdfrwt>
<totfact> 0.99480141E+02</totfact>
</mgrwt>
</event>
<event>
 4    1  0.2209668E-005  0.5587904E+03  0.7818608E-02  0.9994795E-01
         -2   -1    0    0    0  501 -0.00000000000E+00  0.00000000000E+00  0.13200836003E+03  0.13200836006E+03  0.25500000000E-02 0. -1.
          2   -1    0    0  501    0  0.00000000000E+00 -0.00000000000E+00 -0.59133880074E+03  0.59133880074E+03  0.25500000000E-02 0.  1.
    5000001    1    1    2    0    0  0.60526889523E+02  0.18307467152E+03 -0.13333389903E+03  0.30050252634E+03  0.18800000000E+03 0.  0.
   -5000001    1    1    2    0    0 -0.60526889523E+02 -0.18307467152E+03 -0.32599654168E+03  0.42284463446E+03  0.18800000000E+03 0.  0.
<mgrwt>
<rscale>  0 0.55879036E+03</rscale>
<asrwt>0</asrwt>
<pdfrwt beam="1">  1        2 0.84476971E-01 0.55879036E+03</pdfrwt>
<pdfrwt beam="2">  1       -2 0.18858337E-01 0.55879036E+03</pdfrwt>
<totfact> 0.13056943E+03</totfact>
</mgrwt>
</event>
<event>
 4    1  0.2209668E-005  0.1154261E+04  0.7818608E-02  0.9153862E-01
         -2   -1    0    0    0  501 -0.00000000000E+00  0.00000000000E+00  0.22827280435E+03  0.22827280436E+03  0.25500000000E-02 0. -1.
          2   -1    0    0  501    0  0.00000000000E+00 -0.00000000000E+00 -0.14591290222E+04  0.14591290222E+04  0.25500000000E-02 0.  1.
    5000001    1    1    2    0    0  0.19620867197E+03  0.50715982225E+03 -0.54961797567E+03  0.79569645434E+03  0.18800000000E+03 0.  0.
   -5000001    1    1    2    0    0 -0.19620867197E+03 -0.50715982225E+03 -0.68123824221E+03  0.89170537225E+03  0.18800000000E+03 0.  0.
<mgrwt>
<rscale>  0 0.11542608E+04</rscale>
<asrwt>0</asrwt>
<pdfrwt beam="1">  1        2 0.20844700E+00 0.11542608E+04</pdfrwt>
<pdfrwt beam="2">  1       -2 0.32610401E-01 0.11542608E+04</pdfrwt>
<totfact> 0.13317417E+02</totfact>
</mgrwt>
</event>
<event>
 4    1  0.2209668E-005  0.1041520E+04  0.7818608E-02  0.9264144E-01
          2   -1    0    0  501    0  0.00000000000E+00  0.00000000000E+00  0.74920734286E+03  0.74920734287E+03  0.25500000000E-02 0.  1.
         -2   -1    0    0    0  501 -0.00000000000E+00 -0.00000000000E+00 -0.36197023935E+03  0.36197023936E+03  0.25500000000E-02 0. -1.
    5000001    1    1    2    0    0  0.36878607149E+03  0.31534585140E+03  0.17226523313E+03  0.54814731876E+03  0.18800000000E+03 0.  0.
   -5000001    1    1    2    0    0 -0.36878607149E+03 -0.31534585140E+03  0.21497187039E+03  0.56303026347E+03  0.18800000000E+03 0.  0.
<mgrwt>
<rscale>  0 0.10415196E+04</rscale>
<asrwt>0</asrwt>
<pdfrwt beam="1">  1        2 0.10702962E+00 0.10415196E+04</pdfrwt>
<pdfrwt beam="2">  1       -2 0.51710034E-01 0.10415196E+04</pdfrwt>
<totfact> 0.14545228E+02</totfact>
</mgrwt>
</event>
<event>
 4    1  0.2209668E-005  0.9358328E+03  0.7818608E-02  0.9381865E-01
          2   -1    0    0  501    0  0.00000000000E+00  0.00000000000E+00  0.86233570715E+03  0.86233570715E+03  0.25500000000E-02 0.  1.
         -2   -1    0    0    0  501 -0.00000000000E+00 -0.00000000000E+00 -0.25389852679E+03  0.25389852680E+03  0.25500000000E-02 0. -1.
    5000001    1    1    2    0    0 -0.40215497756E+03 -0.85949269640E+02  0.44777720179E+03  0.63636807381E+03  0.18800000000E+03 0.  0.
   -5000001    1    1    2    0    0  0.40215497756E+03  0.85949269640E+02  0.16065997857E+03  0.47986616014E+03  0.18800000000E+03 0.  0.
<mgrwt>
<rscale>  0 0.93583282E+03</rscale>
<asrwt>0</asrwt>
<pdfrwt beam="1">  1        2 0.12319082E+00 0.93583282E+03</pdfrwt>
<pdfrwt beam="2">  1       -2 0.36271218E-01 0.93583282E+03</pdfrwt>
<totfact> 0.24618086E+02</totfact>
</mgrwt>
</event>
<event>
 4    1  0.2209668E-005  0.8865105E+03  0.7818608E-02  0.9442603E-01
         -2   -1    0    0    0  501 -0.00000000000E+00  0.00000000000E+00  0.89721047729E+02  0.89721047765E+02  0.25500000000E-02 0. -1.
          2   -1    0    0  501    0  0.00000000000E+00 -0.00000000000E+00 -0.21898454565E+04  0.21898454565E+04  0.25500000000E-02 0.  1.
    5000001    1    1    2    0    0 -0.18114012908E+03 -0.15733496786E+03 -0.22254835030E+03  0.37740933573E+03  0.18800000000E+03 0.  0.
   -5000001    1    1    2    0    0  0.18114012908E+03  0.15733496786E+03 -0.18775760584E+04  0.19021571685E+04  0.18800000000E+03 0.  0.
<mgrwt>
<rscale>  0 0.88651053E+03</rscale>
<asrwt>0</asrwt>
<pdfrwt beam="1">  1        2 0.31283503E+00 0.88651053E+03</pdfrwt>
<pdfrwt beam="2">  1       -2 0.12817294E-01 0.88651053E+03</pdfrwt>
<totfact> 0.29613632E+02</totfact>
</mgrwt>
</event>
<event>
 4    1  0.2209668E-005  0.3994344E+03  0.7818608E-02  0.1043976E+00
          2   -1    0    0  501    0  0.00000000000E+00  0.00000000000E+00  0.23729477163E+04  0.23729477163E+04  0.25500000000E-02 0.  1.
         -2   -1    0    0    0  501 -0.00000000000E+00 -0.00000000000E+00 -0.16809037264E+02  0.16809037457E+02  0.25500000000E-02 0. -1.
    5000001    1    1    2    0    0  0.30739402286E+02 -0.59601151365E+02  0.11375982267E+04  0.11549765943E+04  0.18800000000E+03 0.  0.
   -5000001    1    1    2    0    0 -0.30739402286E+02  0.59601151365E+02  0.12185404523E+04  0.12347801594E+04  0.18800000000E+03 0.  0.
<mgrwt>
<rscale>  0 0.39943443E+03</rscale>
<asrwt>0</asrwt>
<pdfrwt beam="1">  1        2 0.33899264E+00 0.39943443E+03</pdfrwt>
<pdfrwt beam="2">  1       -2 0.24012903E-02 0.39943443E+03</pdfrwt>
<totfact> 0.34026652E+03</totfact>
</mgrwt>
</event>
<event>
 4    1  0.2209668E-005  0.3884324E+03  0.7818608E-02  0.1047860E+00
         -2   -1    0    0    0  501 -0.00000000000E+00  0.00000000000E+00  0.12041808571E+02  0.12041808841E+02  0.25500000000E-02 0. -1.
          2   -1    0    0  501    0  0.00000000000E+00 -0.00000000000E+00 -0.31324136391E+04  0.31324136391E+04  0.25500000000E-02 0.  1.
    5000001    1    1    2    0    0  0.41823115270E+01 -0.40266878447E+02 -0.17799554519E+04  0.17903140294E+04  0.18800000000E+03 0.  0.
   -5000001    1    1    2    0    0 -0.41823115270E+01  0.40266878447E+02 -0.13404163786E+04  0.13541414185E+04  0.18800000000E+03 0.  0.
<mgrwt>
<rscale>  0 0.38843237E+03</rscale>
<asrwt>0</asrwt>
<pdfrwt beam="1">  1        2 0.44748714E+00 0.38843237E+03</pdfrwt>
<pdfrwt beam="2">  1       -2 0.17202604E-02 0.38843237E+03</pdfrwt>
<totfact> 0.22491753E+03</totfact>
</mgrwt>
</event>
<event>
 4    1  0.2209668E-005  0.6139631E+03  0.7818608E-02  0.9876853E-01
         -2   -1    0    0    0  501 -0.00000000000E+00  0.00000000000E+00  0.30272486561E+02  0.30272486668E+02  0.25500000000E-02 0. -1.
          2   -1    0    0  501    0  0.00000000000E+00 -0.00000000000E+00 -0.31129811305E+04  0.31129811305E+04  0.25500000000E-02 0.  1.
    5000001    1    1    2    0    0  0.22878934418E+03  0.46662347395E+02 -0.18798587431E+04  0.19036109983E+04  0.18800000000E+03 0.  0.
   -5000001    1    1    2    0    0 -0.22878934418E+03 -0.46662347395E+02 -0.12028499008E+04  0.12396426189E+04  0.18800000000E+03 0.  0.
<mgrwt>
<rscale>  0 0.61396312E+03</rscale>
<asrwt>0</asrwt>
<pdfrwt beam="1">  1        2 0.44471138E+00 0.61396312E+03</pdfrwt>
<pdfrwt beam="2">  1       -2 0.43246429E-02 0.61396312E+03</pdfrwt>
<totfact> 0.56091303E+02</totfact>
</mgrwt>
</event>
<event>
 4    1  0.2209668E-005  0.4222445E+03  0.7818608E-02  0.1036338E+00
         -2   -1    0    0    0  501 -0.00000000000E+00  0.00000000000E+00  0.45815751005E+02  0.45815751076E+02  0.25500000000E-02 0. -1.
          2   -1    0    0  501    0  0.00000000000E+00 -0.00000000000E+00 -0.97286639516E+03  0.97286639516E+03  0.25500000000E-02 0.  1.
    5000001    1    1    2    0    0  0.28939776246E+02  0.54620651273E+02 -0.28611449554E+03  0.34788853208E+03  0.18800000000E+03 0.  0.
   -5000001    1    1    2    0    0 -0.28939776246E+02 -0.54620651273E+02 -0.64093614862E+03  0.67079361416E+03  0.18800000000E+03 0.  0.
<mgrwt>
<rscale>  0 0.42224450E+03</rscale>
<asrwt>0</asrwt>
<pdfrwt beam="1">  1        2 0.13898090E+00 0.42224450E+03</pdfrwt>
<pdfrwt beam="2">  1       -2 0.65451079E-02 0.42224450E+03</pdfrwt>
<totfact> 0.39337984E+03</totfact>
</mgrwt>
</event>
<event>
 4    1  0.2209668E-005  0.4387243E+03  0.7818608E-02  0.1031139E+00
          2   -1    0    0  501    0  0.00000000000E+00  0.00000000000E+00  0.15961710028E+04  0.15961710028E+04  0.25500000000E-02 0.  1.
         -2   -1    0    0    0  501 -0.00000000000E+00 -0.00000000000E+00 -0.30146990132E+02  0.30146990240E+02  0.25500000000E-02 0. -1.
    5000001    1    1    2    0    0 -0.18399632804E+01 -0.55609442495E+02  0.11477243604E+04  0.11643500346E+04  0.18800000000E+03 0.  0.
   -5000001    1    1    2    0    0  0.18399632804E+01  0.55609442495E+02  0.41829965222E+03  0.46196795842E+03  0.18800000000E+03 0.  0.
<mgrwt>
<rscale>  0 0.43872429E+03</rscale>
<asrwt>0</asrwt>
<pdfrwt beam="1">  1        2 0.22802450E+00 0.43872429E+03</pdfrwt>
<pdfrwt beam="2">  1       -2 0.43067116E-02 0.43872429E+03</pdfrwt>
<totfact> 0.34308390E+03</totfact>
</mgrwt>
</event>
<event>
 4    1  0.2209668E-005  0.6782594E+03  0.7818608E-02  0.9755151E-01
          2   -1    0    0  501    0  0.00000000000E+00  0.00000000000E+00  0.13927052515E+04  0.13927052515E+04  0.25500000000E-02 0.  1.
         -2   -1    0    0    0  501 -0.00000000000E+00 -0.00000000000E+00 -0.82579544766E+02  0.82579544805E+02  0.25500000000E-02 0. -1.
    5000001    1    1    2    0    0 -0.15135508424E+03 -0.21902105684E+03  0.45117796692E+03  0.55658255695E+03  0.18800000000E+03 0.  0.
   -5000001    1    1    2    0    0  0.15135508424E+03  0.21902105684E+03  0.85894773978E+03  0.91870223932E+03  0.18800000000E+03 0.  0.
<mgrwt>
<rscale>  0 0.67825944E+03</rscale>
<asrwt>0</asrwt>
<pdfrwt beam="1">  1        2 0.19895789E+00 0.67825944E+03</pdfrwt>
<pdfrwt beam="2">  1       -2 0.11797078E-01 0.67825944E+03</pdfrwt>
<totfact> 0.88312526E+02</totfact>
</mgrwt>
</event>
<event>
 4    1  0.2209668E-005  0.5344822E+03  0.7818608E-02  0.1005151E+00
          2   -1    0    0  501    0  0.00000000000E+00  0.00000000000E+00  0.11744240616E+04  0.11744240616E+04  0.25500000000E-02 0.  1.
         -2   -1    0    0    0  501 -0.00000000000E+00 -0.00000000000E+00 -0.60810908786E+02  0.60810908840E+02  0.25500000000E-02 0. -1.
    5000001    1    1    2    0    0 -0.55283764940E+02 -0.17372297456E+03  0.67992113087E+03  0.72861012260E+03  0.18800000000E+03 0.  0.
   -5000001    1    1    2    0    0  0.55283764940E+02  0.17372297456E+03  0.43369202197E+03  0.50662484786E+03  0.18800000000E+03 0.  0.
<mgrwt>
<rscale>  0 0.53448216E+03</rscale>
<asrwt>0</asrwt>
<pdfrwt beam="1">  1        2 0.16777487E+00 0.53448216E+03</pdfrwt>
<pdfrwt beam="2">  1       -2 0.86872724E-02 0.53448216E+03</pdfrwt>
<totfact> 0.19184276E+03</totfact>
</mgrwt>
</event>
<event>
 4    1  0.2209668E-005  0.4766757E+03  0.7818608E-02  0.1020053E+00
          2   -1    0    0  501    0  0.00000000000E+00  0.00000000000E+00  0.19182103095E+04  0.19182103095E+04  0.25500000000E-02 0.  1.
         -2   -1    0    0    0  501 -0.00000000000E+00 -0.00000000000E+00 -0.29613508660E+02  0.29613508770E+02  0.25500000000E-02 0. -1.
    5000001    1    1    2    0    0  0.12258724712E+03 -0.26524190535E+02  0.63498744792E+03  0.67400610150E+03  0.18800000000E+03 0.  0.
   -5000001    1    1    2    0    0 -0.12258724712E+03  0.26524190535E+02  0.12536093530E+04  0.12738177168E+04  0.18800000000E+03 0.  0.
<mgrwt>
<rscale>  0 0.47667573E+03</rscale>
<asrwt>0</asrwt>
<pdfrwt beam="1">  1        2 0.27402998E+00 0.47667573E+03</pdfrwt>
<pdfrwt beam="2">  1       -2 0.42305022E-02 0.47667573E+03</pdfrwt>
<totfact> 0.24280030E+03</totfact>
</mgrwt>
</event>
<event>
 4    1  0.2209668E-005  0.8672515E+03  0.7818608E-02  0.9467471E-01
          2   -1    0    0  501    0  0.00000000000E+00  0.00000000000E+00  0.68542613159E+03  0.68542613159E+03  0.25500000000E-02 0.  1.
         -2   -1    0    0    0  501 -0.00000000000E+00 -0.00000000000E+00 -0.27432759841E+03  0.27432759842E+03  0.25500000000E-02 0. -1.
    5000001    1    1    2    0    0  0.11019401040E+03 -0.37447937418E+03  0.18607130562E+03  0.47153372349E+03  0.18800000000E+03 0.  0.
   -5000001    1    1    2    0    0 -0.11019401040E+03  0.37447937418E+03  0.22502722756E+03  0.48822000652E+03  0.18800000000E+03 0.  0.
<mgrwt>
<rscale>  0 0.86725153E+03</rscale>
<asrwt>0</asrwt>
<pdfrwt beam="1">  1        2 0.97918016E-01 0.86725153E+03</pdfrwt>
<pdfrwt beam="2">  1       -2 0.39189658E-01 0.86725153E+03</pdfrwt>
<totfact> 0.28506812E+02</totfact>
</mgrwt>
</event>
<event>
 4    1  0.2209668E-005  0.6017225E+03  0.7818608E-02  0.9901839E-01
         -2   -1    0    0    0  501 -0.00000000000E+00  0.00000000000E+00  0.10107676309E+03  0.10107676312E+03  0.25500000000E-02 0. -1.
          2   -1    0    0  501    0  0.00000000000E+00 -0.00000000000E+00 -0.89553226429E+03  0.89553226430E+03  0.25500000000E-02 0.  1.
    5000001    1    1    2    0    0  0.17608136120E+03 -0.15368096872E+03 -0.35834912608E+03  0.46731208210E+03  0.18800000000E+03 0.  0.
   -5000001    1    1    2    0    0 -0.17608136120E+03  0.15368096872E+03 -0.43610637512E+03  0.52929694532E+03  0.18800000000E+03 0.  0.
<mgrwt>
<rscale>  0 0.60172254E+03</rscale>
<asrwt>0</asrwt>
<pdfrwt beam="1">  1        2 0.12793318E+00 0.60172254E+03</pdfrwt>
<pdfrwt beam="2">  1       -2 0.14439538E-01 0.60172254E+03</pdfrwt>
<totfact> 0.12272380E+03</totfact>
</mgrwt>
</event>
<event>
 4    1  0.2209668E-005  0.7677625E+03  0.7818608E-02  0.9607889E-01
          2   -1    0    0  501    0  0.00000000000E+00  0.00000000000E+00  0.20198464131E+03  0.20198464133E+03  0.25500000000E-02 0.  1.
         -2   -1    0    0    0  501 -0.00000000000E+00 -0.00000000000E+00 -0.72958424886E+03  0.72958424887E+03  0.25500000000E-02 0. -1.
    5000001    1    1    2    0    0  0.17089068425E+03 -0.11379162642E+03 -0.58452218436E+03  0.64742748182E+03  0.18800000000E+03 0.  0.
   -5000001    1    1    2    0    0 -0.17089068425E+03  0.11379162642E+03  0.56922576807E+02  0.28414140838E+03  0.18800000000E+03 0.  0.
<mgrwt>
<rscale>  0 0.76776250E+03</rscale>
<asrwt>0</asrwt>
<pdfrwt beam="1">  1        2 0.28854949E-01 0.76776250E+03</pdfrwt>
<pdfrwt beam="2">  1       -2 0.10422632E+00 0.76776250E+03</pdfrwt>
<totfact> 0.14033495E+02</totfact>
</mgrwt>
</event>
<event>
 4    1  0.2209668E-005  0.4638521E+03  0.7818608E-02  0.1023670E+00
          2   -1    0    0  501    0  0.00000000000E+00  0.00000000000E+00  0.62753540941E+03  0.62753540942E+03  0.25500000000E-02 0.  1.
         -2   -1    0    0    0  501 -0.00000000000E+00 -0.00000000000E+00 -0.85715804811E+02  0.85715804849E+02  0.25500000000E-02 0. -1.
    5000001    1    1    2    0    0 -0.69473735591E+02  0.11373034185E+03  0.31114012465E+03  0.38718647673E+03  0.18800000000E+03 0.  0.
   -5000001    1    1    2    0    0  0.69473735591E+02 -0.11373034185E+03  0.23067947995E+03  0.32606473754E+03  0.18800000000E+03 0.  0.
<mgrwt>
<rscale>  0 0.46385214E+03</rscale>
<asrwt>0</asrwt>
<pdfrwt beam="1">  1        2 0.89647912E-01 0.46385214E+03</pdfrwt>
<pdfrwt beam="2">  1       -2 0.12245116E-01 0.46385214E+03</pdfrwt>
<totfact> 0.25150305E+03</totfact>
</mgrwt>
</event>
<event>
 4    1  0.2209668E-005  0.7766030E+03  0.7818608E-02  0.9594515E-01
         -2   -1    0    0    0  501 -0.00000000000E+00  0.00000000000E+00  0.67921271579E+02  0.67921271627E+02  0.25500000000E-02 0. -1.
          2   -1    0    0  501    0  0.00000000000E+00 -0.00000000000E+00 -0.22198944421E+04  0.22198944421E+04  0.25500000000E-02 0.  1.
    5000001    1    1    2    0    0 -0.28859801650E+03 -0.17289102668E+03 -0.12158461895E+04  0.12754630840E+04  0.18800000000E+03 0.  0.
   -5000001    1    1    2    0    0  0.28859801650E+03  0.17289102668E+03 -0.93612698102E+03  0.10123526297E+04  0.18800000000E+03 0.  0.
<mgrwt>
<rscale>  0 0.77660300E+03</rscale>
<asrwt>0</asrwt>
<pdfrwt beam="1">  1        2 0.31712773E+00 0.77660300E+03</pdfrwt>
<pdfrwt beam="2">  1       -2 0.97030402E-02 0.77660300E+03</pdfrwt>
<totfact> 0.45556470E+02</totfact>
</mgrwt>
</event>
<event>
 4    1  0.2209668E-005  0.4319762E+03  0.7818608E-02  0.1033238E+00
         -2   -1    0    0    0  501 -0.00000000000E+00  0.00000000000E+00  0.47799775790E+02  0.47799775858E+02  0.25500000000E-02 0. -1.
          2   -1    0    0  501    0  0.00000000000E+00 -0.00000000000E+00 -0.97596375624E+03  0.97596375624E+03  0.25500000000E-02 0.  1.
    5000001    1    1    2    0    0  0.77703863708E+02  0.57785679109E+01 -0.63556524747E+03  0.66735183080E+03  0.18800000000E+03 0.  0.
   -5000001    1    1    2    0    0 -0.77703863708E+02 -0.57785679109E+01 -0.29259873298E+03  0.35641170130E+03  0.18800000000E+03 0.  0.
<mgrwt>
<rscale>  0 0.43197615E+03</rscale>
<asrwt>0</asrwt>
<pdfrwt beam="1">  1        2 0.13942338E+00 0.43197615E+03</pdfrwt>
<pdfrwt beam="2">  1       -2 0.68285400E-02 0.43197615E+03</pdfrwt>
<totfact> 0.36663620E+03</totfact>
</mgrwt>
</event>
<event>
 4    1  0.2209668E-005  0.4841422E+03  0.7818608E-02  0.1018003E+00
          2   -1    0    0  501    0  0.00000000000E+00  0.00000000000E+00  0.86103928753E+03  0.86103928754E+03  0.25500000000E-02 0.  1.
         -2   -1    0    0    0  501 -0.00000000000E+00 -0.00000000000E+00 -0.68055442552E+02  0.68055442600E+02  0.25500000000E-02 0. -1.
    5000001    1    1    2    0    0 -0.14130404886E+03  0.53438508250E+02  0.35660969624E+03  0.43050782088E+03  0.18800000000E+03 0.  0.
   -5000001    1    1    2    0    0  0.14130404886E+03 -0.53438508250E+02  0.43637414874E+03  0.49858690925E+03  0.18800000000E+03 0.  0.
<mgrwt>
<rscale>  0 0.48414217E+03</rscale>
<asrwt>0</asrwt>
<pdfrwt beam="1">  1        2 0.12300562E+00 0.48414217E+03</pdfrwt>
<pdfrwt beam="2">  1       -2 0.97222058E-02 0.48414217E+03</pdfrwt>
<totfact> 0.24761874E+03</totfact>
</mgrwt>
</event>
<event>
 4    1  0.2209668E-005  0.4548050E+03  0.7818608E-02  0.1026299E+00
         -2   -1    0    0    0  501 -0.00000000000E+00  0.00000000000E+00  0.33273320345E+03  0.33273320346E+03  0.25500000000E-02 0. -1.
          2   -1    0    0  501    0  0.00000000000E+00 -0.00000000000E+00 -0.15541552486E+03  0.15541552488E+03  0.25500000000E-02 0.  1.
    5000001    1    1    2    0    0 -0.71200798048E+02  0.10626429594E+03  0.91342387892E+02  0.24504915029E+03  0.18800000000E+03 0.  0.
   -5000001    1    1    2    0    0  0.71200798048E+02 -0.10626429594E+03  0.85975290706E+02  0.24309957805E+03  0.18800000000E+03 0.  0.
<mgrwt>
<rscale>  0 0.45480504E+03</rscale>
<asrwt>0</asrwt>
<pdfrwt beam="1">  1        2 0.22202218E-01 0.45480504E+03</pdfrwt>
<pdfrwt beam="2">  1       -2 0.47533315E-01 0.45480504E+03</pdfrwt>
<totfact> 0.10551549E+03</totfact>
</mgrwt>
</event>
<event>
 4    1  0.2209668E-005  0.5350519E+03  0.7818608E-02  0.1005014E+00
         -2   -1    0    0    0  501 -0.00000000000E+00  0.00000000000E+00  0.18949195821E+02  0.18949195992E+02  0.25500000000E-02 0. -1.
          2   -1    0    0  501    0  0.00000000000E+00 -0.00000000000E+00 -0.37769488247E+04  0.37769488247E+04  0.25500000000E-02 0.  1.
    5000001    1    1    2    0    0  0.15802542268E+03 -0.10420566716E+03 -0.17379490722E+04  0.17583065242E+04  0.18800000000E+03 0.  0.
   -5000001    1    1    2    0    0 -0.15802542268E+03  0.10420566716E+03 -0.20200505567E+04  0.20375914966E+04  0.18800000000E+03 0.  0.
<mgrwt>
<rscale>  0 0.53505193E+03</rscale>
<asrwt>0</asrwt>
<pdfrwt beam="1">  1        2 0.53956364E+00 0.53505193E+03</pdfrwt>
<pdfrwt beam="2">  1       -2 0.27070304E-02 0.53505193E+03</pdfrwt>
<totfact> 0.47083019E+02</totfact>
</mgrwt>
</event>
<event>
 4    1  0.2209668E-005  0.8188793E+03  0.7818608E-02  0.9533085E-01
          2   -1    0    0  501    0  0.00000000000E+00  0.00000000000E+00  0.76891424860E+03  0.76891424860E+03  0.25500000000E-02 0.  1.
         -2   -1    0    0    0  501 -0.00000000000E+00 -0.00000000000E+00 -0.21802279285E+03  0.21802279287E+03  0.25500000000E-02 0. -1.
    5000001    1    1    2    0    0 -0.31001191614E+03 -0.18567922950E+03  0.32532338923E+03  0.52130938223E+03  0.18800000000E+03 0.  0.
   -5000001    1    1    2    0    0  0.31001191614E+03  0.18567922950E+03  0.22556806652E+03  0.46562765924E+03  0.18800000000E+03 0.  0.
<mgrwt>
<rscale>  0 0.81887931E+03</rscale>
<asrwt>0</asrwt>
<pdfrwt beam="1">  1        2 0.10984490E+00 0.81887931E+03</pdfrwt>
<pdfrwt beam="2">  1       -2 0.31146113E-01 0.81887931E+03</pdfrwt>
<totfact> 0.38321745E+02</totfact>
</mgrwt>
</event>
<event>
 4    1  0.2209668E-005  0.4737896E+03  0.7818608E-02  0.1020856E+00
          2   -1    0    0  501    0  0.00000000000E+00  0.00000000000E+00  0.49611917132E+03  0.49611917133E+03  0.25500000000E-02 0.  1.
         -2   -1    0    0    0  501 -0.00000000000E+00 -0.00000000000E+00 -0.11311625705E+03  0.11311625708E+03  0.25500000000E-02 0. -1.
    5000001    1    1    2    0    0 -0.75186684095E+01  0.14368577800E+03  0.20248879416E+03  0.31152503099E+03  0.18800000000E+03 0.  0.
   -5000001    1    1    2    0    0  0.75186684095E+01 -0.14368577800E+03  0.18051412011E+03  0.29771039742E+03  0.18800000000E+03 0.  0.
<mgrwt>
<rscale>  0 0.47378959E+03</rscale>
<asrwt>0</asrwt>
<pdfrwt beam="1">  1        2 0.70874168E-01 0.47378959E+03</pdfrwt>
<pdfrwt beam="2">  1       -2 0.16159465E-01 0.47378959E+03</pdfrwt>
<totfact> 0.20781845E+03</totfact>
</mgrwt>
</event>
<event>
 4    1  0.2209668E-005  0.5444810E+03  0.7818608E-02  0.1002779E+00
         -2   -1    0    0    0  501 -0.00000000000E+00  0.00000000000E+00  0.28982420718E+03  0.28982420719E+03  0.25500000000E-02 0. -1.
          2   -1    0    0  501    0  0.00000000000E+00 -0.00000000000E+00 -0.25572360297E+03  0.25572360298E+03  0.25500000000E-02 0.  1.
    5000001    1    1    2    0    0 -0.15243558245E+03 -0.12323522310E+03 -0.16239048210E+01  0.27160663482E+03  0.18800000000E+03 0.  0.
   -5000001    1    1    2    0    0  0.15243558245E+03  0.12323522310E+03  0.35724509032E+02  0.27394117536E+03  0.18800000000E+03 0.  0.
<mgrwt>
<rscale>  0 0.54448100E+03</rscale>
<asrwt>0</asrwt>
<pdfrwt beam="1">  1        2 0.36531943E-01 0.54448100E+03</pdfrwt>
<pdfrwt beam="2">  1       -2 0.41403458E-01 0.54448100E+03</pdfrwt>
<totfact> 0.79125150E+02</totfact>
</mgrwt>
</event>
<event>
 4    1  0.2209668E-005  0.1702480E+04  0.7818608E-02  0.8759951E-01
         -2   -1    0    0    0  501 -0.00000000000E+00  0.00000000000E+00  0.65311716621E+03  0.65311716622E+03  0.25500000000E-02 0. -1.
          2   -1    0    0  501    0  0.00000000000E+00 -0.00000000000E+00 -0.11094630886E+04  0.11094630886E+04  0.25500000000E-02 0.  1.
    5000001    1    1    2    0    0  0.50842041286E+03  0.64958856277E+03 -0.13100466329E+03  0.85613248910E+03  0.18800000000E+03 0.  0.
   -5000001    1    1    2    0    0 -0.50842041286E+03 -0.64958856277E+03 -0.32534125909E+03  0.90644776571E+03  0.18800000000E+03 0.  0.
<mgrwt>
<rscale>  0 0.17024798E+04</rscale>
<asrwt>0</asrwt>
<pdfrwt beam="1">  1        2 0.15849473E+00 0.17024798E+04</pdfrwt>
<pdfrwt beam="2">  1       -2 0.93302453E-01 0.17024798E+04</pdfrwt>
<totfact> 0.22369987E+01</totfact>
</mgrwt>
</event>
<event>
 4    1  0.2209668E-005  0.5884889E+03  0.7818608E-02  0.9929580E-01
          2   -1    0    0  501    0  0.00000000000E+00  0.00000000000E+00  0.86116072438E+02  0.86116072476E+02  0.25500000000E-02 0.  1.
         -2   -1    0    0    0  501 -0.00000000000E+00 -0.00000000000E+00 -0.10053848775E+04  0.10053848775E+04  0.25500000000E-02 0. -1.
    5000001    1    1    2    0    0 -0.79840074335E+02  0.14014534541E+03 -0.16508109309E+03  0.29767586837E+03  0.18800000000E+03 0.  0.
   -5000001    1    1    2    0    0  0.79840074335E+02 -0.14014534541E+03 -0.75418771195E+03  0.79382508159E+03  0.18800000000E+03 0.  0.
<mgrwt>
<rscale>  0 0.58848890E+03</rscale>
<asrwt>0</asrwt>
<pdfrwt beam="1">  1        2 0.12302297E-01 0.58848890E+03</pdfrwt>
<pdfrwt beam="2">  1       -2 0.14362640E+00 0.58848890E+03</pdfrwt>
<totfact> 0.17468822E+02</totfact>
</mgrwt>
</event>
<event>
 4    1  0.2209668E-005  0.7983211E+03  0.7818608E-02  0.9562450E-01
         -2   -1    0    0    0  501 -0.00000000000E+00  0.00000000000E+00  0.83283625120E+03  0.83283625120E+03  0.25500000000E-02 0. -1.
          2   -1    0    0  501    0  0.00000000000E+00 -0.00000000000E+00 -0.19130910990E+03  0.19130910992E+03  0.25500000000E-02 0.  1.
    5000001    1    1    2    0    0 -0.26530535573E+03 -0.10779415806E+03  0.57919488969E+02  0.34742650949E+03  0.18800000000E+03 0.  0.
   -5000001    1    1    2    0    0  0.26530535573E+03  0.10779415806E+03  0.58360765233E+03  0.67671885163E+03  0.18800000000E+03 0.  0.
<mgrwt>
<rscale>  0 0.79832114E+03</rscale>
<asrwt>0</asrwt>
<pdfrwt beam="1">  1        2 0.27329873E-01 0.79832114E+03</pdfrwt>
<pdfrwt beam="2">  1       -2 0.11897661E+00 0.79832114E+03</pdfrwt>
<totfact> 0.10812889E+02</totfact>
</mgrwt>
</event>
<event>
 4    1  0.2209668E-005  0.5324432E+03  0.7818608E-02  0.1005641E+00
         -2   -1    0    0    0  501 -0.00000000000E+00  0.00000000000E+00  0.28752698203E+03  0.28752698205E+03  0.25500000000E-02 0. -1.
          2   -1    0    0  501    0  0.00000000000E+00 -0.00000000000E+00 -0.24649490156E+03  0.24649490157E+03  0.25500000000E-02 0.  1.
    5000001    1    1    2    0    0  0.40870712753E+02 -0.18360553988E+03  0.82927930967E+01  0.26607175696E+03  0.18800000000E+03 0.  0.
   -5000001    1    1    2    0    0 -0.40870712753E+02  0.18360553988E+03  0.32739287378E+02  0.26795012665E+03  0.18800000000E+03 0.  0.
<mgrwt>
<rscale>  0 0.53244318E+03</rscale>
<asrwt>0</asrwt>
<pdfrwt beam="1">  1        2 0.35213558E-01 0.53244318E+03</pdfrwt>
<pdfrwt beam="2">  1       -2 0.41075283E-01 0.53244318E+03</pdfrwt>
<totfact> 0.83707547E+02</totfact>
</mgrwt>
</event>
<event>
 4    1  0.2209668E-005  0.3930784E+03  0.7818608E-02  0.1046203E+00
          2   -1    0    0  501    0  0.00000000000E+00  0.00000000000E+00  0.27353360370E+04  0.27353360370E+04  0.25500000000E-02 0. -1.
         -2   -1    0    0    0  501 -0.00000000000E+00 -0.00000000000E+00 -0.14121725391E+02  0.14121725621E+02  0.25500000000E-02 0.  1.
    5000001    1    1    2    0    0  0.35294440600E+02  0.40189535930E+02  0.15044270828E+04  0.15170714366E+04  0.18800000000E+03 0.  0.
   -5000001    1    1    2    0    0 -0.35294440600E+02 -0.40189535930E+02  0.12167872289E+04  0.12323863261E+04  0.18800000000E+03 0.  0.
<mgrwt>
<rscale>  0 0.39307844E+03</rscale>
<asrwt>0</asrwt>
<pdfrwt beam="1">  1        2 0.39076210E+00 0.39307844E+03</pdfrwt>
<pdfrwt beam="2">  1       -2 0.20173903E-02 0.39307844E+03</pdfrwt>
<totfact> 0.28866382E+03</totfact>
</mgrwt>
</event>
<event>
 4    1  0.2209668E-005  0.9101721E+03  0.7818608E-02  0.9412954E-01
          2   -1    0    0  501    0  0.00000000000E+00  0.00000000000E+00  0.81700869203E+03  0.81700869204E+03  0.25500000000E-02 0.  1.
         -2   -1    0    0    0  501 -0.00000000000E+00 -0.00000000000E+00 -0.25348973371E+03  0.25348973372E+03  0.25500000000E-02 0. -1.
    5000001    1    1    2    0    0 -0.16100677034E+03 -0.34066451524E+03  0.78779717685E+02  0.42839903823E+03  0.18800000000E+03 0.  0.
   -5000001    1    1    2    0    0  0.16100677034E+03  0.34066451524E+03  0.48473924064E+03  0.64209938752E+03  0.18800000000E+03 0.  0.
<mgrwt>
<rscale>  0 0.91017211E+03</rscale>
<asrwt>0</asrwt>
<pdfrwt beam="1">  1        2 0.11671553E+00 0.91017211E+03</pdfrwt>
<pdfrwt beam="2">  1       -2 0.36212819E-01 0.91017211E+03</pdfrwt>
<totfact> 0.26545599E+02</totfact>
</mgrwt>
</event>
<event>
 4    1  0.2209668E-005  0.4512464E+03  0.7818608E-02  0.1027351E+00
         -2   -1    0    0    0  501 -0.00000000000E+00  0.00000000000E+00  0.24585663841E+02  0.24585663974E+02  0.25500000000E-02 0. -1.
          2   -1    0    0  501    0  0.00000000000E+00 -0.00000000000E+00 -0.20705490515E+04  0.20705490515E+04  0.25500000000E-02 0.  1.
    5000001    1    1    2    0    0 -0.24325223784E+02 -0.11621869231E+03 -0.84537137416E+03  0.87412542647E+03  0.18800000000E+03 0.  0.
   -5000001    1    1    2    0    0  0.24325223784E+02  0.11621869231E+03 -0.12005920135E+04  0.12210092890E+04  0.18800000000E+03 0.  0.
<mgrwt>
<rscale>  0 0.45124638E+03</rscale>
<asrwt>0</asrwt>
<pdfrwt beam="1">  1        2 0.29579261E+00 0.45124638E+03</pdfrwt>
<pdfrwt beam="2">  1       -2 0.35122390E-02 0.45124638E+03</pdfrwt>
<totfact> 0.27102937E+03</totfact>
</mgrwt>
</event>
<event>
 4    1  0.2209668E-005  0.4687006E+03  0.7818608E-02  0.1022288E+00
          2   -1    0    0  501    0  0.00000000000E+00  0.00000000000E+00  0.39667783554E+03  0.39667783555E+03  0.25500000000E-02 0.  1.
         -2   -1    0    0    0  501 -0.00000000000E+00 -0.00000000000E+00 -0.13845003497E+03  0.13845003499E+03  0.25500000000E-02 0. -1.
    5000001    1    1    2    0    0  0.91563552566E+02  0.89967902037E+02  0.19266154526E+03  0.29822907065E+03  0.18800000000E+03 0.  0.
   -5000001    1    1    2    0    0 -0.91563552566E+02 -0.89967902037E+02  0.65566255310E+02  0.23689879989E+03  0.18800000000E+03 0.  0.
<mgrwt>
<rscale>  0 0.46870059E+03</rscale>
<asrwt>0</asrwt>
<pdfrwt beam="1">  1        2 0.56668262E-01 0.46870059E+03</pdfrwt>
<pdfrwt beam="2">  1       -2 0.19778577E-01 0.46870059E+03</pdfrwt>
<totfact> 0.18873431E+03</totfact>
</mgrwt>
</event>
<event>
 4    1  0.2209668E-005  0.6974961E+03  0.7818608E-02  0.9721524E-01
          2   -1    0    0  501    0  0.00000000000E+00  0.00000000000E+00  0.11687237001E+04  0.11687237001E+04  0.25500000000E-02 0.  1.
         -2   -1    0    0    0  501 -0.00000000000E+00 -0.00000000000E+00 -0.10406667224E+03  0.10406667227E+03  0.25500000000E-02 0. -1.
    5000001    1    1    2    0    0 -0.26277815058E+03 -0.35038031041E+02  0.30149920835E+03  0.44331229701E+03  0.18800000000E+03 0.  0.
   -5000001    1    1    2    0    0  0.26277815058E+03  0.35038031041E+02  0.76315781955E+03  0.82947807541E+03  0.18800000000E+03 0.  0.
<mgrwt>
<rscale>  0 0.69749605E+03</rscale>
<asrwt>0</asrwt>
<pdfrwt beam="1">  1        2 0.16696052E+00 0.69749605E+03</pdfrwt>
<pdfrwt beam="2">  1       -2 0.14866669E-01 0.69749605E+03</pdfrwt>
<totfact> 0.79713337E+02</totfact>
</mgrwt>
</event>
<event>
 4    1  0.2209668E-005  0.4499519E+03  0.7818608E-02  0.1027736E+00
         -2   -1    0    0    0  501 -0.00000000000E+00  0.00000000000E+00  0.61588102788E+02  0.61588102841E+02  0.25500000000E-02 0. -1.
          2   -1    0    0  501    0  0.00000000000E+00 -0.00000000000E+00 -0.82181739421E+03  0.82181739421E+03  0.25500000000E-02 0.  1.
    5000001    1    1    2    0    0  0.13650468308E+02  0.10620811923E+03 -0.25902815716E+03  0.33749975715E+03  0.18800000000E+03 0.  0.
   -5000001    1    1    2    0    0 -0.13650468308E+02 -0.10620811923E+03 -0.50120113425E+03  0.54590573990E+03  0.18800000000E+03 0.  0.
<mgrwt>
<rscale>  0 0.44995188E+03</rscale>
<asrwt>0</asrwt>
<pdfrwt beam="1">  1        2 0.11740248E+00 0.44995188E+03</pdfrwt>
<pdfrwt beam="2">  1       -2 0.87983009E-02 0.44995188E+03</pdfrwt>
<totfact> 0.30843840E+03</totfact>
</mgrwt>
</event>
<event>
 4    1  0.2209668E-005  0.6054808E+03  0.7818608E-02  0.9894100E-01
          2   -1    0    0  501    0  0.00000000000E+00  0.00000000000E+00  0.63054045850E+03  0.63054045850E+03  0.25500000000E-02 0.  1.
         -2   -1    0    0    0  501 -0.00000000000E+00 -0.00000000000E+00 -0.14535425292E+03  0.14535425295E+03  0.25500000000E-02 0. -1.
    5000001    1    1    2    0    0  0.20727806469E+03 -0.50860464521E+01  0.39047554838E+03  0.48042191650E+03  0.18800000000E+03 0.  0.
   -5000001    1    1    2    0    0 -0.20727806469E+03  0.50860464521E+01  0.94710657194E+02  0.29547279495E+03  0.18800000000E+03 0.  0.
<mgrwt>
<rscale>  0 0.60548076E+03</rscale>
<asrwt>0</asrwt>
<pdfrwt beam="1">  1        2 0.90077207E-01 0.60548076E+03</pdfrwt>
<pdfrwt beam="2">  1       -2 0.20764893E-01 0.60548076E+03</pdfrwt>
<totfact> 0.10233879E+03</totfact>
</mgrwt>
</event>
<event>
 4    1  0.2209668E-005  0.4308972E+03  0.7818608E-02  0.1033577E+00
         -2   -1    0    0    0  501 -0.00000000000E+00  0.00000000000E+00  0.52030774690E+02  0.52030774753E+02  0.25500000000E-02 0. -1.
          2   -1    0    0  501    0  0.00000000000E+00 -0.00000000000E+00 -0.89212780838E+03  0.89212780838E+03  0.25500000000E-02 0.  1.
    5000001    1    1    2    0    0 -0.63639640842E+02 -0.67327917607E+02 -0.52940949090E+03  0.56938691715E+03  0.18800000000E+03 0.  0.
   -5000001    1    1    2    0    0  0.63639640842E+02  0.67327917607E+02 -0.31068754280E+03  0.37477166598E+03  0.18800000000E+03 0.  0.
<mgrwt>
<rscale>  0 0.43089721E+03</rscale>
<asrwt>0</asrwt>
<pdfrwt beam="1">  1        2 0.12744682E+00 0.43089721E+03</pdfrwt>
<pdfrwt beam="2">  1       -2 0.74329684E-02 0.43089721E+03</pdfrwt>
<totfact> 0.36204913E+03</totfact>
</mgrwt>
</event>
<event>
 4    1  0.2209668E-005  0.6076327E+03  0.7818608E-02  0.9889696E-01
         -2   -1    0    0    0  501 -0.00000000000E+00  0.00000000000E+00  0.76235215172E+02  0.76235215215E+02  0.25500000000E-02 0. -1.
          2   -1    0    0  501    0  0.00000000000E+00 -0.00000000000E+00 -0.12107838874E+04  0.12107838874E+04  0.25500000000E-02 0.  1.
    5000001    1    1    2    0    0  0.17710563955E+03  0.12396284577E+03 -0.78147544775E+03  0.83233471040E+03  0.18800000000E+03 0.  0.
   -5000001    1    1    2    0    0 -0.17710563955E+03 -0.12396284577E+03 -0.35307322450E+03  0.45468439225E+03  0.18800000000E+03 0.  0.
<mgrwt>
<rscale>  0 0.60763269E+03</rscale>
<asrwt>0</asrwt>
<pdfrwt beam="1">  1        2 0.17296911E+00 0.60763269E+03</pdfrwt>
<pdfrwt beam="2">  1       -2 0.10890746E-01 0.60763269E+03</pdfrwt>
<totfact> 0.12683880E+03</totfact>
</mgrwt>
</event>
<event>
 4    1  0.2209668E-005  0.8593850E+03  0.7818608E-02  0.9477827E-01
          2   -1    0    0  501    0  0.00000000000E+00  0.00000000000E+00  0.30986573210E+04  0.30986573210E+04  0.25500000000E-02 0.  1.
         -2   -1    0    0    0  501 -0.00000000000E+00 -0.00000000000E+00 -0.59585693417E+02  0.59585693472E+02  0.25500000000E-02 0. -1.
    5000001    1    1    2    0    0 -0.32593672395E+03  0.13812871693E+03  0.95047535610E+03  0.10315336606E+04  0.18800000000E+03 0.  0.
   -5000001    1    1    2    0    0  0.32593672395E+03 -0.13812871693E+03  0.20885962715E+04  0.21267093539E+04  0.18800000000E+03 0.  0.
<mgrwt>
<rscale>  0 0.85938500E+03</rscale>
<asrwt>0</asrwt>
<pdfrwt beam="1">  1        2 0.44266531E+00 0.85938500E+03</pdfrwt>
<pdfrwt beam="2">  1       -2 0.85122422E-02 0.85938500E+03</pdfrwt>
<totfact> 0.19197936E+02</totfact>
</mgrwt>
</event>
<event>
 4    1  0.2209668E-005  0.6442854E+03  0.7818608E-02  0.9817562E-01
         -2   -1    0    0    0  501 -0.00000000000E+00  0.00000000000E+00  0.58470264904E+02  0.58470264960E+02  0.25500000000E-02 0. -1.
          2   -1    0    0  501    0  0.00000000000E+00 -0.00000000000E+00 -0.17748495910E+04  0.17748495910E+04  0.25500000000E-02 0.  1.
    5000001    1    1    2    0    0  0.14338182855E+03  0.21808158598E+03 -0.80776720639E+03  0.86945372885E+03  0.18800000000E+03 0.  0.
   -5000001    1    1    2    0    0 -0.14338182855E+03 -0.21808158598E+03 -0.90861211971E+03  0.96386612711E+03  0.18800000000E+03 0.  0.
<mgrwt>
<rscale>  0 0.64428542E+03</rscale>
<asrwt>0</asrwt>
<pdfrwt beam="1">  1        2 0.25354991E+00 0.64428542E+03</pdfrwt>
<pdfrwt beam="2">  1       -2 0.83528961E-02 0.64428542E+03</pdfrwt>
<totfact> 0.98210818E+02</totfact>
</mgrwt>
</event>
<event>
 4    1  0.2209668E-005  0.1020733E+04  0.7818608E-02  0.9286093E-01
          2   -1    0    0  501    0  0.00000000000E+00  0.00000000000E+00  0.18680483891E+04  0.18680483891E+04  0.25500000000E-02 0.  1.
         -2   -1    0    0    0  501 -0.00000000000E+00 -0.00000000000E+00 -0.13943641804E+03  0.13943641806E+03  0.25500000000E-02 0. -1.
    5000001    1    1    2    0    0  0.18126365609E+03  0.22384081867E+03  0.16058589506E+04  0.16422813993E+04  0.18800000000E+03 0.  0.
   -5000001    1    1    2    0    0 -0.18126365609E+03 -0.22384081867E+03  0.12275302048E+03  0.36520340793E+03  0.18800000000E+03 0.  0.
<mgrwt>
<rscale>  0 0.10207330E+04</rscale>
<asrwt>0</asrwt>
<pdfrwt beam="1">  1        2 0.26686405E+00 0.10207330E+04</pdfrwt>
<pdfrwt beam="2">  1       -2 0.19919489E-01 0.10207330E+04</pdfrwt>
<totfact> 0.20150160E+02</totfact>
</mgrwt>
</event>
<event>
 4    1  0.2209668E-005  0.5232338E+03  0.7818608E-02  0.1007886E+00
          2   -1    0    0  501    0  0.00000000000E+00  0.00000000000E+00  0.42959228408E+02  0.42959228484E+02  0.25500000000E-02 0.  1.
         -2   -1    0    0    0  501 -0.00000000000E+00 -0.00000000000E+00 -0.15932175072E+04  0.15932175072E+04  0.25500000000E-02 0. -1.
    5000001    1    1    2    0    0  0.45200736089E+02  0.17622774972E+03 -0.77594781882E+03  0.81886405700E+03  0.18800000000E+03 0.  0.
   -5000001    1    1    2    0    0 -0.45200736089E+02 -0.17622774972E+03 -0.77431045992E+03  0.81731267864E+03  0.18800000000E+03 0.  0.
<mgrwt>
<rscale>  0 0.52323377E+03</rscale>
<asrwt>0</asrwt>
<pdfrwt beam="1">  1        2 0.61370336E-02 0.52323377E+03</pdfrwt>
<pdfrwt beam="2">  1       -2 0.22760246E+00 0.52323377E+03</pdfrwt>
<totfact> 0.11523861E+02</totfact>
</mgrwt>
</event>
<event>
 4    1  0.2209668E-005  0.5830984E+03  0.7818608E-02  0.9941106E-01
         -2   -1    0    0    0  501 -0.00000000000E+00  0.00000000000E+00  0.14096064697E+03  0.14096064699E+03  0.25500000000E-02 0. -1.
          2   -1    0    0  501    0  0.00000000000E+00 -0.00000000000E+00 -0.60301178224E+03  0.60301178225E+03  0.25500000000E-02 0.  1.
    5000001    1    1    2    0    0  0.16281719343E+03 -0.14961981641E+03 -0.19581911213E+03  0.35012091142E+03  0.18800000000E+03 0.  0.
   -5000001    1    1    2    0    0 -0.16281719343E+03  0.14961981641E+03 -0.26623202314E+03  0.39385151781E+03  0.18800000000E+03 0.  0.
<mgrwt>
<rscale>  0 0.58309838E+03</rscale>
<asrwt>0</asrwt>
<pdfrwt beam="1">  1        2 0.86144539E-01 0.58309838E+03</pdfrwt>
<pdfrwt beam="2">  1       -2 0.20137236E-01 0.58309838E+03</pdfrwt>
<totfact> 0.11386296E+03</totfact>
</mgrwt>
</event>
<event>
 4    1  0.2209668E-005  0.4270648E+03  0.7818608E-02  0.1034791E+00
          2   -1    0    0  501    0  0.00000000000E+00  0.00000000000E+00  0.52123269273E+03  0.52123269274E+03  0.25500000000E-02 0.  1.
         -2   -1    0    0    0  501 -0.00000000000E+00 -0.00000000000E+00 -0.87477418874E+02  0.87477418912E+02  0.25500000000E-02 0. -1.
    5000001    1    1    2    0    0  0.85884712676E+02  0.53429167516E+02  0.21031014075E+03  0.29967518268E+03  0.18800000000E+03 0.  0.
   -5000001    1    1    2    0    0 -0.85884712676E+02 -0.53429167516E+02  0.22344513311E+03  0.30903492897E+03  0.18800000000E+03 0.  0.
<mgrwt>
<rscale>  0 0.42706482E+03</rscale>
<asrwt>0</asrwt>
<pdfrwt beam="1">  1        2 0.74461816E-01 0.42706482E+03</pdfrwt>
<pdfrwt beam="2">  1       -2 0.12496774E-01 0.42706482E+03</pdfrwt>
<totfact> 0.30105859E+03</totfact>
</mgrwt>
</event>
<event>
 4    1  0.2209668E-005  0.5174603E+03  0.7818608E-02  0.1009319E+00
         -2   -1    0    0    0  501 -0.00000000000E+00  0.00000000000E+00  0.76445768193E+02  0.76445768235E+02  0.25500000000E-02 0. -1.
          2   -1    0    0  501    0  0.00000000000E+00 -0.00000000000E+00 -0.87567031013E+03  0.87567031013E+03  0.25500000000E-02 0.  1.
    5000001    1    1    2    0    0  0.52816038556E+00  0.17747512331E+03 -0.38125012707E+03  0.46064450256E+03  0.18800000000E+03 0.  0.
   -5000001    1    1    2    0    0 -0.52816038556E+00 -0.17747512331E+03 -0.41797441487E+03  0.49147157581E+03  0.18800000000E+03 0.  0.
<mgrwt>
<rscale>  0 0.51746030E+03</rscale>
<asrwt>0</asrwt>
<pdfrwt beam="1">  1        2 0.12509575E+00 0.51746030E+03</pdfrwt>
<pdfrwt beam="2">  1       -2 0.10920825E-01 0.51746030E+03</pdfrwt>
<totfact> 0.20068744E+03</totfact>
</mgrwt>
</event>
<event>
 4    1  0.2209668E-005  0.8704816E+03  0.7818608E-02  0.9463252E-01
         -2   -1    0    0    0  501 -0.00000000000E+00  0.00000000000E+00  0.23814099617E+03  0.23814099618E+03  0.25500000000E-02 0. -1.
          2   -1    0    0  501    0  0.00000000000E+00 -0.00000000000E+00 -0.79547221585E+03  0.79547221585E+03  0.25500000000E-02 0.  1.
    5000001    1    1    2    0    0  0.29414755759E+03 -0.15217754511E+03 -0.52889461803E+03  0.65173177600E+03  0.18800000000E+03 0.  0.
   -5000001    1    1    2    0    0 -0.29414755759E+03  0.15217754511E+03 -0.28436601646E+02  0.38188143603E+03  0.18800000000E+03 0.  0.
<mgrwt>
<rscale>  0 0.87048158E+03</rscale>
<asrwt>0</asrwt>
<pdfrwt beam="1">  1        2 0.11363889E+00 0.87048158E+03</pdfrwt>
<pdfrwt beam="2">  1       -2 0.34020143E-01 0.87048158E+03</pdfrwt>
<totfact> 0.31011174E+02</totfact>
</mgrwt>
</event>
<event>
 4    1  0.2209668E-005  0.4725789E+03  0.7818608E-02  0.1021195E+00
         -2   -1    0    0    0  501 -0.00000000000E+00  0.00000000000E+00  0.26089095972E+02  0.26089096096E+02  0.25500000000E-02 0. -1.
          2   -1    0    0  501    0  0.00000000000E+00 -0.00000000000E+00 -0.21400778525E+04  0.21400778525E+04  0.25500000000E-02 0.  1.
    5000001    1    1    2    0    0 -0.40233058171E+02  0.92645017317E+02 -0.59209404988E+03  0.62938157115E+03  0.18800000000E+03 0.  0.
   -5000001    1    1    2    0    0  0.40233058171E+02 -0.92645017317E+02 -0.15218947066E+04  0.15367853774E+04  0.18800000000E+03 0.  0.
<mgrwt>
<rscale>  0 0.47257887E+03</rscale>
<asrwt>0</asrwt>
<pdfrwt beam="1">  1        2 0.30572530E+00 0.47257887E+03</pdfrwt>
<pdfrwt beam="2">  1       -2 0.37270151E-02 0.47257887E+03</pdfrwt>
<totfact> 0.22847169E+03</totfact>
</mgrwt>
</event>
<event>
 4    1  0.2209668E-005  0.4673714E+03  0.7818608E-02  0.1022665E+00
          2   -1    0    0  501    0  0.00000000000E+00  0.00000000000E+00  0.53585952096E+03  0.53585952096E+03  0.25500000000E-02 0.  1.
         -2   -1    0    0    0  501 -0.00000000000E+00 -0.00000000000E+00 -0.10190919758E+03  0.10190919761E+03  0.25500000000E-02 0. -1.
    5000001    1    1    2    0    0  0.30896834009E+02  0.10665985654E+03  0.10334456112E+03  0.24156787382E+03  0.18800000000E+03 0.  0.
   -5000001    1    1    2    0    0 -0.30896834009E+02 -0.10665985654E+03  0.33060576225E+03  0.39620084475E+03  0.18800000000E+03 0.  0.
<mgrwt>
<rscale>  0 0.46737143E+03</rscale>
<asrwt>0</asrwt>
<pdfrwt beam="1">  1        2 0.76551359E-01 0.46737143E+03</pdfrwt>
<pdfrwt beam="2">  1       -2 0.14558457E-01 0.46737143E+03</pdfrwt>
<totfact> 0.22684317E+03</totfact>
</mgrwt>
</event>
<event>
 4    1  0.2209668E-005  0.4875224E+03  0.7818608E-02  0.1017088E+00
         -2   -1    0    0    0  501 -0.00000000000E+00  0.00000000000E+00  0.24068370137E+02  0.24068370272E+02  0.25500000000E-02 0. -1.
          2   -1    0    0  501    0  0.00000000000E+00 -0.00000000000E+00 -0.24687805885E+04  0.24687805886E+04  0.25500000000E-02 0.  1.
    5000001    1    1    2    0    0  0.13634150215E+03  0.61524697295E+02 -0.10114529434E+04  0.10395938391E+04  0.18800000000E+03 0.  0.
   -5000001    1    1    2    0    0 -0.13634150215E+03 -0.61524697295E+02 -0.14332592750E+04  0.14532551197E+04  0.18800000000E+03 0.  0.
<mgrwt>
<rscale>  0 0.48752241E+03</rscale>
<asrwt>0</asrwt>
<pdfrwt beam="1">  1        2 0.35268278E+00 0.48752241E+03</pdfrwt>
<pdfrwt beam="2">  1       -2 0.34383402E-02 0.48752241E+03</pdfrwt>
<totfact> 0.17640460E+03</totfact>
</mgrwt>
</event>
<event>
 4    1  0.2209668E-005  0.6167226E+03  0.7818608E-02  0.9871307E-01
         -2   -1    0    0    0  501 -0.00000000000E+00  0.00000000000E+00  0.13140149598E+03  0.13140149601E+03  0.25500000000E-02 0. -1.
          2   -1    0    0  501    0  0.00000000000E+00 -0.00000000000E+00 -0.72363479510E+03  0.72363479510E+03  0.25500000000E-02 0.  1.
    5000001    1    1    2    0    0 -0.97468858874E+01  0.24379146016E+03 -0.27586273468E+03  0.41348945116E+03  0.18800000000E+03 0.  0.
   -5000001    1    1    2    0    0  0.97468858874E+01 -0.24379146016E+03 -0.31637056444E+03  0.44154683996E+03  0.18800000000E+03 0.  0.
<mgrwt>
<rscale>  0 0.61672261E+03</rscale>
<asrwt>0</asrwt>
<pdfrwt beam="1">  1        2 0.10337640E+00 0.61672261E+03</pdfrwt>
<pdfrwt beam="2">  1       -2 0.18771643E-01 0.61672261E+03</pdfrwt>
<totfact> 0.10319647E+03</totfact>
</mgrwt>
</event>
<event>
 4    1  0.2209668E-005  0.5012080E+03  0.7818608E-02  0.1013464E+00
         -2   -1    0    0    0  501 -0.00000000000E+00  0.00000000000E+00  0.72111503102E+02  0.72111503147E+02  0.25500000000E-02 0. -1.
          2   -1    0    0  501    0  0.00000000000E+00 -0.00000000000E+00 -0.87090617451E+03  0.87090617451E+03  0.25500000000E-02 0.  1.
    5000001    1    1    2    0    0 -0.14640924563E+03  0.35194845872E+02 -0.26926121065E+03  0.36127544055E+03  0.18800000000E+03 0.  0.
   -5000001    1    1    2    0    0  0.14640924563E+03 -0.35194845872E+02 -0.52953346076E+03  0.58174223711E+03  0.18800000000E+03 0.  0.
<mgrwt>
<rscale>  0 0.50120795E+03</rscale>
<asrwt>0</asrwt>
<pdfrwt beam="1">  1        2 0.12441516E+00 0.50120795E+03</pdfrwt>
<pdfrwt beam="2">  1       -2 0.10301644E-01 0.50120795E+03</pdfrwt>
<totfact> 0.22221533E+03</totfact>
</mgrwt>
</event>
<event>
 4    1  0.2209668E-005  0.5813118E+03  0.7818608E-02  0.9944955E-01
          2   -1    0    0  501    0  0.00000000000E+00  0.00000000000E+00  0.94665329101E+03  0.94665329101E+03  0.25500000000E-02 0.  1.
         -2   -1    0    0    0  501 -0.00000000000E+00 -0.00000000000E+00 -0.89241587941E+02  0.89241587978E+02  0.25500000000E-02 0. -1.
    5000001    1    1    2    0    0 -0.99319147549E+02 -0.17854620243E+03  0.27547700849E+03  0.39111970249E+03  0.18800000000E+03 0.  0.
   -5000001    1    1    2    0    0  0.99319147549E+02  0.17854620243E+03  0.58193469458E+03  0.64477517650E+03  0.18800000000E+03 0.  0.
<mgrwt>
<rscale>  0 0.58131177E+03</rscale>
<asrwt>0</asrwt>
<pdfrwt beam="1">  1        2 0.13523618E+00 0.58131177E+03</pdfrwt>
<pdfrwt beam="2">  1       -2 0.12748799E-01 0.58131177E+03</pdfrwt>
<totfact> 0.14015629E+03</totfact>
</mgrwt>
</event>
<event>
 4    1  0.2209668E-005  0.4135738E+03  0.7818608E-02  0.1039178E+00
          2   -1    0    0  501    0  0.00000000000E+00  0.00000000000E+00  0.24311234837E+03  0.24311234839E+03  0.25500000000E-02 0.  1.
         -2   -1    0    0    0  501 -0.00000000000E+00 -0.00000000000E+00 -0.17588917171E+03  0.17588917173E+03  0.25500000000E-02 0. -1.
    5000001    1    1    2    0    0  0.19403035300E+00  0.51866657288E+02 -0.36041261123E+02  0.19832589415E+03  0.18800000000E+03 0.  0.
   -5000001    1    1    2    0    0 -0.19403035300E+00 -0.51866657288E+02  0.10326443779E+03  0.22067562597E+03  0.18800000000E+03 0.  0.
<mgrwt>
<rscale>  0 0.41357384E+03</rscale>
<asrwt>0</asrwt>
<pdfrwt beam="1">  1        2 0.34730336E-01 0.41357384E+03</pdfrwt>
<pdfrwt beam="2">  1       -2 0.25127024E-01 0.41357384E+03</pdfrwt>
<totfact> 0.21180376E+03</totfact>
</mgrwt>
</event>
<event>
 4    1  0.2209668E-005  0.5854733E+03  0.7818608E-02  0.9936011E-01
         -2   -1    0    0    0  501 -0.00000000000E+00  0.00000000000E+00  0.11174638703E+03  0.11174638706E+03  0.25500000000E-02 0. -1.
          2   -1    0    0  501    0  0.00000000000E+00 -0.00000000000E+00 -0.76686825719E+03  0.76686825720E+03  0.25500000000E-02 0.  1.
    5000001    1    1    2    0    0  0.51589400214E+02 -0.16797999351E+03 -0.11815126266E+03  0.28316508489E+03  0.18800000000E+03 0.  0.
   -5000001    1    1    2    0    0 -0.51589400214E+02  0.16797999351E+03 -0.53697060749E+03  0.59544955936E+03  0.18800000000E+03 0.  0.
<mgrwt>
<rscale>  0 0.58547334E+03</rscale>
<asrwt>0</asrwt>
<pdfrwt beam="1">  1        2 0.10955261E+00 0.58547334E+03</pdfrwt>
<pdfrwt beam="2">  1       -2 0.15963770E-01 0.58547334E+03</pdfrwt>
<totfact> 0.12670860E+03</totfact>
</mgrwt>
</event>
<event>
 4    1  0.2209668E-005  0.5348254E+03  0.7818608E-02  0.1005069E+00
         -2   -1    0    0    0  501 -0.00000000000E+00  0.00000000000E+00  0.11950480987E+03  0.11950480990E+03  0.25500000000E-02 0.  1.
          2   -1    0    0  501    0  0.00000000000E+00 -0.00000000000E+00 -0.59838213160E+03  0.59838213160E+03  0.25500000000E-02 0. -1.
    5000001    1    1    2    0    0 -0.36701886381E+01 -0.18813404208E+03 -0.27638570913E+03  0.38358955706E+03  0.18800000000E+03 0.  0.
   -5000001    1    1    2    0    0  0.36701886381E+01  0.18813404208E+03 -0.20249161259E+03  0.33429738444E+03  0.18800000000E+03 0.  0.
<mgrwt>
<rscale>  0 0.53482537E+03</rscale>
<asrwt>0</asrwt>
<pdfrwt beam="1">  1        2 0.85483160E-01 0.53482537E+03</pdfrwt>
<pdfrwt beam="2">  1       -2 0.17072116E-01 0.53482537E+03</pdfrwt>
<totfact> 0.15273671E+03</totfact>
</mgrwt>
</event>
<event>
 4    1  0.2209668E-005  0.8440394E+03  0.7818608E-02  0.9498372E-01
          2   -1    0    0  501    0  0.00000000000E+00  0.00000000000E+00  0.79331850005E+03  0.79331850005E+03  0.25500000000E-02 0.  1.
         -2   -1    0    0    0  501 -0.00000000000E+00 -0.00000000000E+00 -0.22450080007E+03  0.22450080008E+03  0.25500000000E-02 0. -1.
    5000001    1    1    2    0    0 -0.15587867682E+03 -0.21490759460E+03  0.60859659704E+03  0.69008496146E+03  0.18800000000E+03 0.  0.
   -5000001    1    1    2    0    0  0.15587867682E+03  0.21490759460E+03 -0.39778897057E+02  0.32773433868E+03  0.18800000000E+03 0.  0.
<mgrwt>
<rscale>  0 0.84403943E+03</rscale>
<asrwt>0</asrwt>
<pdfrwt beam="1">  1        2 0.11333122E+00 0.84403943E+03</pdfrwt>
<pdfrwt beam="2">  1       -2 0.32071542E-01 0.84403943E+03</pdfrwt>
<totfact> 0.34821271E+02</totfact>
</mgrwt>
</event>
<event>
 4    1  0.2209668E-005  0.1040373E+04  0.7818608E-02  0.9265341E-01
         -2   -1    0    0    0  501 -0.00000000000E+00  0.00000000000E+00  0.74914388789E+03  0.74914388789E+03  0.25500000000E-02 0. -1.
          2   -1    0    0  501    0  0.00000000000E+00 -0.00000000000E+00 -0.36120399372E+03  0.36120399373E+03  0.25500000000E-02 0.  1.
    5000001    1    1    2    0    0 -0.46356968333E+03 -0.81498357213E+02  0.31893933645E+03  0.59883648341E+03  0.18800000000E+03 0.  0.
   -5000001    1    1    2    0    0  0.46356968333E+03  0.81498357213E+02  0.69000557720E+02  0.51151139821E+03  0.18800000000E+03 0.  0.
<mgrwt>
<rscale>  0 0.10403726E+04</rscale>
<asrwt>0</asrwt>
<pdfrwt beam="1">  1        2 0.51600571E-01 0.10403726E+04</pdfrwt>
<pdfrwt beam="2">  1       -2 0.10702056E+00 0.10403726E+04</pdfrwt>
<totfact> 0.67856562E+01</totfact>
</mgrwt>
</event>
<event>
 4    1  0.2209668E-005  0.5531079E+03  0.7818608E-02  0.1000777E+00
          2   -1    0    0  501    0  0.00000000000E+00  0.00000000000E+00  0.11169796085E+03  0.11169796088E+03  0.25500000000E-02 0.  1.
         -2   -1    0    0    0  501 -0.00000000000E+00 -0.00000000000E+00 -0.68472233389E+03  0.68472233389E+03  0.25500000000E-02 0. -1.
    5000001    1    1    2    0    0  0.18009116566E+03  0.92289285825E+02 -0.30625238785E+03  0.41241322152E+03  0.18800000000E+03 0.  0.
   -5000001    1    1    2    0    0 -0.18009116566E+03 -0.92289285825E+02 -0.26677198519E+03  0.38400707325E+03  0.18800000000E+03 0.  0.
<mgrwt>
<rscale>  0 0.55310790E+03</rscale>
<asrwt>0</asrwt>
<pdfrwt beam="1">  1        2 0.15956852E-01 0.55310790E+03</pdfrwt>
<pdfrwt beam="2">  1       -2 0.97817474E-01 0.55310790E+03</pdfrwt>
<totfact> 0.32740200E+02</totfact>
</mgrwt>
</event>
<event>
 4    1  0.2209668E-005  0.5644966E+03  0.7818608E-02  0.9981931E-01
          2   -1    0    0  501    0  0.00000000000E+00  0.00000000000E+00  0.27631562529E+04  0.27631562529E+04  0.25500000000E-02 0.  1.
         -2   -1    0    0    0  501 -0.00000000000E+00 -0.00000000000E+00 -0.28830831504E+02  0.28830831617E+02  0.25500000000E-02 0. -1.
    5000001    1    1    2    0    0  0.43288884213E+02 -0.19809754481E+03  0.10872218150E+04  0.11218341409E+04  0.18800000000E+03 0.  0.
   -5000001    1    1    2    0    0 -0.43288884213E+02  0.19809754481E+03  0.16471036064E+04  0.16701529436E+04  0.18800000000E+03 0.  0.
<mgrwt>
<rscale>  0 0.56449656E+03</rscale>
<asrwt>0</asrwt>
<pdfrwt beam="1">  1        2 0.39473668E+00 0.56449656E+03</pdfrwt>
<pdfrwt beam="2">  1       -2 0.41186895E-02 0.56449656E+03</pdfrwt>
<totfact> 0.93789943E+02</totfact>
</mgrwt>
</event>
<event>
 4    1  0.2209668E-005  0.4728216E+03  0.7818608E-02  0.1021127E+00
          2   -1    0    0  501    0  0.00000000000E+00  0.00000000000E+00  0.11382365881E+04  0.11382365881E+04  0.25500000000E-02 0.  1.
         -2   -1    0    0    0  501 -0.00000000000E+00 -0.00000000000E+00 -0.49102329575E+02  0.49102329641E+02  0.25500000000E-02 0. -1.
    5000001    1    1    2    0    0  0.89563248251E+02  0.57510362232E+02  0.78565390084E+03  0.81481597254E+03  0.18800000000E+03 0.  0.
   -5000001    1    1    2    0    0 -0.89563248251E+02 -0.57510362232E+02  0.30348035767E+03  0.37252294519E+03  0.18800000000E+03 0.  0.
<mgrwt>
<rscale>  0 0.47282161E+03</rscale>
<asrwt>0</asrwt>
<pdfrwt beam="1">  1        2 0.16260522E+00 0.47282161E+03</pdfrwt>
<pdfrwt beam="2">  1       -2 0.70146190E-02 0.47282161E+03</pdfrwt>
<totfact> 0.28237255E+03</totfact>
</mgrwt>
</event>
<event>
 4    1  0.2209668E-005  0.1166950E+04  0.7818608E-02  0.9142287E-01
         -2   -1    0    0    0  501 -0.00000000000E+00  0.00000000000E+00  0.99384662236E+03  0.99384662236E+03  0.25500000000E-02 0. -1.
          2   -1    0    0  501    0  0.00000000000E+00 -0.00000000000E+00 -0.34255103508E+03  0.34255103509E+03  0.25500000000E-02 0.  1.
    5000001    1    1    2    0    0  0.15177987357E+03  0.47475033943E+03  0.59827926414E+03  0.80106622243E+03  0.18800000000E+03 0.  0.
   -5000001    1    1    2    0    0 -0.15177987357E+03 -0.47475033943E+03  0.53016323131E+02  0.53533143502E+03  0.18800000000E+03 0.  0.
<mgrwt>
<rscale>  0 0.11669502E+04</rscale>
<asrwt>0</asrwt>
<pdfrwt beam="1">  1        2 0.48935862E-01 0.11669502E+04</pdfrwt>
<pdfrwt beam="2">  1       -2 0.14197809E+00 0.11669502E+04</pdfrwt>
<totfact> 0.35224105E+01</totfact>
</mgrwt>
</event>
<event>
 4    1  0.2209668E-005  0.1790307E+04  0.7818608E-02  0.8711471E-01
          2   -1    0    0  501    0  0.00000000000E+00  0.00000000000E+00  0.13996390822E+04  0.13996390822E+04  0.25500000000E-02 0.  1.
         -2   -1    0    0    0  501 -0.00000000000E+00 -0.00000000000E+00 -0.57250475811E+03  0.57250475811E+03  0.25500000000E-02 0. -1.
    5000001    1    1    2    0    0 -0.32940070968E+03 -0.79312063058E+03  0.59924210238E+03  0.10639456093E+04  0.18800000000E+03 0.  0.
   -5000001    1    1    2    0    0  0.32940070968E+03  0.79312063058E+03  0.22789222171E+03  0.90819823106E+03  0.18800000000E+03 0.  0.
<mgrwt>
<rscale>  0 0.17903073E+04</rscale>
<asrwt>0</asrwt>
<pdfrwt beam="1">  1        2 0.19994844E+00 0.17903073E+04</pdfrwt>
<pdfrwt beam="2">  1       -2 0.81786394E-01 0.17903073E+04</pdfrwt>
<totfact> 0.20631236E+01</totfact>
</mgrwt>
</event>
<event>
 4    1  0.2209668E-005  0.6327024E+03  0.7818608E-02  0.9839789E-01
         -2   -1    0    0    0  501 -0.00000000000E+00  0.00000000000E+00  0.78027278231E+02  0.78027278273E+02  0.25500000000E-02 0. -1.
          2   -1    0    0  501    0  0.00000000000E+00 -0.00000000000E+00 -0.12826038316E+04  0.12826038316E+04  0.25500000000E-02 0.  1.
    5000001    1    1    2    0    0 -0.25143669012E+03 -0.27249454864E+02 -0.54256980516E+03  0.62744636058E+03  0.18800000000E+03 0.  0.
   -5000001    1    1    2    0    0  0.25143669012E+03  0.27249454864E+02 -0.66200674823E+03  0.73318474932E+03  0.18800000000E+03 0.  0.
<mgrwt>
<rscale>  0 0.63270241E+03</rscale>
<asrwt>0</asrwt>
<pdfrwt beam="1">  1        2 0.18322911E+00 0.63270241E+03</pdfrwt>
<pdfrwt beam="2">  1       -2 0.11146755E-01 0.63270241E+03</pdfrwt>
<totfact> 0.11135520E+03</totfact>
</mgrwt>
</event>
<event>
 4    1  0.2209668E-005  0.3932393E+03  0.7818608E-02  0.1046146E+00
          2   -1    0    0  501    0  0.00000000000E+00  0.00000000000E+00  0.16545911903E+04  0.16545911903E+04  0.25500000000E-02 0.  1.
         -2   -1    0    0    0  501 -0.00000000000E+00 -0.00000000000E+00 -0.23364858389E+02  0.23364858528E+02  0.25500000000E-02 0. -1.
    5000001    1    1    2    0    0  0.47180089607E+02 -0.30554311405E+02  0.86886746212E+03  0.89074923156E+03  0.18800000000E+03 0.  0.
   -5000001    1    1    2    0    0 -0.47180089607E+02  0.30554311405E+02  0.76235886977E+03  0.78720681725E+03  0.18800000000E+03 0.  0.
<mgrwt>
<rscale>  0 0.39323931E+03</rscale>
<asrwt>0</asrwt>
<pdfrwt beam="1">  1        2 0.23637016E+00 0.39323931E+03</pdfrwt>
<pdfrwt beam="2">  1       -2 0.33378371E-02 0.39323931E+03</pdfrwt>
<totfact> 0.47213209E+03</totfact>
</mgrwt>
</event>
<event>
 4    1  0.2209668E-005  0.5216463E+03  0.7818608E-02  0.1008278E+00
          2   -1    0    0  501    0  0.00000000000E+00  0.00000000000E+00  0.45132892477E+02  0.45132892550E+02  0.25500000000E-02 0.  1.
         -2   -1    0    0    0  501 -0.00000000000E+00 -0.00000000000E+00 -0.15072981249E+04  0.15072981249E+04  0.25500000000E-02 0. -1.
    5000001    1    1    2    0    0  0.15290085154E+02  0.14979723987E+03 -0.10288592370E+04  0.10566779686E+04  0.18800000000E+03 0.  0.
   -5000001    1    1    2    0    0 -0.15290085154E+02 -0.14979723987E+03 -0.43330599548E+03  0.49575304890E+03  0.18800000000E+03 0.  0.
<mgrwt>
<rscale>  0 0.52164633E+03</rscale>
<asrwt>0</asrwt>
<pdfrwt beam="1">  1        2 0.64475570E-02 0.52164633E+03</pdfrwt>
<pdfrwt beam="2">  1       -2 0.21532827E+00 0.52164633E+03</pdfrwt>
<totfact> 0.12857245E+02</totfact>
</mgrwt>
</event>
<event>
 4    1  0.2209668E-005  0.4879863E+03  0.7818608E-02  0.1016963E+00
          2   -1    0    0  501    0  0.00000000000E+00  0.00000000000E+00  0.40656126225E+03  0.40656126226E+03  0.25500000000E-02 0.  1.
         -2   -1    0    0    0  501 -0.00000000000E+00 -0.00000000000E+00 -0.14642976003E+03  0.14642976005E+03  0.25500000000E-02 0. -1.
    5000001    1    1    2    0    0  0.74262208537E+02 -0.13373611362E+03  0.98246061330E+02  0.26152726869E+03  0.18800000000E+03 0.  0.
   -5000001    1    1    2    0    0 -0.74262208537E+02  0.13373611362E+03  0.16188544089E+03  0.29146375362E+03  0.18800000000E+03 0.  0.
<mgrwt>
<rscale>  0 0.48798634E+03</rscale>
<asrwt>0</asrwt>
<pdfrwt beam="1">  1        2 0.58080180E-01 0.48798634E+03</pdfrwt>
<pdfrwt beam="2">  1       -2 0.20918537E-01 0.48798634E+03</pdfrwt>
<totfact> 0.16668771E+03</totfact>
</mgrwt>
</event>
<event>
 4    1  0.2209668E-005  0.4552462E+03  0.7818608E-02  0.1026169E+00
         -2   -1    0    0    0  501 -0.00000000000E+00  0.00000000000E+00  0.71094714345E+02  0.71094714391E+02  0.25500000000E-02 0. -1.
          2   -1    0    0  501    0  0.00000000000E+00 -0.00000000000E+00 -0.72877807070E+03  0.72877807071E+03  0.25500000000E-02 0.  1.
    5000001    1    1    2    0    0 -0.94455537675E+00 -0.11156438234E+03 -0.44025290985E+03  0.49154260062E+03  0.18800000000E+03 0.  0.
   -5000001    1    1    2    0    0  0.94455537675E+00  0.11156438234E+03 -0.21743044650E+03  0.30833018448E+03  0.18800000000E+03 0.  0.
<mgrwt>
<rscale>  0 0.45524617E+03</rscale>
<asrwt>0</asrwt>
<pdfrwt beam="1">  1        2 0.10411115E+00 0.45524617E+03</pdfrwt>
<pdfrwt beam="2">  1       -2 0.10156388E-01 0.45524617E+03</pdfrwt>
<totfact> 0.28477976E+03</totfact>
</mgrwt>
</event>
<event>
 4    1  0.2209668E-005  0.1549549E+04  0.7818608E-02  0.8852156E-01
          2   -1    0    0  501    0  0.00000000000E+00  0.00000000000E+00  0.50315634874E+03  0.50315634875E+03  0.25500000000E-02 0.  1.
         -2   -1    0    0    0  501 -0.00000000000E+00 -0.00000000000E+00 -0.11930194075E+04  0.11930194076E+04  0.25500000000E-02 0. -1.
    5000001    1    1    2    0    0  0.71054447413E+03 -0.17014082640E+03 -0.53800170861E+03  0.92661275029E+03  0.18800000000E+03 0.  0.
   -5000001    1    1    2    0    0 -0.71054447413E+03  0.17014082640E+03 -0.15186135020E+03  0.76956300601E+03  0.18800000000E+03 0.  0.
<mgrwt>
<rscale>  0 0.15495487E+04</rscale>
<asrwt>0</asrwt>
<pdfrwt beam="1">  1        2 0.71879479E-01 0.15495487E+04</pdfrwt>
<pdfrwt beam="2">  1       -2 0.17043134E+00 0.15495487E+04</pdfrwt>
<totfact> 0.13595633E+01</totfact>
</mgrwt>
</event>
<event>
 4    1  0.2209668E-005  0.4945410E+03  0.7818608E-02  0.1015214E+00
         -2   -1    0    0    0  501 -0.00000000000E+00  0.00000000000E+00  0.51308106470E+02  0.51308106534E+02  0.25500000000E-02 0. -1.
          2   -1    0    0  501    0  0.00000000000E+00 -0.00000000000E+00 -0.11916772518E+04  0.11916772518E+04  0.25500000000E-02 0.  1.
    5000001    1    1    2    0    0 -0.14826763621E+03  0.41182646312E+02 -0.68589440689E+03  0.72764994311E+03  0.18800000000E+03 0.  0.
   -5000001    1    1    2    0    0  0.14826763621E+03 -0.41182646312E+02 -0.45447473840E+03  0.51533541519E+03  0.18800000000E+03 0.  0.
<mgrwt>
<rscale>  0 0.49454101E+03</rscale>
<asrwt>0</asrwt>
<pdfrwt beam="1">  1        2 0.17023959E+00 0.49454101E+03</pdfrwt>
<pdfrwt beam="2">  1       -2 0.73297302E-02 0.49454101E+03</pdfrwt>
<totfact> 0.24585182E+03</totfact>
</mgrwt>
</event>
<event>
 4    1  0.2209668E-005  0.6266870E+03  0.7818608E-02  0.9851535E-01
          2   -1    0    0  501    0  0.00000000000E+00  0.00000000000E+00  0.19568879459E+04  0.19568879459E+04  0.25500000000E-02 0.  1.
         -2   -1    0    0    0  501 -0.00000000000E+00 -0.00000000000E+00 -0.50173612750E+02  0.50173612814E+02  0.25500000000E-02 0. -1.
    5000001    1    1    2    0    0 -0.19174060066E+03  0.16146547127E+03  0.94650191090E+03  0.99701826648E+03  0.18800000000E+03 0.  0.
   -5000001    1    1    2    0    0  0.19174060066E+03 -0.16146547127E+03  0.96021242229E+03  0.10100432923E+04  0.18800000000E+03 0.  0.
<mgrwt>
<rscale>  0 0.62668697E+03</rscale>
<asrwt>0</asrwt>
<pdfrwt beam="1">  1        2 0.27955539E+00 0.62668697E+03</pdfrwt>
<pdfrwt beam="2">  1       -2 0.71676598E-02 0.62668697E+03</pdfrwt>
<totfact> 0.10151024E+03</totfact>
</mgrwt>
</event>
<event>
 4    1  0.2209668E-005  0.6711665E+03  0.7818608E-02  0.9767853E-01
          2   -1    0    0  501    0  0.00000000000E+00  0.00000000000E+00  0.31397205692E+04  0.31397205692E+04  0.25500000000E-02 0.  1.
         -2   -1    0    0    0  501 -0.00000000000E+00 -0.00000000000E+00 -0.35868202001E+02  0.35868202091E+02  0.25500000000E-02 0. -1.
    5000001    1    1    2    0    0 -0.22056268550E+02 -0.24308795390E+03  0.92255662022E+03  0.97264225172E+03  0.18800000000E+03 0.  0.
   -5000001    1    1    2    0    0  0.22056268550E+02  0.24308795390E+03  0.21812957470E+04  0.22029465196E+04  0.18800000000E+03 0.  0.
<mgrwt>
<rscale>  0 0.67116654E+03</rscale>
<asrwt>0</asrwt>
<pdfrwt beam="1">  1        2 0.44853152E+00 0.67116654E+03</pdfrwt>
<pdfrwt beam="2">  1       -2 0.51240288E-02 0.67116654E+03</pdfrwt>
<totfact> 0.41438052E+02</totfact>
</mgrwt>
</event>
<event>
 4    1  0.2209668E-005  0.5485772E+03  0.7818608E-02  0.1001824E+00
          2   -1    0    0  501    0  0.00000000000E+00  0.00000000000E+00  0.13600630775E+04  0.13600630775E+04  0.25500000000E-02 0.  1.
         -2   -1    0    0    0  501 -0.00000000000E+00 -0.00000000000E+00 -0.55316721151E+02  0.55316721210E+02  0.25500000000E-02 0. -1.
    5000001    1    1    2    0    0 -0.19427105808E+03 -0.13911544056E+02  0.76646622238E+03  0.81286483816E+03  0.18800000000E+03 0.  0.
   -5000001    1    1    2    0    0  0.19427105808E+03  0.13911544056E+02  0.53828013398E+03  0.60251496057E+03  0.18800000000E+03 0.  0.
<mgrwt>
<rscale>  0 0.54857718E+03</rscale>
<asrwt>0</asrwt>
<pdfrwt beam="1">  1        2 0.19429468E+00 0.54857718E+03</pdfrwt>
<pdfrwt beam="2">  1       -2 0.79023905E-02 0.54857718E+03</pdfrwt>
<totfact> 0.17651364E+03</totfact>
</mgrwt>
</event>
<event>
 4    1  0.2209668E-005  0.8824641E+03  0.7818608E-02  0.9447772E-01
          2   -1    0    0  501    0  0.00000000000E+00  0.00000000000E+00  0.15756465707E+04  0.15756465707E+04  0.25500000000E-02 0.  1.
         -2   -1    0    0    0  501 -0.00000000000E+00 -0.00000000000E+00 -0.12355926800E+03  0.12355926803E+03  0.25500000000E-02 0. -1.
    5000001    1    1    2    0    0 -0.17350747755E+03 -0.35755334127E+03  0.65419037458E+03  0.78819939281E+03  0.18800000000E+03 0.  0.
   -5000001    1    1    2    0    0  0.17350747755E+03  0.35755334127E+03  0.79789692813E+03  0.91100644594E+03  0.18800000000E+03 0.  0.
<mgrwt>
<rscale>  0 0.88246413E+03</rscale>
<asrwt>0</asrwt>
<pdfrwt beam="1">  1        2 0.22509235E+00 0.88246413E+03</pdfrwt>
<pdfrwt beam="2">  1       -2 0.17651325E-01 0.88246413E+03</pdfrwt>
<totfact> 0.35496595E+02</totfact>
</mgrwt>
</event>
<event>
 4    1  0.2209668E-005  0.5251142E+03  0.7818608E-02  0.1007424E+00
          2   -1    0    0  501    0  0.00000000000E+00  0.00000000000E+00  0.21458957000E+04  0.21458957000E+04  0.25500000000E-02 0.  1.
         -2   -1    0    0    0  501 -0.00000000000E+00 -0.00000000000E+00 -0.32124683082E+02  0.32124683184E+02  0.25500000000E-02 0. -1.
    5000001    1    1    2    0    0 -0.68975687792E+01  0.16876317323E+03  0.76173782427E+03  0.80256906121E+03  0.18800000000E+03 0.  0.
   -5000001    1    1    2    0    0  0.68975687792E+01 -0.16876317323E+03  0.13520331927E+04  0.13754513220E+04  0.18800000000E+03 0.  0.
<mgrwt>
<rscale>  0 0.52511416E+03</rscale>
<asrwt>0</asrwt>
<pdfrwt beam="1">  1        2 0.30655663E+00 0.52511416E+03</pdfrwt>
<pdfrwt beam="2">  1       -2 0.45892390E-02 0.52511416E+03</pdfrwt>
<totfact> 0.16458614E+03</totfact>
</mgrwt>
</event>
<event>
 4    1  0.2209668E-005  0.1200099E+04  0.7818608E-02  0.9112770E-01
         -2   -1    0    0    0  501 -0.00000000000E+00  0.00000000000E+00  0.18683249862E+03  0.18683249864E+03  0.25500000000E-02 0. -1.
          2   -1    0    0  501    0  0.00000000000E+00 -0.00000000000E+00 -0.19271778147E+04  0.19271778147E+04  0.25500000000E-02 0.  1.
    5000001    1    1    2    0    0 -0.43688473509E+03  0.15232198787E+03 -0.14561168642E+04  0.15393799342E+04  0.18800000000E+03 0.  0.
   -5000001    1    1    2    0    0  0.43688473509E+03 -0.15232198787E+03 -0.28422845190E+03  0.57463037912E+03  0.18800000000E+03 0.  0.
<mgrwt>
<rscale>  0 0.12000991E+04</rscale>
<asrwt>0</asrwt>
<pdfrwt beam="1">  1        2 0.27531111E+00 0.12000991E+04</pdfrwt>
<pdfrwt beam="2">  1       -2 0.26690358E-01 0.12000991E+04</pdfrwt>
<totfact> 0.10991288E+02</totfact>
</mgrwt>
</event>
<event>
 4    1  0.2209668E-005  0.4295977E+03  0.7818608E-02  0.1033987E+00
          2   -1    0    0  501    0  0.00000000000E+00  0.00000000000E+00  0.47425593252E+03  0.47425593252E+03  0.25500000000E-02 0.  1.
         -2   -1    0    0    0  501 -0.00000000000E+00 -0.00000000000E+00 -0.97286167010E+02  0.97286167043E+02  0.25500000000E-02 0. -1.
    5000001    1    1    2    0    0 -0.24361795316E+02  0.10062356831E+03  0.17689101976E+03  0.27812413135E+03  0.18800000000E+03 0.  0.
   -5000001    1    1    2    0    0  0.24361795316E+02 -0.10062356831E+03  0.20007874575E+03  0.29341796821E+03  0.18800000000E+03 0.  0.
<mgrwt>
<rscale>  0 0.42959768E+03</rscale>
<asrwt>0</asrwt>
<pdfrwt beam="1">  1        2 0.67750846E-01 0.42959768E+03</pdfrwt>
<pdfrwt beam="2">  1       -2 0.13898024E-01 0.42959768E+03</pdfrwt>
<totfact> 0.28100906E+03</totfact>
</mgrwt>
</event>
<event>
 4    1  0.2209668E-005  0.6643161E+03  0.7818608E-02  0.9780281E-01
         -2   -1    0    0    0  501 -0.00000000000E+00  0.00000000000E+00  0.56943412167E+02  0.56943412224E+02  0.25500000000E-02 0. -1.
          2   -1    0    0  501    0  0.00000000000E+00 -0.00000000000E+00 -0.19375193519E+04  0.19375193519E+04  0.25500000000E-02 0.  1.
    5000001    1    1    2    0    0  0.71584383561E+02  0.20168218556E+03 -0.14531854141E+04  0.14808416106E+04  0.18800000000E+03 0.  0.
   -5000001    1    1    2    0    0 -0.71584383561E+02 -0.20168218556E+03 -0.42739052562E+03  0.51362115351E+03  0.18800000000E+03 0.  0.
<mgrwt>
<rscale>  0 0.66431608E+03</rscale>
<asrwt>0</asrwt>
<pdfrwt beam="1">  1        2 0.27678844E+00 0.66431608E+03</pdfrwt>
<pdfrwt beam="2">  1       -2 0.81347744E-02 0.66431608E+03</pdfrwt>
<totfact> 0.84698285E+02</totfact>
</mgrwt>
</event>
<event>
 4    1  0.2209668E-005  0.7388973E+03  0.7818608E-02  0.9652932E-01
          2   -1    0    0  501    0  0.00000000000E+00  0.00000000000E+00  0.26424518885E+04  0.26424518885E+04  0.25500000000E-02 0.  1.
         -2   -1    0    0    0  501 -0.00000000000E+00 -0.00000000000E+00 -0.51653651296E+02  0.51653651359E+02  0.25500000000E-02 0. -1.
    5000001    1    1    2    0    0 -0.24274021147E+03 -0.17163064915E+03  0.17074005890E+04  0.17432557648E+04  0.18800000000E+03 0.  0.
   -5000001    1    1    2    0    0  0.24274021147E+03  0.17163064915E+03  0.88339764823E+03  0.95084977515E+03  0.18800000000E+03 0.  0.
<mgrwt>
<rscale>  0 0.73889726E+03</rscale>
<asrwt>0</asrwt>
<pdfrwt beam="1">  1        2 0.37749323E+00 0.73889726E+03</pdfrwt>
<pdfrwt beam="2">  1       -2 0.73790910E-02 0.73889726E+03</pdfrwt>
<totfact> 0.43001986E+02</totfact>
</mgrwt>
</event>
<event>
 4    1  0.2209668E-005  0.5934909E+03  0.7818608E-02  0.9919003E-01
          2   -1    0    0  501    0  0.00000000000E+00  0.00000000000E+00  0.96746672069E+03  0.96746672069E+03  0.25500000000E-02 0.  1.
         -2   -1    0    0    0  501 -0.00000000000E+00 -0.00000000000E+00 -0.91019001442E+02  0.91019001478E+02  0.25500000000E-02 0. -1.
    5000001    1    1    2    0    0  0.16987444675E+03 -0.63848789403E+02  0.68905563769E+03  0.73693667802E+03  0.18800000000E+03 0.  0.
   -5000001    1    1    2    0    0 -0.16987444675E+03  0.63848789403E+02  0.18739208155E+03  0.32154904415E+03  0.18800000000E+03 0.  0.
<mgrwt>
<rscale>  0 0.59349088E+03</rscale>
<asrwt>0</asrwt>
<pdfrwt beam="1">  1        2 0.13820954E+00 0.59349088E+03</pdfrwt>
<pdfrwt beam="2">  1       -2 0.13002714E-01 0.59349088E+03</pdfrwt>
<totfact> 0.13163240E+03</totfact>
</mgrwt>
</event>
<event>
 4    1  0.2209668E-005  0.5192913E+03  0.7818608E-02  0.1008863E+00
         -2   -1    0    0    0  501 -0.00000000000E+00  0.00000000000E+00  0.50961357431E+02  0.50961357495E+02  0.25500000000E-02 0.  1.
          2   -1    0    0  501    0  0.00000000000E+00 -0.00000000000E+00 -0.13228818594E+04  0.13228818594E+04  0.25500000000E-02 0. -1.
    5000001    1    1    2    0    0 -0.14501072550E+03 -0.29903873124E+00 -0.91398443626E+03  0.94431972851E+03  0.18800000000E+03 0.  0.
   -5000001    1    1    2    0    0  0.14501072550E+03  0.29903873124E+00 -0.35793606567E+03  0.42952348835E+03  0.18800000000E+03 0.  0.
<mgrwt>
<rscale>  0 0.51929127E+03</rscale>
<asrwt>0</asrwt>
<pdfrwt beam="1">  1        2 0.18898310E+00 0.51929127E+03</pdfrwt>
<pdfrwt beam="2">  1       -2 0.72801947E-02 0.51929127E+03</pdfrwt>
<totfact> 0.21056398E+03</totfact>
</mgrwt>
</event>
<event>
 4    1  0.2209668E-005  0.1239003E+04  0.7818608E-02  0.9079386E-01
         -2   -1    0    0    0  501 -0.00000000000E+00  0.00000000000E+00  0.33462557882E+03  0.33462557883E+03  0.25500000000E-02 0. -1.
          2   -1    0    0  501    0  0.00000000000E+00 -0.00000000000E+00 -0.11469003534E+04  0.11469003534E+04  0.25500000000E-02 0.  1.
    5000001    1    1    2    0    0 -0.49509442864E+03 -0.29460368038E+03 -0.25240976797E+03  0.65647887455E+03  0.18800000000E+03 0.  0.
   -5000001    1    1    2    0    0  0.49509442864E+03  0.29460368038E+03 -0.55986500666E+03  0.82504705772E+03  0.18800000000E+03 0.  0.
<mgrwt>
<rscale>  0 0.12390031E+04</rscale>
<asrwt>0</asrwt>
<pdfrwt beam="1">  1        2 0.16384291E+00 0.12390031E+04</pdfrwt>
<pdfrwt beam="2">  1       -2 0.47803654E-01 0.12390031E+04</pdfrwt>
<totfact> 0.93583257E+01</totfact>
</mgrwt>
</event>
<event>
 4    1  0.2209668E-005  0.5999790E+03  0.7818608E-02  0.9905450E-01
          2   -1    0    0  501    0  0.00000000000E+00  0.00000000000E+00  0.50680860281E+03  0.50680860282E+03  0.25500000000E-02 0.  1.
         -2   -1    0    0    0  501 -0.00000000000E+00 -0.00000000000E+00 -0.17756942183E+03  0.17756942184E+03  0.25500000000E-02 0. -1.
    5000001    1    1    2    0    0 -0.21669984758E+03  0.65825117961E+02  0.98520348600E+02  0.31039012417E+03  0.18800000000E+03 0.  0.
   -5000001    1    1    2    0    0  0.21669984758E+03 -0.65825117961E+02  0.23071883239E+03  0.37398790049E+03  0.18800000000E+03 0.  0.
<mgrwt>
<rscale>  0 0.59997903E+03</rscale>
<asrwt>0</asrwt>
<pdfrwt beam="1">  1        2 0.72401228E-01 0.59997903E+03</pdfrwt>
<pdfrwt beam="2">  1       -2 0.25367060E-01 0.59997903E+03</pdfrwt>
<totfact> 0.92510517E+02</totfact>
</mgrwt>
</event>
<event>
 4    1  0.2209668E-005  0.4995732E+03  0.7818608E-02  0.1013890E+00
         -2   -1    0    0    0  501 -0.00000000000E+00  0.00000000000E+00  0.14778299768E+03  0.14778299770E+03  0.25500000000E-02 0. -1.
          2   -1    0    0  501    0  0.00000000000E+00 -0.00000000000E+00 -0.42219571863E+03  0.42219571863E+03  0.25500000000E-02 0.  1.
    5000001    1    1    2    0    0 -0.12710072571E+03 -0.87499671851E+02 -0.20213489396E+03  0.31624879827E+03  0.18800000000E+03 0.  0.
   -5000001    1    1    2    0    0  0.12710072571E+03  0.87499671851E+02 -0.72277826980E+02  0.25372991807E+03  0.18800000000E+03 0.  0.
<mgrwt>
<rscale>  0 0.49957321E+03</rscale>
<asrwt>0</asrwt>
<pdfrwt beam="1">  1        2 0.60313674E-01 0.49957321E+03</pdfrwt>
<pdfrwt beam="2">  1       -2 0.21111857E-01 0.49957321E+03</pdfrwt>
<totfact> 0.15733836E+03</totfact>
</mgrwt>
</event>
<event>
 4    1  0.2209668E-005  0.5054728E+03  0.7818608E-02  0.1012360E+00
          2   -1    0    0  501    0  0.00000000000E+00  0.00000000000E+00  0.14894750444E+04  0.14894750444E+04  0.25500000000E-02 0.  1.
         -2   -1    0    0    0  501 -0.00000000000E+00 -0.00000000000E+00 -0.42884694308E+02  0.42884694384E+02  0.25500000000E-02 0. -1.
    5000001    1    1    2    0    0  0.82167541034E+02  0.49298705341E+02  0.11449930079E+04  0.11642743900E+04  0.18800000000E+03 0.  0.
   -5000001    1    1    2    0    0 -0.82167541034E+02 -0.49298705341E+02  0.30159734218E+03  0.36808534874E+03  0.18800000000E+03 0.  0.
<mgrwt>
<rscale>  0 0.50547278E+03</rscale>
<asrwt>0</asrwt>
<pdfrwt beam="1">  1        2 0.21278212E+00 0.50547278E+03</pdfrwt>
<pdfrwt beam="2">  1       -2 0.61263858E-02 0.50547278E+03</pdfrwt>
<totfact> 0.22556778E+03</totfact>
</mgrwt>
</event>
<event>
 4    1  0.2209668E-005  0.5681830E+03  0.7818608E-02  0.9973708E-01
          2   -1    0    0  501    0  0.00000000000E+00  0.00000000000E+00  0.49019205006E+03  0.49019205007E+03  0.25500000000E-02 0. -1.
         -2   -1    0    0    0  501 -0.00000000000E+00 -0.00000000000E+00 -0.16464561664E+03  0.16464561666E+03  0.25500000000E-02 0.  1.
    5000001    1    1    2    0    0  0.21591763011E+02  0.19641913332E+03  0.71169958570E+02  0.28187912865E+03  0.18800000000E+03 0.  0.
   -5000001    1    1    2    0    0 -0.21591763011E+02 -0.19641913332E+03  0.25437647486E+03  0.37295853808E+03  0.18800000000E+03 0.  0.
<mgrwt>
<rscale>  0 0.56818297E+03</rscale>
<asrwt>0</asrwt>
<pdfrwt beam="1">  1        2 0.70027436E-01 0.56818297E+03</pdfrwt>
<pdfrwt beam="2">  1       -2 0.23520802E-01 0.56818297E+03</pdfrwt>
<totfact> 0.11001949E+03</totfact>
</mgrwt>
</event>
<event>
 4    1  0.2209668E-005  0.3928571E+03  0.7818608E-02  0.1046281E+00
         -2   -1    0    0    0  501 -0.00000000000E+00  0.00000000000E+00  0.81848208441E+02  0.81848208480E+02  0.25500000000E-02 0. -1.
          2   -1    0    0  501    0  0.00000000000E+00 -0.00000000000E+00 -0.47141128409E+03  0.47141128410E+03  0.25500000000E-02 0.  1.
    5000001    1    1    2    0    0 -0.28447759056E+02  0.49178091643E+02 -0.19974253541E+03  0.28012290186E+03  0.18800000000E+03 0.  0.
   -5000001    1    1    2    0    0  0.28447759056E+02 -0.49178091643E+02 -0.18982054024E+03  0.27313659072E+03  0.18800000000E+03 0.  0.
<mgrwt>
<rscale>  0 0.39285707E+03</rscale>
<asrwt>0</asrwt>
<pdfrwt beam="1">  1        2 0.67344468E-01 0.39285707E+03</pdfrwt>
<pdfrwt beam="2">  1       -2 0.11692601E-01 0.39285707E+03</pdfrwt>
<totfact> 0.37511837E+03</totfact>
</mgrwt>
</event>
<event>
 4    1  0.2209668E-005  0.4824371E+03  0.7818608E-02  0.1018468E+00
         -2   -1    0    0    0  501 -0.00000000000E+00  0.00000000000E+00  0.19763658578E+03  0.19763658579E+03  0.25500000000E-02 0. -1.
          2   -1    0    0  501    0  0.00000000000E+00 -0.00000000000E+00 -0.29441101592E+03  0.29441101593E+03  0.25500000000E-02 0.  1.
    5000001    1    1    2    0    0 -0.12076618778E+03  0.88573280006E+02 -0.69106672535E+02  0.25009884092E+03  0.18800000000E+03 0.  0.
   -5000001    1    1    2    0    0  0.12076618778E+03 -0.88573280006E+02 -0.27667757605E+02  0.24194876080E+03  0.18800000000E+03 0.  0.
<mgrwt>
<rscale>  0 0.48243710E+03</rscale>
<asrwt>0</asrwt>
<pdfrwt beam="1">  1        2 0.42058716E-01 0.48243710E+03</pdfrwt>
<pdfrwt beam="2">  1       -2 0.28233798E-01 0.48243710E+03</pdfrwt>
<totfact> 0.13930977E+03</totfact>
</mgrwt>
</event>
<event>
 4    1  0.2209668E-005  0.8218515E+03  0.7818608E-02  0.9528916E-01
          2   -1    0    0  501    0  0.00000000000E+00  0.00000000000E+00  0.24468859755E+04  0.24468859755E+04  0.25500000000E-02 0.  1.
         -2   -1    0    0    0  501 -0.00000000000E+00 -0.00000000000E+00 -0.69010150770E+02  0.69010150817E+02  0.25500000000E-02 0. -1.
    5000001    1    1    2    0    0 -0.25286416482E+03 -0.20031518105E+03  0.66360040155E+03  0.76143020070E+03  0.18800000000E+03 0.  0.
   -5000001    1    1    2    0    0  0.25286416482E+03  0.20031518105E+03  0.17142754231E+04  0.17544659256E+04  0.18800000000E+03 0.  0.
<mgrwt>
<rscale>  0 0.82185150E+03</rscale>
<asrwt>0</asrwt>
<pdfrwt beam="1">  1        2 0.34955508E+00 0.82185150E+03</pdfrwt>
<pdfrwt beam="2">  1       -2 0.98585946E-02 0.82185150E+03</pdfrwt>
<totfact> 0.33858897E+02</totfact>
</mgrwt>
</event>
<event>
 4    1  0.2209668E-005  0.8699242E+03  0.7818608E-02  0.9463979E-01
          2   -1    0    0  501    0  0.00000000000E+00  0.00000000000E+00  0.44448912940E+04  0.44448912940E+04  0.25500000000E-02 0.  1.
         -2   -1    0    0    0  501 -0.00000000000E+00 -0.00000000000E+00 -0.42563926711E+02  0.42563926787E+02  0.25500000000E-02 0. -1.
    5000001    1    1    2    0    0  0.39140814302E+03  0.24963856926E+02  0.21756312774E+04  0.22186795586E+04  0.18800000000E+03 0.  0.
   -5000001    1    1    2    0    0 -0.39140814302E+03 -0.24963856926E+02  0.22266960899E+04  0.22687756622E+04  0.18800000000E+03 0.  0.
<mgrwt>
<rscale>  0 0.86992420E+03</rscale>
<asrwt>0</asrwt>
<pdfrwt beam="1">  1        2 0.63498476E+00 0.86992420E+03</pdfrwt>
<pdfrwt beam="2">  1       -2 0.60805582E-02 0.86992420E+03</pdfrwt>
<totfact> 0.44394882E+01</totfact>
</mgrwt>
</event>
<event>
 4    1  0.2209668E-005  0.4911531E+03  0.7818608E-02  0.1016114E+00
          2   -1    0    0  501    0  0.00000000000E+00  0.00000000000E+00  0.11833107501E+04  0.11833107501E+04  0.25500000000E-02 0.  1.
         -2   -1    0    0    0  501 -0.00000000000E+00 -0.00000000000E+00 -0.50965354703E+02  0.50965354767E+02  0.25500000000E-02 0. -1.
    5000001    1    1    2    0    0 -0.93020800915E+02  0.12629893733E+03  0.51852062576E+03  0.57342125031E+03  0.18800000000E+03 0.  0.
   -5000001    1    1    2    0    0  0.93020800915E+02 -0.12629893733E+03  0.61382476966E+03  0.66085485458E+03  0.18800000000E+03 0.  0.
<mgrwt>
<rscale>  0 0.49115314E+03</rscale>
<asrwt>0</asrwt>
<pdfrwt beam="1">  1        2 0.16904442E+00 0.49115314E+03</pdfrwt>
<pdfrwt beam="2">  1       -2 0.72807636E-02 0.49115314E+03</pdfrwt>
<totfact> 0.25115817E+03</totfact>
</mgrwt>
</event>
<event>
 4    1  0.2209668E-005  0.5107990E+03  0.7818608E-02  0.1010998E+00
         -2   -1    0    0    0  501 -0.00000000000E+00  0.00000000000E+00  0.41078978626E+02  0.41078978705E+02  0.25500000000E-02 0. -1.
          2   -1    0    0  501    0  0.00000000000E+00 -0.00000000000E+00 -0.15878898759E+04  0.15878898759E+04  0.25500000000E-02 0.  1.
    5000001    1    1    2    0    0 -0.12461886366E+03  0.11510304438E+03 -0.66733275037E+03  0.71376156504E+03  0.18800000000E+03 0.  0.
   -5000001    1    1    2    0    0  0.12461886366E+03 -0.11510304438E+03 -0.87947814692E+03  0.91520728959E+03  0.18800000000E+03 0.  0.
<mgrwt>
<rscale>  0 0.51079896E+03</rscale>
<asrwt>0</asrwt>
<pdfrwt beam="1">  1        2 0.22684137E+00 0.51079896E+03</pdfrwt>
<pdfrwt beam="2">  1       -2 0.58684265E-02 0.51079896E+03</pdfrwt>
<totfact> 0.21462175E+03</totfact>
</mgrwt>
</event>
<event>
 4    1  0.2209668E-005  0.5055621E+03  0.7818608E-02  0.1012337E+00
          2   -1    0    0  501    0  0.00000000000E+00  0.00000000000E+00  0.25956809395E+04  0.25956809395E+04  0.25500000000E-02 0.  1.
         -2   -1    0    0    0  501 -0.00000000000E+00 -0.00000000000E+00 -0.24617147727E+02  0.24617147859E+02  0.25500000000E-02 0. -1.
    5000001    1    1    2    0    0 -0.14432044102E+03 -0.44309721500E+02  0.89208836035E+03  0.92409814618E+03  0.18800000000E+03 0.  0.
   -5000001    1    1    2    0    0  0.14432044102E+03  0.44309721500E+02  0.16789754314E+04  0.16961999412E+04  0.18800000000E+03 0.  0.
<mgrwt>
<rscale>  0 0.50556211E+03</rscale>
<asrwt>0</asrwt>
<pdfrwt beam="1">  1        2 0.37081151E+00 0.50556211E+03</pdfrwt>
<pdfrwt beam="2">  1       -2 0.35167359E-02 0.50556211E+03</pdfrwt>
<totfact> 0.14662025E+03</totfact>
</mgrwt>
</event>
<event>
 4    1  0.2209668E-005  0.5029892E+03  0.7818608E-02  0.1013002E+00
         -2   -1    0    0    0  501 -0.00000000000E+00  0.00000000000E+00  0.65399696128E+02  0.65399696177E+02  0.25500000000E-02 0. -1.
          2   -1    0    0  501    0  0.00000000000E+00 -0.00000000000E+00 -0.96712265362E+03  0.96712265362E+03  0.25500000000E-02 0.  1.
    5000001    1    1    2    0    0  0.26988355720E+02  0.14342649957E+03 -0.61770523585E+03  0.66196925195E+03  0.18800000000E+03 0.  0.
   -5000001    1    1    2    0    0 -0.26988355720E+02 -0.14342649957E+03 -0.28401772164E+03  0.37055309786E+03  0.18800000000E+03 0.  0.
<mgrwt>
<rscale>  0 0.50298918E+03</rscale>
<asrwt>0</asrwt>
<pdfrwt beam="1">  1        2 0.13816037E+00 0.50298918E+03</pdfrwt>
<pdfrwt beam="2">  1       -2 0.93428143E-02 0.50298918E+03</pdfrwt>
<totfact> 0.22602330E+03</totfact>
</mgrwt>
</event>
<event>
 4    1  0.2209668E-005  0.5160445E+03  0.7818608E-02  0.1009674E+00
         -2   -1    0    0    0  501 -0.00000000000E+00  0.00000000000E+00  0.14813244878E+03  0.14813244880E+03  0.25500000000E-02 0. -1.
          2   -1    0    0  501    0  0.00000000000E+00 -0.00000000000E+00 -0.44943217391E+03  0.44943217391E+03  0.25500000000E-02 0.  1.
    5000001    1    1    2    0    0 -0.13697163327E+03  0.48131696137E+02 -0.26733290024E+03  0.35761539123E+03  0.18800000000E+03 0.  0.
   -5000001    1    1    2    0    0  0.13697163327E+03 -0.48131696137E+02 -0.33966824885E+02  0.23994923148E+03  0.18800000000E+03 0.  0.
<mgrwt>
<rscale>  0 0.51604453E+03</rscale>
<asrwt>0</asrwt>
<pdfrwt beam="1">  1        2 0.64204595E-01 0.51604453E+03</pdfrwt>
<pdfrwt beam="2">  1       -2 0.21161779E-01 0.51604453E+03</pdfrwt>
<totfact> 0.14616888E+03</totfact>
</mgrwt>
</event>
<event>
 4    1  0.2209668E-005  0.6231533E+03  0.7818608E-02  0.9858501E-01
         -2   -1    0    0    0  501 -0.00000000000E+00  0.00000000000E+00  0.66393949178E+02  0.66393949227E+02  0.25500000000E-02 0. -1.
          2   -1    0    0  501    0  0.00000000000E+00 -0.00000000000E+00 -0.14621816401E+04  0.14621816401E+04  0.25500000000E-02 0.  1.
    5000001    1    1    2    0    0  0.18514606377E+03 -0.95159449803E+01 -0.11036833487E+04  0.11348262212E+04  0.18800000000E+03 0.  0.
   -5000001    1    1    2    0    0 -0.18514606377E+03  0.95159449803E+01 -0.29210434216E+03  0.39374936806E+03  0.18800000000E+03 0.  0.
<mgrwt>
<rscale>  0 0.62315332E+03</rscale>
<asrwt>0</asrwt>
<pdfrwt beam="1">  1        2 0.20888307E+00 0.62315332E+03</pdfrwt>
<pdfrwt beam="2">  1       -2 0.94848508E-02 0.62315332E+03</pdfrwt>
<totfact> 0.11606543E+03</totfact>
</mgrwt>
</event>
<event>
 4    1  0.2209668E-005  0.3947180E+03  0.7818608E-02  0.1045624E+00
         -2   -1    0    0    0  501 -0.00000000000E+00  0.00000000000E+00  0.48710255367E+02  0.48710255434E+02  0.25500000000E-02 0. -1.
          2   -1    0    0  501    0  0.00000000000E+00 -0.00000000000E+00 -0.79963826407E+03  0.79963826408E+03  0.25500000000E-02 0.  1.
    5000001    1    1    2    0    0 -0.42450257445E+02  0.41307149317E+02 -0.39677079214E+03  0.44303427231E+03  0.18800000000E+03 0.  0.
   -5000001    1    1    2    0    0  0.42450257445E+02 -0.41307149317E+02 -0.35415721657E+03  0.40531424721E+03  0.18800000000E+03 0.  0.
<mgrwt>
<rscale>  0 0.39471805E+03</rscale>
<asrwt>0</asrwt>
<pdfrwt beam="1">  1        2 0.11423403E+00 0.39471805E+03</pdfrwt>
<pdfrwt beam="2">  1       -2 0.69586084E-02 0.39471805E+03</pdfrwt>
<totfact> 0.46164037E+03</totfact>
</mgrwt>
</event>
<event>
 4    1  0.2209668E-005  0.8992440E+03  0.7818608E-02  0.9426527E-01
          2   -1    0    0  501    0  0.00000000000E+00  0.00000000000E+00  0.28679172568E+04  0.28679172568E+04  0.25500000000E-02 0. -1.
         -2   -1    0    0    0  501 -0.00000000000E+00 -0.00000000000E+00 -0.70490159607E+02  0.70490159653E+02  0.25500000000E-02 0.  1.
    5000001    1    1    2    0    0  0.17370386626E+03 -0.30303672725E+03  0.20904329347E+04  0.21277354501E+04  0.18800000000E+03 0.  0.
   -5000001    1    1    2    0    0 -0.17370386626E+03  0.30303672725E+03  0.70699416255E+03  0.81067196639E+03  0.18800000000E+03 0.  0.
<mgrwt>
<rscale>  0 0.89924401E+03</rscale>
<asrwt>0</asrwt>
<pdfrwt beam="1">  1        2 0.40970247E+00 0.89924401E+03</pdfrwt>
<pdfrwt beam="2">  1       -2 0.10070023E-01 0.89924401E+03</pdfrwt>
<totfact> 0.19492861E+02</totfact>
</mgrwt>
</event>
<event>
 4    1  0.2209668E-005  0.5826224E+03  0.7818608E-02  0.9942130E-01
          2   -1    0    0  501    0  0.00000000000E+00  0.00000000000E+00  0.20516457550E+03  0.20516457551E+03  0.25500000000E-02 0.  1.
         -2   -1    0    0    0  501 -0.00000000000E+00 -0.00000000000E+00 -0.41362999019E+03  0.41362999020E+03  0.25500000000E-02 0. -1.
    5000001    1    1    2    0    0 -0.21405053443E+03 -0.49362365342E+02 -0.14199198883E+03  0.32211798971E+03  0.18800000000E+03 0.  0.
   -5000001    1    1    2    0    0  0.21405053443E+03  0.49362365342E+02 -0.66473425867E+02  0.29667657600E+03  0.18800000000E+03 0.  0.
<mgrwt>
<rscale>  0 0.58262242E+03</rscale>
<asrwt>0</asrwt>
<pdfrwt beam="1">  1        2 0.29309225E-01 0.58262242E+03</pdfrwt>
<pdfrwt beam="2">  1       -2 0.59089999E-01 0.58262242E+03</pdfrwt>
<totfact> 0.49287447E+02</totfact>
</mgrwt>
</event>
<event>
 4    1  0.2209668E-005  0.6176428E+03  0.7818608E-02  0.9869464E-01
          2   -1    0    0  501    0  0.00000000000E+00  0.00000000000E+00  0.13750495899E+03  0.13750495901E+03  0.25500000000E-02 0.  1.
         -2   -1    0    0    0  501 -0.00000000000E+00 -0.00000000000E+00 -0.69357971840E+03  0.69357971840E+03  0.25500000000E-02 0. -1.
    5000001    1    1    2    0    0 -0.22215213989E+03  0.89824252306E+01 -0.41653616264E+03  0.50821120807E+03  0.18800000000E+03 0.  0.
   -5000001    1    1    2    0    0  0.22215213989E+03 -0.89824252306E+01 -0.13953859677E+03  0.32287346935E+03  0.18800000000E+03 0.  0.
<mgrwt>
<rscale>  0 0.61764278E+03</rscale>
<asrwt>0</asrwt>
<pdfrwt beam="1">  1        2 0.19643566E-01 0.61764278E+03</pdfrwt>
<pdfrwt beam="2">  1       -2 0.99082815E-01 0.61764278E+03</pdfrwt>
<totfact> 0.24781923E+02</totfact>
</mgrwt>
</event>
<event>
 4    1  0.2209668E-005  0.8395899E+03  0.7818608E-02  0.9504417E-01
         -2   -1    0    0    0  501 -0.00000000000E+00  0.00000000000E+00  0.10573533061E+03  0.10573533065E+03  0.25500000000E-02 0. -1.
          2   -1    0    0  501    0  0.00000000000E+00 -0.00000000000E+00 -0.16666878722E+04  0.16666878722E+04  0.25500000000E-02 0.  1.
    5000001    1    1    2    0    0 -0.27068048778E+03  0.77811323097E+02 -0.25669013778E+03  0.42491923386E+03  0.18800000000E+03 0.  0.
   -5000001    1    1    2    0    0  0.27068048778E+03 -0.77811323097E+02 -0.13042624038E+04  0.13475039690E+04  0.18800000000E+03 0.  0.
<mgrwt>
<rscale>  0 0.83958988E+03</rscale>
<asrwt>0</asrwt>
<pdfrwt beam="1">  1        2 0.23809825E+00 0.83958988E+03</pdfrwt>
<pdfrwt beam="2">  1       -2 0.15105048E-01 0.83958988E+03</pdfrwt>
<totfact> 0.41657657E+02</totfact>
</mgrwt>
</event>
<event>
 4    1  0.2209668E-005  0.6653664E+03  0.7818608E-02  0.9778365E-01
          2   -1    0    0  501    0  0.00000000000E+00  0.00000000000E+00  0.15317973666E+04  0.15317973666E+04  0.25500000000E-02 0.  1.
         -2   -1    0    0    0  501 -0.00000000000E+00 -0.00000000000E+00 -0.72253759918E+02  0.72253759963E+02  0.25500000000E-02 0. -1.
    5000001    1    1    2    0    0  0.13854911574E+03 -0.18005443539E+03  0.35849106493E+03  0.46419317187E+03  0.18800000000E+03 0.  0.
   -5000001    1    1    2    0    0 -0.13854911574E+03  0.18005443539E+03  0.11010525417E+04  0.11398579547E+04  0.18800000000E+03 0.  0.
<mgrwt>
<rscale>  0 0.66536642E+03</rscale>
<asrwt>0</asrwt>
<pdfrwt beam="1">  1        2 0.21882818E+00 0.66536642E+03</pdfrwt>
<pdfrwt beam="2">  1       -2 0.10321966E-01 0.66536642E+03</pdfrwt>
<totfact> 0.92892536E+02</totfact>
</mgrwt>
</event>
<event>
 4    1  0.2209668E-005  0.5260763E+03  0.7818608E-02  0.1007188E+00
          2   -1    0    0  501    0  0.00000000000E+00  0.00000000000E+00  0.21190169711E+03  0.21190169713E+03  0.25500000000E-02 0.  1.
         -2   -1    0    0    0  501 -0.00000000000E+00 -0.00000000000E+00 -0.32651488690E+03  0.32651488691E+03  0.25500000000E-02 0. -1.
    5000001    1    1    2    0    0 -0.20396908522E+02  0.12382191938E+03 -0.19498787640E+03  0.29851662188E+03  0.18800000000E+03 0.  0.
   -5000001    1    1    2    0    0  0.20396908522E+02 -0.12382191938E+03  0.80374686609E+02  0.23989996216E+03  0.18800000000E+03 0.  0.
<mgrwt>
<rscale>  0 0.52607626E+03</rscale>
<asrwt>0</asrwt>
<pdfrwt beam="1">  1        2 0.30271671E-01 0.52607626E+03</pdfrwt>
<pdfrwt beam="2">  1       -2 0.46644984E-01 0.52607626E+03</pdfrwt>
<totfact> 0.77114486E+02</totfact>
</mgrwt>
</event>
<event>
 4    1  0.2209668E-005  0.7478665E+03  0.7818608E-02  0.9638703E-01
          2   -1    0    0  501    0  0.00000000000E+00  0.00000000000E+00  0.10653820901E+03  0.10653820904E+03  0.25500000000E-02 0.  1.
         -2   -1    0    0    0  501 -0.00000000000E+00 -0.00000000000E+00 -0.13124499839E+04  0.13124499839E+04  0.25500000000E-02 0. -1.
    5000001    1    1    2    0    0 -0.32134710012E+03  0.73404033242E+01 -0.53821566503E+03  0.65447531837E+03  0.18800000000E+03 0.  0.
   -5000001    1    1    2    0    0  0.32134710012E+03 -0.73404033242E+01 -0.66769610988E+03  0.76451287460E+03  0.18800000000E+03 0.  0.
<mgrwt>
<rscale>  0 0.74786649E+03</rscale>
<asrwt>0</asrwt>
<pdfrwt beam="1">  1        2 0.15219745E-01 0.74786649E+03</pdfrwt>
<pdfrwt beam="2">  1       -2 0.18749285E+00 0.74786649E+03</pdfrwt>
<totfact> 0.64488528E+01</totfact>
</mgrwt>
</event>
<event>
 4    1  0.2209668E-005  0.4703189E+03  0.7818608E-02  0.1021830E+00
          2   -1    0    0  501    0  0.00000000000E+00  0.00000000000E+00  0.10736810655E+03  0.10736810658E+03  0.25500000000E-02 0.  1.
         -2   -1    0    0    0  501 -0.00000000000E+00 -0.00000000000E+00 -0.51505020413E+03  0.51505020414E+03  0.25500000000E-02 0. -1.
    5000001    1    1    2    0    0  0.37349466581E+02  0.94551468911E+02 -0.74033456501E+02  0.22618557781E+03  0.18800000000E+03 0.  0.
   -5000001    1    1    2    0    0 -0.37349466581E+02 -0.94551468911E+02 -0.33364864109E+03  0.39623273291E+03  0.18800000000E+03 0.  0.
<mgrwt>
<rscale>  0 0.47031889E+03</rscale>
<asrwt>0</asrwt>
<pdfrwt beam="1">  1        2 0.15338301E-01 0.47031889E+03</pdfrwt>
<pdfrwt beam="2">  1       -2 0.73578599E-01 0.47031889E+03</pdfrwt>
<totfact> 0.65426899E+02</totfact>
</mgrwt>
</event>
<event>
 4    1  0.2209668E-005  0.5346402E+03  0.7818608E-02  0.1005113E+00
         -2   -1    0    0    0  501 -0.00000000000E+00  0.00000000000E+00  0.18028325129E+03  0.18028325130E+03  0.25500000000E-02 0. -1.
          2   -1    0    0  501    0  0.00000000000E+00 -0.00000000000E+00 -0.39637639351E+03  0.39637639351E+03  0.25500000000E-02 0.  1.
    5000001    1    1    2    0    0  0.16862695261E+03  0.74225539365E+02 -0.57784264898E+02  0.26949489997E+03  0.18800000000E+03 0.  0.
   -5000001    1    1    2    0    0 -0.16862695261E+03 -0.74225539365E+02 -0.15830887732E+03  0.30716474485E+03  0.18800000000E+03 0.  0.
<mgrwt>
<rscale>  0 0.53464016E+03</rscale>
<asrwt>0</asrwt>
<pdfrwt beam="1">  1        2 0.56625199E-01 0.53464016E+03</pdfrwt>
<pdfrwt beam="2">  1       -2 0.25754750E-01 0.53464016E+03</pdfrwt>
<totfact> 0.11863426E+03</totfact>
</mgrwt>
</event>
<event>
 4    1  0.2209668E-005  0.6910102E+03  0.7818608E-02  0.9732731E-01
         -2   -1    0    0    0  501 -0.00000000000E+00  0.00000000000E+00  0.25529155468E+03  0.25529155469E+03  0.25500000000E-02 0. -1.
          2   -1    0    0  501    0  0.00000000000E+00 -0.00000000000E+00 -0.46759779779E+03  0.46759779779E+03  0.25500000000E-02 0.  1.
    5000001    1    1    2    0    0 -0.22322612403E+03 -0.12108366577E+03 -0.25238236610E+03  0.40439091889E+03  0.18800000000E+03 0.  0.
   -5000001    1    1    2    0    0  0.22322612403E+03  0.12108366577E+03  0.40076122989E+02  0.31849843359E+03  0.18800000000E+03 0.  0.
<mgrwt>
<rscale>  0 0.69101018E+03</rscale>
<asrwt>0</asrwt>
<pdfrwt beam="1">  1        2 0.66799685E-01 0.69101018E+03</pdfrwt>
<pdfrwt beam="2">  1       -2 0.36470222E-01 0.69101018E+03</pdfrwt>
<totfact> 0.51612831E+02</totfact>
</mgrwt>
</event>
<event>
 4    1  0.2209668E-005  0.8236776E+03  0.7818608E-02  0.9526363E-01
          2   -1    0    0  501    0  0.00000000000E+00  0.00000000000E+00  0.50441459188E+03  0.50441459188E+03  0.25500000000E-02 0.  1.
         -2   -1    0    0    0  501 -0.00000000000E+00 -0.00000000000E+00 -0.33625355391E+03  0.33625355392E+03  0.25500000000E-02 0. -1.
    5000001    1    1    2    0    0 -0.22252680782E+03  0.23831029276E+03 -0.86572647710E+02  0.38619787566E+03  0.18800000000E+03 0.  0.
   -5000001    1    1    2    0    0  0.22252680782E+03 -0.23831029276E+03  0.25473368567E+03  0.45447027015E+03  0.18800000000E+03 0.  0.
<mgrwt>
<rscale>  0 0.82367760E+03</rscale>
<asrwt>0</asrwt>
<pdfrwt beam="1">  1        2 0.72059227E-01 0.82367760E+03</pdfrwt>
<pdfrwt beam="2">  1       -2 0.48036222E-01 0.82367760E+03</pdfrwt>
<totfact> 0.27435839E+02</totfact>
</mgrwt>
</event>
<event>
 4    1  0.2209668E-005  0.5531933E+03  0.7818608E-02  0.1000757E+00
          2   -1    0    0  501    0  0.00000000000E+00  0.00000000000E+00  0.85277153830E+03  0.85277153830E+03  0.25500000000E-02 0.  1.
         -2   -1    0    0    0  501 -0.00000000000E+00 -0.00000000000E+00 -0.89714203481E+02  0.89714203517E+02  0.25500000000E-02 0. -1.
    5000001    1    1    2    0    0 -0.14095532233E+03  0.12228136442E+03  0.24586533400E+03  0.36140683093E+03  0.18800000000E+03 0.  0.
   -5000001    1    1    2    0    0  0.14095532233E+03 -0.12228136442E+03  0.51719200082E+03  0.58107891089E+03  0.18800000000E+03 0.  0.
<mgrwt>
<rscale>  0 0.55319335E+03</rscale>
<asrwt>0</asrwt>
<pdfrwt beam="1">  1        2 0.12182450E+00 0.55319335E+03</pdfrwt>
<pdfrwt beam="2">  1       -2 0.12816315E-01 0.55319335E+03</pdfrwt>
<totfact> 0.15977448E+03</totfact>
</mgrwt>
</event>
<event>
 4    1  0.2209668E-005  0.4869358E+03  0.7818608E-02  0.1017246E+00
          2   -1    0    0  501    0  0.00000000000E+00  0.00000000000E+00  0.48195165002E+03  0.48195165002E+03  0.25500000000E-02 0.  1.
         -2   -1    0    0    0  501 -0.00000000000E+00 -0.00000000000E+00 -0.12299288509E+03  0.12299288511E+03  0.25500000000E-02 0. -1.
    5000001    1    1    2    0    0 -0.72958116235E+02 -0.13610618964E+02  0.10846777535E+02  0.20240995098E+03  0.18800000000E+03 0.  0.
   -5000001    1    1    2    0    0  0.72958116235E+02  0.13610618964E+02  0.34811198740E+03  0.40253458416E+03  0.18800000000E+03 0.  0.
<mgrwt>
<rscale>  0 0.48693582E+03</rscale>
<asrwt>0</asrwt>
<pdfrwt beam="1">  1        2 0.68850236E-01 0.48693582E+03</pdfrwt>
<pdfrwt beam="2">  1       -2 0.17570412E-01 0.48693582E+03</pdfrwt>
<totfact> 0.18631688E+03</totfact>
</mgrwt>
</event>
<event>
 4    1  0.2209668E-005  0.5915842E+03  0.7818608E-02  0.9923022E-01
          2   -1    0    0  501    0  0.00000000000E+00  0.00000000000E+00  0.12178664109E+04  0.12178664109E+04  0.25500000000E-02 0.  1.
         -2   -1    0    0    0  501 -0.00000000000E+00 -0.00000000000E+00 -0.71841193814E+02  0.71841193860E+02  0.25500000000E-02 0. -1.
    5000001    1    1    2    0    0  0.19216437672E+03  0.23831062170E+02  0.30910529626E+03  0.41034759824E+03  0.18800000000E+03 0.  0.
   -5000001    1    1    2    0    0 -0.19216437672E+03 -0.23831062170E+02  0.83691992084E+03  0.87936000654E+03  0.18800000000E+03 0.  0.
<mgrwt>
<rscale>  0 0.59158424E+03</rscale>
<asrwt>0</asrwt>
<pdfrwt beam="1">  1        2 0.17398093E+00 0.59158424E+03</pdfrwt>
<pdfrwt beam="2">  1       -2 0.10263027E-01 0.59158424E+03</pdfrwt>
<totfact> 0.13850578E+03</totfact>
</mgrwt>
</event>
<event>
 4    1  0.2209668E-005  0.6928839E+03  0.7818608E-02  0.9729480E-01
          2   -1    0    0  501    0  0.00000000000E+00  0.00000000000E+00  0.80482628379E+03  0.80482628380E+03  0.25500000000E-02 0.  1.
         -2   -1    0    0    0  501 -0.00000000000E+00 -0.00000000000E+00 -0.14912784643E+03  0.14912784645E+03  0.25500000000E-02 0. -1.
    5000001    1    1    2    0    0 -0.27868905065E+03  0.42886397145E+02  0.22884313199E+03  0.40892543216E+03  0.18800000000E+03 0.  0.
   -5000001    1    1    2    0    0  0.27868905065E+03 -0.42886397145E+02  0.42685530537E+03  0.54502869809E+03  0.18800000000E+03 0.  0.
<mgrwt>
<rscale>  0 0.69288386E+03</rscale>
<asrwt>0</asrwt>
<pdfrwt beam="1">  1        2 0.11497518E+00 0.69288386E+03</pdfrwt>
<pdfrwt beam="2">  1       -2 0.21303978E-01 0.69288386E+03</pdfrwt>
<totfact> 0.72241501E+02</totfact>
</mgrwt>
</event>
<event>
 4    1  0.2209668E-005  0.4686726E+03  0.7818608E-02  0.1022296E+00
         -2   -1    0    0    0  501 -0.00000000000E+00  0.00000000000E+00  0.30696004087E+02  0.30696004193E+02  0.25500000000E-02 0.  1.
          2   -1    0    0  501    0  0.00000000000E+00 -0.00000000000E+00 -0.17889459426E+04  0.17889459426E+04  0.25500000000E-02 0. -1.
    5000001    1    1    2    0    0 -0.12324794276E+03  0.40115680200E+02 -0.10834725664E+04  0.11072741871E+04  0.18800000000E+03 0.  0.
   -5000001    1    1    2    0    0  0.12324794276E+03 -0.40115680200E+02 -0.67477737213E+03  0.71236775975E+03  0.18800000000E+03 0.  0.
<mgrwt>
<rscale>  0 0.46867256E+03</rscale>
<asrwt>0</asrwt>
<pdfrwt beam="1">  1        2 0.25556364E+00 0.46867256E+03</pdfrwt>
<pdfrwt beam="2">  1       -2 0.43851446E-02 0.46867256E+03</pdfrwt>
<totfact> 0.26670202E+03</totfact>
</mgrwt>
</event>
<event>
 4    1  0.2209668E-005  0.4945806E+03  0.7818608E-02  0.1015203E+00
          2   -1    0    0  501    0  0.00000000000E+00  0.00000000000E+00  0.16548055365E+04  0.16548055365E+04  0.25500000000E-02 0.  1.
         -2   -1    0    0    0  501 -0.00000000000E+00 -0.00000000000E+00 -0.36954487540E+02  0.36954487628E+02  0.25500000000E-02 0. -1.
    5000001    1    1    2    0    0 -0.11487121885E+03 -0.24452377486E+02  0.11838698089E+04  0.12044438717E+04  0.18800000000E+03 0.  0.
   -5000001    1    1    2    0    0  0.11487121885E+03  0.24452377486E+02  0.43398124008E+03  0.48731615244E+03  0.18800000000E+03 0.  0.
<mgrwt>
<rscale>  0 0.49458059E+03</rscale>
<asrwt>0</asrwt>
<pdfrwt beam="1">  1        2 0.23640087E+00 0.49458059E+03</pdfrwt>
<pdfrwt beam="2">  1       -2 0.52792109E-02 0.49458059E+03</pdfrwt>
<totfact> 0.23396385E+03</totfact>
</mgrwt>
</event>
<event>
 4    1  0.2209668E-005  0.5955568E+03  0.7818608E-02  0.9914667E-01
         -2   -1    0    0    0  501 -0.00000000000E+00  0.00000000000E+00  0.34134597329E+03  0.34134597330E+03  0.25500000000E-02 0. -1.
          2   -1    0    0  501    0  0.00000000000E+00 -0.00000000000E+00 -0.25977155952E+03  0.25977155953E+03  0.25500000000E-02 0.  1.
    5000001    1    1    2    0    0 -0.20146618251E+02 -0.22954945174E+03  0.56065875918E+02  0.30263215207E+03  0.18800000000E+03 0.  0.
   -5000001    1    1    2    0    0  0.20146618251E+02  0.22954945174E+03  0.25508537853E+02  0.29848538076E+03  0.18800000000E+03 0.  0.
<mgrwt>
<rscale>  0 0.59555680E+03</rscale>
<asrwt>0</asrwt>
<pdfrwt beam="1">  1        2 0.37110223E-01 0.59555680E+03</pdfrwt>
<pdfrwt beam="2">  1       -2 0.48763710E-01 0.59555680E+03</pdfrwt>
<totfact> 0.56188875E+02</totfact>
</mgrwt>
</event>
<event>
 4    1  0.2209668E-005  0.6220905E+03  0.7818608E-02  0.9860606E-01
          2   -1    0    0  501    0  0.00000000000E+00  0.00000000000E+00  0.19250128095E+04  0.19250128095E+04  0.25500000000E-02 0.  1.
         -2   -1    0    0    0  501 -0.00000000000E+00 -0.00000000000E+00 -0.50258956182E+02  0.50258956247E+02  0.25500000000E-02 0. -1.
    5000001    1    1    2    0    0  0.20485517346E+03  0.64067776773E+02  0.13305760579E+04  0.13608258405E+04  0.18800000000E+03 0.  0.
   -5000001    1    1    2    0    0 -0.20485517346E+03 -0.64067776773E+02  0.54417779535E+03  0.61444592526E+03  0.18800000000E+03 0.  0.
<mgrwt>
<rscale>  0 0.62209046E+03</rscale>
<asrwt>0</asrwt>
<pdfrwt beam="1">  1        2 0.27500184E+00 0.62209046E+03</pdfrwt>
<pdfrwt beam="2">  1       -2 0.71798506E-02 0.62209046E+03</pdfrwt>
<totfact> 0.10507198E+03</totfact>
</mgrwt>
</event>
<event>
 4    1  0.2209668E-005  0.7546186E+03  0.7818608E-02  0.9628132E-01
          2   -1    0    0  501    0  0.00000000000E+00  0.00000000000E+00  0.29213650708E+04  0.29213650708E+04  0.25500000000E-02 0.  1.
         -2   -1    0    0    0  501 -0.00000000000E+00 -0.00000000000E+00 -0.48731431003E+02  0.48731431070E+02  0.25500000000E-02 0. -1.
    5000001    1    1    2    0    0  0.15564109375E+03 -0.25748620511E+03  0.93081900057E+03  0.99613819710E+03  0.18800000000E+03 0.  0.
   -5000001    1    1    2    0    0 -0.15564109375E+03  0.25748620511E+03  0.19418146393E+04  0.19739583048E+04  0.18800000000E+03 0.  0.
<mgrwt>
<rscale>  0 0.75461858E+03</rscale>
<asrwt>0</asrwt>
<pdfrwt beam="1">  1        2 0.41733789E+00 0.75461858E+03</pdfrwt>
<pdfrwt beam="2">  1       -2 0.69616327E-02 0.75461858E+03</pdfrwt>
<totfact> 0.33473058E+02</totfact>
</mgrwt>
</event>
<event>
 4    1  0.2209668E-005  0.6103749E+03  0.7818608E-02  0.9884112E-01
          2   -1    0    0  501    0  0.00000000000E+00  0.00000000000E+00  0.23203524603E+04  0.23203524603E+04  0.25500000000E-02 0.  1.
         -2   -1    0    0    0  501 -0.00000000000E+00 -0.00000000000E+00 -0.40140180655E+02  0.40140180736E+02  0.25500000000E-02 0. -1.
    5000001    1    1    2    0    0 -0.11396610230E+03  0.21167430440E+03  0.11360807782E+04  0.11763578614E+04  0.18800000000E+03 0.  0.
   -5000001    1    1    2    0    0  0.11396610230E+03 -0.21167430440E+03  0.11441315014E+04  0.11841347796E+04  0.18800000000E+03 0.  0.
<mgrwt>
<rscale>  0 0.61037486E+03</rscale>
<asrwt>0</asrwt>
<pdfrwt beam="1">  1        2 0.33147895E+00 0.61037486E+03</pdfrwt>
<pdfrwt beam="2">  1       -2 0.57343110E-02 0.61037486E+03</pdfrwt>
<totfact> 0.94670075E+02</totfact>
</mgrwt>
</event>
<event>
 4    1  0.2209668E-005  0.5187966E+03  0.7818608E-02  0.1008986E+00
         -2   -1    0    0    0  501 -0.00000000000E+00  0.00000000000E+00  0.51117395977E+02  0.51117396041E+02  0.25500000000E-02 0. -1.
          2   -1    0    0  501    0  0.00000000000E+00 -0.00000000000E+00 -0.13163323873E+04  0.13163323873E+04  0.25500000000E-02 0.  1.
    5000001    1    1    2    0    0 -0.75174768311E+02  0.15478951480E+03 -0.50530999352E+03  0.56594454607E+03  0.18800000000E+03 0.  0.
   -5000001    1    1    2    0    0  0.75174768311E+02 -0.15478951480E+03 -0.75990499782E+03  0.80150523728E+03  0.18800000000E+03 0.  0.
<mgrwt>
<rscale>  0 0.51879662E+03</rscale>
<asrwt>0</asrwt>
<pdfrwt beam="1">  1        2 0.18804746E+00 0.51879662E+03</pdfrwt>
<pdfrwt beam="2">  1       -2 0.73024860E-02 0.51879662E+03</pdfrwt>
<totfact> 0.21125937E+03</totfact>
</mgrwt>
</event>
<event>
 4    1  0.2209668E-005  0.8133018E+03  0.7818608E-02  0.9540960E-01
          2   -1    0    0  501    0  0.00000000000E+00  0.00000000000E+00  0.27517549236E+04  0.27517549236E+04  0.25500000000E-02 0.  1.
         -2   -1    0    0    0  501 -0.00000000000E+00 -0.00000000000E+00 -0.60094354063E+02  0.60094354118E+02  0.25500000000E-02 0. -1.
    5000001    1    1    2    0    0 -0.35593273699E+03  0.36744181959E+02  0.11918846553E+04  0.12585592078E+04  0.18800000000E+03 0.  0.
   -5000001    1    1    2    0    0  0.35593273699E+03 -0.36744181959E+02  0.14997759143E+04  0.15532900699E+04  0.18800000000E+03 0.  0.
<mgrwt>
<rscale>  0 0.81330175E+03</rscale>
<asrwt>0</asrwt>
<pdfrwt beam="1">  1        2 0.39310800E+00 0.81330175E+03</pdfrwt>
<pdfrwt beam="2">  1       -2 0.85849044E-02 0.81330175E+03</pdfrwt>
<totfact> 0.29365999E+02</totfact>
</mgrwt>
</event>
<event>
 4    1  0.2209668E-005  0.6566483E+03  0.7818608E-02  0.9794383E-01
         -2   -1    0    0    0  501 -0.00000000000E+00  0.00000000000E+00  0.44773520692E+03  0.44773520693E+03  0.25500000000E-02 0. -1.
          2   -1    0    0  501    0  0.00000000000E+00 -0.00000000000E+00 -0.24076004910E+03  0.24076004911E+03  0.25500000000E-02 0.  1.
    5000001    1    1    2    0    0  0.23093657777E+03  0.11204807023E+03  0.18845016743E+03  0.36978904608E+03  0.18800000000E+03 0.  0.
   -5000001    1    1    2    0    0 -0.23093657777E+03 -0.11204807023E+03  0.18524990391E+02  0.31870620996E+03  0.18800000000E+03 0.  0.
<mgrwt>
<rscale>  0 0.65664831E+03</rscale>
<asrwt>0</asrwt>
<pdfrwt beam="1">  1        2 0.34394293E-01 0.65664831E+03</pdfrwt>
<pdfrwt beam="2">  1       -2 0.63962172E-01 0.65664831E+03</pdfrwt>
<totfact> 0.34792241E+02</totfact>
</mgrwt>
</event>
<event>
 4    1  0.2209668E-005  0.4423546E+03  0.7818608E-02  0.1030027E+00
         -2   -1    0    0    0  501 -0.00000000000E+00  0.00000000000E+00  0.22127759841E+02  0.22127759988E+02  0.25500000000E-02 0. -1.
          2   -1    0    0  501    0  0.00000000000E+00 -0.00000000000E+00 -0.22107700490E+04  0.22107700490E+04  0.25500000000E-02 0.  1.
    5000001    1    1    2    0    0  0.56494561350E+02  0.89879302754E+02 -0.85195187966E+03  0.87888334253E+03  0.18800000000E+03 0.  0.
   -5000001    1    1    2    0    0 -0.56494561350E+02 -0.89879302754E+02 -0.13366904095E+04  0.13540144664E+04  0.18800000000E+03 0.  0.
<mgrwt>
<rscale>  0 0.44235456E+03</rscale>
<asrwt>0</asrwt>
<pdfrwt beam="1">  1        2 0.31582415E+00 0.44235456E+03</pdfrwt>
<pdfrwt beam="2">  1       -2 0.31611100E-02 0.44235456E+03</pdfrwt>
<totfact> 0.27081255E+03</totfact>
</mgrwt>
</event>
<event>
 4    1  0.2209668E-005  0.7578228E+03  0.7818608E-02  0.9623157E-01
         -2   -1    0    0    0  501 -0.00000000000E+00  0.00000000000E+00  0.89427284225E+02  0.89427284262E+02  0.25500000000E-02 0. -1.
          2   -1    0    0  501    0  0.00000000000E+00 -0.00000000000E+00 -0.16054814445E+04  0.16054814445E+04  0.25500000000E-02 0.  1.
    5000001    1    1    2    0    0 -0.31216884493E+03  0.66497490478E+01 -0.52628509055E+03  0.64016685594E+03  0.18800000000E+03 0.  0.
   -5000001    1    1    2    0    0  0.31216884493E+03 -0.66497490478E+01 -0.98976906973E+03  0.10547418728E+04  0.18800000000E+03 0.  0.
<mgrwt>
<rscale>  0 0.75782279E+03</rscale>
<asrwt>0</asrwt>
<pdfrwt beam="1">  1        2 0.22935447E+00 0.75782279E+03</pdfrwt>
<pdfrwt beam="2">  1       -2 0.12775327E-01 0.75782279E+03</pdfrwt>
<totfact> 0.59624095E+02</totfact>
</mgrwt>
</event>
<event>
 4    1  0.2209668E-005  0.6227809E+03  0.7818608E-02  0.9859238E-01
          2   -1    0    0  501    0  0.00000000000E+00  0.00000000000E+00  0.21445688662E+03  0.21445688663E+03  0.25500000000E-02 0.  1.
         -2   -1    0    0    0  501 -0.00000000000E+00 -0.00000000000E+00 -0.45213753988E+03  0.45213753989E+03  0.25500000000E-02 0. -1.
    5000001    1    1    2    0    0 -0.27199361890E+02  0.24669632650E+03 -0.11392062768E+03  0.33154304729E+03  0.18800000000E+03 0.  0.
   -5000001    1    1    2    0    0  0.27199361890E+02 -0.24669632650E+03 -0.12376002558E+03  0.33505137923E+03  0.18800000000E+03 0.  0.
<mgrwt>
<rscale>  0 0.62278089E+03</rscale>
<asrwt>0</asrwt>
<pdfrwt beam="1">  1        2 0.30636698E-01 0.62278089E+03</pdfrwt>
<pdfrwt beam="2">  1       -2 0.64591077E-01 0.62278089E+03</pdfrwt>
<totfact> 0.38814953E+02</totfact>
</mgrwt>
</event>
<event>
 4    1  0.2209668E-005  0.6577350E+03  0.7818608E-02  0.9792372E-01
         -2   -1    0    0    0  501 -0.00000000000E+00  0.00000000000E+00  0.11546085969E+03  0.11546085972E+03  0.25500000000E-02 0. -1.
          2   -1    0    0  501    0  0.00000000000E+00 -0.00000000000E+00 -0.93671411866E+03  0.93671411867E+03  0.25500000000E-02 0.  1.
    5000001    1    1    2    0    0 -0.26933785377E+03  0.82167353665E+01 -0.38803617774E+03  0.50845498272E+03  0.18800000000E+03 0.  0.
   -5000001    1    1    2    0    0  0.26933785377E+03 -0.82167353665E+01 -0.43321708123E+03  0.54371999566E+03  0.18800000000E+03 0.  0.
<mgrwt>
<rscale>  0 0.65773495E+03</rscale>
<asrwt>0</asrwt>
<pdfrwt beam="1">  1        2 0.13381630E+00 0.65773495E+03</pdfrwt>
<pdfrwt beam="2">  1       -2 0.16494409E-01 0.65773495E+03</pdfrwt>
<totfact> 0.92116303E+02</totfact>
</mgrwt>
</event>
<event>
 4    1  0.2209668E-005  0.6310432E+03  0.7818608E-02  0.9843015E-01
         -2   -1    0    0    0  501 -0.00000000000E+00  0.00000000000E+00  0.48974660940E+02  0.48974661007E+02  0.25500000000E-02 0. -1.
          2   -1    0    0  501    0  0.00000000000E+00 -0.00000000000E+00 -0.20327631535E+04  0.20327631535E+04  0.25500000000E-02 0.  1.
    5000001    1    1    2    0    0 -0.24058705389E+03 -0.79504916688E+02 -0.98334001207E+03  0.10327171644E+04  0.18800000000E+03 0.  0.
   -5000001    1    1    2    0    0  0.24058705389E+03  0.79504916688E+02 -0.10004484805E+04  0.10490206501E+04  0.18800000000E+03 0.  0.
<mgrwt>
<rscale>  0 0.63104322E+03</rscale>
<asrwt>0</asrwt>
<pdfrwt beam="1">  1        2 0.29039468E+00 0.63104322E+03</pdfrwt>
<pdfrwt beam="2">  1       -2 0.69963814E-02 0.63104322E+03</pdfrwt>
<totfact> 0.96575667E+02</totfact>
</mgrwt>
</event>
<event>
 4    1  0.2209668E-005  0.1324537E+04  0.7818608E-02  0.9010330E-01
         -2   -1    0    0    0  501 -0.00000000000E+00  0.00000000000E+00  0.36953388550E+03  0.36953388551E+03  0.25500000000E-02 0. -1.
          2   -1    0    0  501    0  0.00000000000E+00 -0.00000000000E+00 -0.11869000607E+04  0.11869000607E+04  0.25500000000E-02 0.  1.
    5000001    1    1    2    0    0 -0.60546378131E+03 -0.17001446739E+03 -0.30513961667E+03  0.72384079414E+03  0.18800000000E+03 0.  0.
   -5000001    1    1    2    0    0  0.60546378131E+03  0.17001446739E+03 -0.51222655848E+03  0.83259315203E+03  0.18800000000E+03 0.  0.
<mgrwt>
<rscale>  0 0.13245373E+04</rscale>
<asrwt>0</asrwt>
<pdfrwt beam="1">  1        2 0.16955715E+00 0.13245373E+04</pdfrwt>
<pdfrwt beam="2">  1       -2 0.52790556E-01 0.13245373E+04</pdfrwt>
<totfact> 0.72060857E+01</totfact>
</mgrwt>
</event>
<event>
 4    1  0.2209668E-005  0.7227471E+03  0.7818608E-02  0.9679103E-01
         -2   -1    0    0    0  501 -0.00000000000E+00  0.00000000000E+00  0.16036306118E+03  0.16036306120E+03  0.25500000000E-02 0. -1.
          2   -1    0    0  501    0  0.00000000000E+00 -0.00000000000E+00 -0.81434496813E+03  0.81434496813E+03  0.25500000000E-02 0.  1.
    5000001    1    1    2    0    0  0.14751511691E+03 -0.15729587847E+03 -0.62473933955E+03  0.68712876921E+03  0.18800000000E+03 0.  0.
   -5000001    1    1    2    0    0 -0.14751511691E+03  0.15729587847E+03 -0.29242567395E+02  0.28757926011E+03  0.18800000000E+03 0.  0.
<mgrwt>
<rscale>  0 0.72274713E+03</rscale>
<asrwt>0</asrwt>
<pdfrwt beam="1">  1        2 0.11633499E+00 0.72274713E+03</pdfrwt>
<pdfrwt beam="2">  1       -2 0.22909009E-01 0.72274713E+03</pdfrwt>
<totfact> 0.62515069E+02</totfact>
</mgrwt>
</event>
<event>
 4    1  0.2209668E-005  0.5535306E+03  0.7818608E-02  0.1000680E+00
          2   -1    0    0  501    0  0.00000000000E+00  0.00000000000E+00  0.42793537934E+03  0.42793537935E+03  0.25500000000E-02 0.  1.
         -2   -1    0    0    0  501 -0.00000000000E+00 -0.00000000000E+00 -0.17899674290E+03  0.17899674292E+03  0.25500000000E-02 0. -1.
    5000001    1    1    2    0    0  0.89344726663E+02  0.16590119452E+03  0.20760891951E+03  0.33756651194E+03  0.18800000000E+03 0.  0.
   -5000001    1    1    2    0    0 -0.89344726663E+02 -0.16590119452E+03  0.41329716934E+02  0.26936561033E+03  0.18800000000E+03 0.  0.
<mgrwt>
<rscale>  0 0.55353063E+03</rscale>
<asrwt>0</asrwt>
<pdfrwt beam="1">  1        2 0.61133625E-01 0.55353063E+03</pdfrwt>
<pdfrwt beam="2">  1       -2 0.25570963E-01 0.55353063E+03</pdfrwt>
<totfact> 0.11036745E+03</totfact>
</mgrwt>
</event>
<event>
 4    1  0.2209668E-005  0.4871485E+03  0.7818608E-02  0.1017189E+00
          2   -1    0    0  501    0  0.00000000000E+00  0.00000000000E+00  0.97346399398E+03  0.97346399398E+03  0.25500000000E-02 0.  1.
         -2   -1    0    0    0  501 -0.00000000000E+00 -0.00000000000E+00 -0.60945678638E+02  0.60945678692E+02  0.25500000000E-02 0. -1.
    5000001    1    1    2    0    0 -0.14877379643E+03  0.39673092399E+02  0.49158848765E+03  0.54837107688E+03  0.18800000000E+03 0.  0.
   -5000001    1    1    2    0    0  0.14877379643E+03 -0.39673092399E+02  0.42092982769E+03  0.48603859579E+03  0.18800000000E+03 0.  0.
<mgrwt>
<rscale>  0 0.48714853E+03</rscale>
<asrwt>0</asrwt>
<pdfrwt beam="1">  1        2 0.13906627E+00 0.48714853E+03</pdfrwt>
<pdfrwt beam="2">  1       -2 0.87065263E-02 0.48714853E+03</pdfrwt>
<totfact> 0.25077891E+03</totfact>
</mgrwt>
</event>
<event>
 4    1  0.2209668E-005  0.4840654E+03  0.7818608E-02  0.1018024E+00
         -2   -1    0    0    0  501 -0.00000000000E+00  0.00000000000E+00  0.18933809228E+02  0.18933809400E+02  0.25500000000E-02 0. -1.
          2   -1    0    0  501    0  0.00000000000E+00 -0.00000000000E+00 -0.30939269156E+04  0.30939269156E+04  0.25500000000E-02 0.  1.
    5000001    1    1    2    0    0  0.83546972934E+02 -0.11692692575E+03 -0.12106177464E+04  0.12335280015E+04  0.18800000000E+03 0.  0.
   -5000001    1    1    2    0    0 -0.83546972934E+02  0.11692692575E+03 -0.18643753600E+04  0.18793327235E+04  0.18800000000E+03 0.  0.
<mgrwt>
<rscale>  0 0.48406538E+03</rscale>
<asrwt>0</asrwt>
<pdfrwt beam="1">  1        2 0.44198924E+00 0.48406538E+03</pdfrwt>
<pdfrwt beam="2">  1       -2 0.27048319E-02 0.48406538E+03</pdfrwt>
<totfact> 0.11901337E+03</totfact>
</mgrwt>
</event>
<event>
 4    1  0.2209668E-005  0.4855020E+03  0.7818608E-02  0.1017634E+00
          2   -1    0    0  501    0  0.00000000000E+00  0.00000000000E+00  0.16005922238E+03  0.16005922240E+03  0.25500000000E-02 0.  1.
         -2   -1    0    0    0  501 -0.00000000000E+00 -0.00000000000E+00 -0.36816400077E+03  0.36816400078E+03  0.25500000000E-02 0. -1.
    5000001    1    1    2    0    0  0.13874598631E+03 -0.70671727463E+01 -0.17526115765E+03  0.29216582112E+03  0.18800000000E+03 0.  0.
   -5000001    1    1    2    0    0 -0.13874598631E+03  0.70671727463E+01 -0.32843620742E+02  0.23605740207E+03  0.18800000000E+03 0.  0.
<mgrwt>
<rscale>  0 0.48550198E+03</rscale>
<asrwt>0</asrwt>
<pdfrwt beam="1">  1        2 0.22865603E-01 0.48550198E+03</pdfrwt>
<pdfrwt beam="2">  1       -2 0.52594857E-01 0.48550198E+03</pdfrwt>
<totfact> 0.83191983E+02</totfact>
</mgrwt>
</event>
<event>
 4    1  0.2209668E-005  0.5443598E+03  0.7818608E-02  0.1002808E+00
          2   -1    0    0  501    0  0.00000000000E+00  0.00000000000E+00  0.14467186160E+04  0.14467186160E+04  0.25500000000E-02 0.  1.
         -2   -1    0    0    0  501 -0.00000000000E+00 -0.00000000000E+00 -0.51206846431E+02  0.51206846494E+02  0.25500000000E-02 0. -1.
    5000001    1    1    2    0    0  0.17208971238E+02  0.18990414074E+03  0.83194747601E+03  0.87397959599E+03  0.18800000000E+03 0.  0.
   -5000001    1    1    2    0    0 -0.17208971238E+02 -0.18990414074E+03  0.56356429355E+03  0.62394586650E+03  0.18800000000E+03 0.  0.
<mgrwt>
<rscale>  0 0.54435980E+03</rscale>
<asrwt>0</asrwt>
<pdfrwt beam="1">  1        2 0.20667412E+00 0.54435980E+03</pdfrwt>
<pdfrwt beam="2">  1       -2 0.73152628E-02 0.54435980E+03</pdfrwt>
<totfact> 0.17953105E+03</totfact>
</mgrwt>
</event>
<event>
 4    1  0.2209668E-005  0.5330981E+03  0.7818608E-02  0.1005484E+00
          2   -1    0    0  501    0  0.00000000000E+00  0.00000000000E+00  0.13387453114E+04  0.13387453114E+04  0.25500000000E-02 0.  1.
         -2   -1    0    0    0  501 -0.00000000000E+00 -0.00000000000E+00 -0.53070877126E+02  0.53070877187E+02  0.25500000000E-02 0. -1.
    5000001    1    1    2    0    0  0.26609878285E+02  0.12277776513E+03  0.10113396839E+04  0.10363080726E+04  0.18800000000E+03 0.  0.
   -5000001    1    1    2    0    0 -0.26609878285E+02 -0.12277776513E+03  0.27433475040E+03  0.35550811595E+03  0.18800000000E+03 0.  0.
<mgrwt>
<rscale>  0 0.53309807E+03</rscale>
<asrwt>0</asrwt>
<pdfrwt beam="1">  1        2 0.19124931E+00 0.53309807E+03</pdfrwt>
<pdfrwt beam="2">  1       -2 0.75815546E-02 0.53309807E+03</pdfrwt>
<totfact> 0.19359507E+03</totfact>
</mgrwt>
</event>
<event>
 4    1  0.2209668E-005  0.5311256E+03  0.7818608E-02  0.1005960E+00
         -2   -1    0    0    0  501 -0.00000000000E+00  0.00000000000E+00  0.43185801676E+02  0.43185801751E+02  0.25500000000E-02 0. -1.
          2   -1    0    0  501    0  0.00000000000E+00 -0.00000000000E+00 -0.16330272333E+04  0.16330272333E+04  0.25500000000E-02 0.  1.
    5000001    1    1    2    0    0 -0.13146982637E+03 -0.83232330560E+02 -0.46440745751E+03  0.52462388689E+03  0.18800000000E+03 0.  0.
   -5000001    1    1    2    0    0  0.13146982637E+03  0.83232330560E+02 -0.11254339741E+04  0.11515891482E+04  0.18800000000E+03 0.  0.
<mgrwt>
<rscale>  0 0.53112556E+03</rscale>
<asrwt>0</asrwt>
<pdfrwt beam="1">  1        2 0.23328957E+00 0.53112556E+03</pdfrwt>
<pdfrwt beam="2">  1       -2 0.61694013E-02 0.53112556E+03</pdfrwt>
<totfact> 0.18813278E+03</totfact>
</mgrwt>
</event>
<event>
 4    1  0.2209668E-005  0.8926177E+03  0.7818608E-02  0.9434857E-01
         -2   -1    0    0    0  501 -0.00000000000E+00  0.00000000000E+00  0.35778087962E+03  0.35778087963E+03  0.25500000000E-02 0. -1.
          2   -1    0    0  501    0  0.00000000000E+00 -0.00000000000E+00 -0.55674188918E+03  0.55674188918E+03  0.25500000000E-02 0.  1.
    5000001    1    1    2    0    0 -0.78715217594E+02  0.36973005670E+03  0.48816879662E+02  0.42499822123E+03  0.18800000000E+03 0.  0.
   -5000001    1    1    2    0    0  0.78715217594E+02 -0.36973005670E+03 -0.24777788922E+03  0.48952454759E+03  0.18800000000E+03 0.  0.
<mgrwt>
<rscale>  0 0.89261773E+03</rscale>
<asrwt>0</asrwt>
<pdfrwt beam="1">  1        2 0.79534555E-01 0.89261773E+03</pdfrwt>
<pdfrwt beam="2">  1       -2 0.51111555E-01 0.89261773E+03</pdfrwt>
<totfact> 0.21510829E+02</totfact>
</mgrwt>
</event>
<event>
 4    1  0.2209668E-005  0.1445142E+04  0.7818608E-02  0.8921775E-01
          2   -1    0    0  501    0  0.00000000000E+00  0.00000000000E+00  0.82561001667E+03  0.82561001667E+03  0.25500000000E-02 0.  1.
         -2   -1    0    0    0  501 -0.00000000000E+00 -0.00000000000E+00 -0.63239156088E+03  0.63239156088E+03  0.25500000000E-02 0. -1.
    5000001    1    1    2    0    0 -0.58912395981E+03 -0.27249324775E+03 -0.16148980570E+03  0.69479678140E+03  0.18800000000E+03 0.  0.
   -5000001    1    1    2    0    0  0.58912395981E+03  0.27249324775E+03  0.35470826149E+03  0.76320479615E+03  0.18800000000E+03 0.  0.
<mgrwt>
<rscale>  0 0.14451419E+04</rscale>
<asrwt>0</asrwt>
<pdfrwt beam="1">  1        2 0.11794429E+00 0.14451419E+04</pdfrwt>
<pdfrwt beam="2">  1       -2 0.90341651E-01 0.14451419E+04</pdfrwt>
<totfact> 0.37152223E+01</totfact>
</mgrwt>
</event>
<event>
 4    1  0.2209668E-005  0.5899585E+03  0.7818608E-02  0.9926461E-01
         -2   -1    0    0    0  501 -0.00000000000E+00  0.00000000000E+00  0.85927131393E+02  0.85927131431E+02  0.25500000000E-02 0. -1.
          2   -1    0    0  501    0  0.00000000000E+00 -0.00000000000E+00 -0.10126343503E+04  0.10126343503E+04  0.25500000000E-02 0.  1.
    5000001    1    1    2    0    0 -0.32206583226E+01 -0.19329652018E+03 -0.24071901374E+03  0.36147414974E+03  0.18800000000E+03 0.  0.
   -5000001    1    1    2    0    0  0.32206583226E+01  0.19329652018E+03 -0.68598820519E+03  0.73708733201E+03  0.18800000000E+03 0.  0.
<mgrwt>
<rscale>  0 0.58995852E+03</rscale>
<asrwt>0</asrwt>
<pdfrwt beam="1">  1        2 0.14466204E+00 0.58995852E+03</pdfrwt>
<pdfrwt beam="2">  1       -2 0.12275305E-01 0.58995852E+03</pdfrwt>
<totfact> 0.13585503E+03</totfact>
</mgrwt>
</event>
<event>
 4    1  0.2209668E-005  0.7549810E+03  0.7818608E-02  0.9627568E-01
          2   -1    0    0  501    0  0.00000000000E+00  0.00000000000E+00  0.10197974018E+04  0.10197974018E+04  0.25500000000E-02 0.  1.
         -2   -1    0    0    0  501 -0.00000000000E+00 -0.00000000000E+00 -0.13973272172E+03  0.13973272175E+03  0.25500000000E-02 0. -1.
    5000001    1    1    2    0    0 -0.11348078433E+03 -0.30698861692E+03  0.44914017532E+03  0.58667776200E+03  0.18800000000E+03 0.  0.
   -5000001    1    1    2    0    0  0.11348078433E+03  0.30698861692E+03  0.43092450471E+03  0.57285236151E+03  0.18800000000E+03 0.  0.
<mgrwt>
<rscale>  0 0.75498097E+03</rscale>
<asrwt>0</asrwt>
<pdfrwt beam="1">  1        2 0.14568534E+00 0.75498097E+03</pdfrwt>
<pdfrwt beam="2">  1       -2 0.19961818E-01 0.75498097E+03</pdfrwt>
<totfact> 0.58675164E+02</totfact>
</mgrwt>
</event>
<event>
 4    1  0.2209668E-005  0.7769628E+03  0.7818608E-02  0.9593974E-01
          2   -1    0    0  501    0  0.00000000000E+00  0.00000000000E+00  0.10109454392E+03  0.10109454395E+03  0.25500000000E-02 0.  1.
         -2   -1    0    0    0  501 -0.00000000000E+00 -0.00000000000E+00 -0.14928383640E+04  0.14928383640E+04  0.25500000000E-02 0. -1.
    5000001    1    1    2    0    0 -0.94664623957E+02 -0.23628328071E+03 -0.23356817753E+03  0.39330557246E+03  0.18800000000E+03 0.  0.
   -5000001    1    1    2    0    0  0.94664623957E+02  0.23628328071E+03 -0.11581756426E+04  0.12006273355E+04  0.18800000000E+03 0.  0.
<mgrwt>
<rscale>  0 0.77696284E+03</rscale>
<asrwt>0</asrwt>
<pdfrwt beam="1">  1        2 0.14442079E-01 0.77696284E+03</pdfrwt>
<pdfrwt beam="2">  1       -2 0.21326261E+00 0.77696284E+03</pdfrwt>
<totfact> 0.46664625E+01</totfact>
</mgrwt>
</event>
<event>
 4    1  0.2209668E-005  0.6636657E+03  0.7818608E-02  0.9781469E-01
          2   -1    0    0  501    0  0.00000000000E+00  0.00000000000E+00  0.33709947979E+03  0.33709947980E+03  0.25500000000E-02 0.  1.
         -2   -1    0    0    0  501 -0.00000000000E+00 -0.00000000000E+00 -0.32664845945E+03  0.32664845946E+03  0.25500000000E-02 0. -1.
    5000001    1    1    2    0    0 -0.10745597822E+03 -0.22461913433E+03  0.11823723232E+03  0.33365339182E+03  0.18800000000E+03 0.  0.
   -5000001    1    1    2    0    0  0.10745597822E+03  0.22461913433E+03 -0.10778621198E+03  0.33009454745E+03  0.18800000000E+03 0.  0.
<mgrwt>
<rscale>  0 0.66366566E+03</rscale>
<asrwt>0</asrwt>
<pdfrwt beam="1">  1        2 0.48157069E-01 0.66366566E+03</pdfrwt>
<pdfrwt beam="2">  1       -2 0.46664065E-01 0.66366566E+03</pdfrwt>
<totfact> 0.45947748E+02</totfact>
</mgrwt>
</event>
<event>
 4    1  0.2209668E-005  0.5841562E+03  0.7818608E-02  0.9938833E-01
          2   -1    0    0  501    0  0.00000000000E+00  0.00000000000E+00  0.16371994773E+04  0.16371994773E+04  0.25500000000E-02 0.  1.
         -2   -1    0    0    0  501 -0.00000000000E+00 -0.00000000000E+00 -0.52107043735E+02  0.52107043798E+02  0.25500000000E-02 0. -1.
    5000001    1    1    2    0    0  0.13113198214E+03 -0.88822086314E+01  0.13154170814E+04  0.13352679838E+04  0.18800000000E+03 0.  0.
   -5000001    1    1    2    0    0 -0.13113198214E+03  0.88822086314E+01  0.26967535216E+03  0.35403853736E+03  0.18800000000E+03 0.  0.
<mgrwt>
<rscale>  0 0.58415623E+03</rscale>
<asrwt>0</asrwt>
<pdfrwt beam="1">  1        2 0.23388570E+00 0.58415623E+03</pdfrwt>
<pdfrwt beam="2">  1       -2 0.74438616E-02 0.58415623E+03</pdfrwt>
<totfact> 0.13902550E+03</totfact>
</mgrwt>
</event>
<event>
 4    1  0.2209668E-005  0.1139266E+04  0.7818608E-02  0.9167743E-01
         -2   -1    0    0    0  501 -0.00000000000E+00  0.00000000000E+00  0.19642630490E+03  0.19642630491E+03  0.25500000000E-02 0. -1.
          2   -1    0    0  501    0  0.00000000000E+00 -0.00000000000E+00 -0.16519267502E+04  0.16519267502E+04  0.25500000000E-02 0.  1.
    5000001    1    1    2    0    0  0.39966233764E+03 -0.28652924789E+03 -0.37486699179E+03  0.64629579571E+03  0.18800000000E+03 0.  0.
   -5000001    1    1    2    0    0 -0.39966233764E+03  0.28652924789E+03 -0.10806334535E+04  0.12020572594E+04  0.18800000000E+03 0.  0.
<mgrwt>
<rscale>  0 0.11392662E+04</rscale>
<asrwt>0</asrwt>
<pdfrwt beam="1">  1        2 0.23598953E+00 0.11392662E+04</pdfrwt>
<pdfrwt beam="2">  1       -2 0.28060902E-01 0.11392662E+04</pdfrwt>
<totfact> 0.13960607E+02</totfact>
</mgrwt>
</event>
<event>
 4    1  0.2209668E-005  0.6569488E+03  0.7818608E-02  0.9793827E-01
         -2   -1    0    0    0  501 -0.00000000000E+00  0.00000000000E+00  0.68383015381E+02  0.68383015428E+02  0.25500000000E-02 0. -1.
          2   -1    0    0  501    0  0.00000000000E+00 -0.00000000000E+00 -0.15778104081E+04  0.15778104081E+04  0.25500000000E-02 0.  1.
    5000001    1    1    2    0    0 -0.12484217808E+03  0.23279462986E+03 -0.88665689778E+03  0.94407804948E+03  0.18800000000E+03 0.  0.
   -5000001    1    1    2    0    0  0.12484217808E+03 -0.23279462986E+03 -0.62277049495E+03  0.70211537407E+03  0.18800000000E+03 0.  0.
<mgrwt>
<rscale>  0 0.65694881E+03</rscale>
<asrwt>0</asrwt>
<pdfrwt beam="1">  1        2 0.22540147E+00 0.65694881E+03</pdfrwt>
<pdfrwt beam="2">  1       -2 0.97690031E-02 0.65694881E+03</pdfrwt>
<totfact> 0.96188069E+02</totfact>
</mgrwt>
</event>
<event>
 4    1  0.2209668E-005  0.6060174E+03  0.7818608E-02  0.9893000E-01
          2   -1    0    0  501    0  0.00000000000E+00  0.00000000000E+00  0.11685337411E+04  0.11685337411E+04  0.25500000000E-02 0. -1.
         -2   -1    0    0    0  501 -0.00000000000E+00 -0.00000000000E+00 -0.78572192553E+02  0.78572192594E+02  0.25500000000E-02 0.  1.
    5000001    1    1    2    0    0  0.21997867069E+03  0.56634230297E+02  0.68862267068E+03  0.74909494337E+03  0.18800000000E+03 0.  0.
   -5000001    1    1    2    0    0 -0.21997867069E+03 -0.56634230297E+02  0.40133887785E+03  0.49801099031E+03  0.18800000000E+03 0.  0.
<mgrwt>
<rscale>  0 0.60601735E+03</rscale>
<asrwt>0</asrwt>
<pdfrwt beam="1">  1        2 0.16693339E+00 0.60601735E+03</pdfrwt>
<pdfrwt beam="2">  1       -2 0.11224599E-01 0.60601735E+03</pdfrwt>
<totfact> 0.12752871E+03</totfact>
</mgrwt>
</event>
<event>
 4    1  0.2209668E-005  0.8602527E+03  0.7818608E-02  0.9476679E-01
          2   -1    0    0  501    0  0.00000000000E+00  0.00000000000E+00  0.24266061609E+04  0.24266061609E+04  0.25500000000E-02 0.  1.
         -2   -1    0    0    0  501 -0.00000000000E+00 -0.00000000000E+00 -0.76241736700E+02  0.76241736743E+02  0.25500000000E-02 0. -1.
    5000001    1    1    2    0    0 -0.72449872204E+00  0.33197275180E+03  0.59724953288E+03  0.70870123279E+03  0.18800000000E+03 0.  0.
   -5000001    1    1    2    0    0  0.72449872204E+00 -0.33197275180E+03  0.17531148913E+04  0.17941466648E+04  0.18800000000E+03 0.  0.
<mgrwt>
<rscale>  0 0.86025268E+03</rscale>
<asrwt>0</asrwt>
<pdfrwt beam="1">  1        2 0.34665796E+00 0.86025268E+03</pdfrwt>
<pdfrwt beam="2">  1       -2 0.10891679E-01 0.86025268E+03</pdfrwt>
<totfact> 0.29378455E+02</totfact>
</mgrwt>
</event>
<event>
 4    1  0.2209668E-005  0.4302558E+03  0.7818608E-02  0.1033779E+00
          2   -1    0    0  501    0  0.00000000000E+00  0.00000000000E+00  0.52601968267E+03  0.52601968268E+03  0.25500000000E-02 0.  1.
         -2   -1    0    0    0  501 -0.00000000000E+00 -0.00000000000E+00 -0.87981511886E+02  0.87981511923E+02  0.25500000000E-02 0. -1.
    5000001    1    1    2    0    0  0.19306155157E+02 -0.98817995634E+02  0.25933912750E+03  0.33576555353E+03  0.18800000000E+03 0.  0.
   -5000001    1    1    2    0    0 -0.19306155157E+02  0.98817995634E+02  0.17869904329E+03  0.27823564107E+03  0.18800000000E+03 0.  0.
<mgrwt>
<rscale>  0 0.43025577E+03</rscale>
<asrwt>0</asrwt>
<pdfrwt beam="1">  1        2 0.75145668E-01 0.43025577E+03</pdfrwt>
<pdfrwt beam="2">  1       -2 0.12568788E-01 0.43025577E+03</pdfrwt>
<totfact> 0.29519010E+03</totfact>
</mgrwt>
</event>
<event>
 4    1  0.2209668E-005  0.1124008E+04  0.7818608E-02  0.9182103E-01
          2   -1    0    0  501    0  0.00000000000E+00  0.00000000000E+00  0.93598670068E+03  0.93598670068E+03  0.25500000000E-02 0.  1.
         -2   -1    0    0    0  501 -0.00000000000E+00 -0.00000000000E+00 -0.33744992310E+03  0.33744992311E+03  0.25500000000E-02 0. -1.
    5000001    1    1    2    0    0 -0.48229126300E+03  0.18958589340E+03  0.42315328086E+03  0.69494630904E+03  0.18800000000E+03 0.  0.
   -5000001    1    1    2    0    0  0.48229126300E+03 -0.18958589340E+03  0.17538349671E+03  0.57849031476E+03  0.18800000000E+03 0.  0.
<mgrwt>
<rscale>  0 0.11240083E+04</rscale>
<asrwt>0</asrwt>
<pdfrwt beam="1">  1        2 0.13371239E+00 0.11240083E+04</pdfrwt>
<pdfrwt beam="2">  1       -2 0.48207132E-01 0.11240083E+04</pdfrwt>
<totfact> 0.12451320E+02</totfact>
</mgrwt>
</event>
<event>
 4    1  0.2209668E-005  0.5296799E+03  0.7818608E-02  0.1006310E+00
         -2   -1    0    0    0  501 -0.00000000000E+00  0.00000000000E+00  0.29479203501E+02  0.29479203611E+02  0.25500000000E-02 0. -1.
          2   -1    0    0  501    0  0.00000000000E+00 -0.00000000000E+00 -0.23793108862E+04  0.23793108862E+04  0.25500000000E-02 0.  1.
    5000001    1    1    2    0    0 -0.13912700906E+03  0.36691964568E+02 -0.17147942052E+04  0.17310591530E+04  0.18800000000E+03 0.  0.
   -5000001    1    1    2    0    0  0.13912700906E+03 -0.36691964568E+02 -0.63503747744E+03  0.67773093678E+03  0.18800000000E+03 0.  0.
<mgrwt>
<rscale>  0 0.52967987E+03</rscale>
<asrwt>0</asrwt>
<pdfrwt beam="1">  1        2 0.33990143E+00 0.52967987E+03</pdfrwt>
<pdfrwt beam="2">  1       -2 0.42113163E-02 0.52967987E+03</pdfrwt>
<totfact> 0.14330112E+03</totfact>
</mgrwt>
</event>
<event>
 4    1  0.2209668E-005  0.6449687E+03  0.7818608E-02  0.9816266E-01
          2   -1    0    0  501    0  0.00000000000E+00  0.00000000000E+00  0.18434259138E+03  0.18434259140E+03  0.25500000000E-02 0.  1.
         -2   -1    0    0    0  501 -0.00000000000E+00 -0.00000000000E+00 -0.56414608382E+03  0.56414608383E+03  0.25500000000E-02 0. -1.
    5000001    1    1    2    0    0  0.23873018897E+03  0.10068767716E+03 -0.23517686263E+03  0.39721816194E+03  0.18800000000E+03 0.  0.
   -5000001    1    1    2    0    0 -0.23873018897E+03 -0.10068767716E+03 -0.14462662981E+03  0.35127051329E+03  0.18800000000E+03 0.  0.
<mgrwt>
<rscale>  0 0.64496868E+03</rscale>
<asrwt>0</asrwt>
<pdfrwt beam="1">  1        2 0.26334656E-01 0.64496868E+03</pdfrwt>
<pdfrwt beam="2">  1       -2 0.80592297E-01 0.64496868E+03</pdfrwt>
<totfact> 0.28350957E+02</totfact>
</mgrwt>
</event>
<event>
 4    1  0.2209668E-005  0.5052396E+03  0.7818608E-02  0.1012420E+00
          2   -1    0    0  501    0  0.00000000000E+00  0.00000000000E+00  0.40255287739E+03  0.40255287740E+03  0.25500000000E-02 0.  1.
         -2   -1    0    0    0  501 -0.00000000000E+00 -0.00000000000E+00 -0.15853011358E+03  0.15853011360E+03  0.25500000000E-02 0. -1.
    5000001    1    1    2    0    0 -0.14459258160E+03  0.52244351131E+02  0.44781589548E+02  0.24695318917E+03  0.18800000000E+03 0.  0.
   -5000001    1    1    2    0    0  0.14459258160E+03 -0.52244351131E+02  0.19924117426E+03  0.31412980183E+03  0.18800000000E+03 0.  0.
<mgrwt>
<rscale>  0 0.50523956E+03</rscale>
<asrwt>0</asrwt>
<pdfrwt beam="1">  1        2 0.57507555E-01 0.50523956E+03</pdfrwt>
<pdfrwt beam="2">  1       -2 0.22647159E-01 0.50523956E+03</pdfrwt>
<totfact> 0.14663367E+03</totfact>
</mgrwt>
</event>
<event>
 4    1  0.2209668E-005  0.4804821E+03  0.7818608E-02  0.1019003E+00
         -2   -1    0    0    0  501 -0.00000000000E+00  0.00000000000E+00  0.59475101082E+02  0.59475101137E+02  0.25500000000E-02 0. -1.
          2   -1    0    0  501    0  0.00000000000E+00 -0.00000000000E+00 -0.97041870030E+03  0.97041870031E+03  0.25500000000E-02 0.  1.
    5000001    1    1    2    0    0 -0.50306749886E+02 -0.12189058480E+03 -0.60678951129E+03  0.64878778869E+03  0.18800000000E+03 0.  0.
   -5000001    1    1    2    0    0  0.50306749886E+02  0.12189058480E+03 -0.30415408793E+03  0.38110601275E+03  0.18800000000E+03 0.  0.
<mgrwt>
<rscale>  0 0.48048205E+03</rscale>
<asrwt>0</asrwt>
<pdfrwt beam="1">  1        2 0.13863123E+00 0.48048205E+03</pdfrwt>
<pdfrwt beam="2">  1       -2 0.84964436E-02 0.48048205E+03</pdfrwt>
<totfact> 0.26185188E+03</totfact>
</mgrwt>
</event>
<event>
 4    1  0.2209668E-005  0.1022681E+04  0.7818608E-02  0.9284013E-01
         -2   -1    0    0    0  501 -0.00000000000E+00  0.00000000000E+00  0.16097897511E+03  0.16097897513E+03  0.25500000000E-02 0.  1.
          2   -1    0    0  501    0  0.00000000000E+00 -0.00000000000E+00 -0.16242440359E+04  0.16242440359E+04  0.25500000000E-02 0. -1.
    5000001    1    1    2    0    0  0.47162571442E+03 -0.60610050332E+02 -0.73958378246E+03  0.89912878053E+03  0.18800000000E+03 0.  0.
   -5000001    1    1    2    0    0 -0.47162571442E+03  0.60610050332E+02 -0.72368127830E+03  0.88609423047E+03  0.18800000000E+03 0.  0.
<mgrwt>
<rscale>  0 0.10226811E+04</rscale>
<asrwt>0</asrwt>
<pdfrwt beam="1">  1        2 0.23203485E+00 0.10226811E+04</pdfrwt>
<pdfrwt beam="2">  1       -2 0.22996997E-01 0.10226811E+04</pdfrwt>
<totfact> 0.20864686E+02</totfact>
</mgrwt>
</event>
<event>
 4    1  0.2209668E-005  0.7402448E+03  0.7818608E-02  0.9650780E-01
         -2   -1    0    0    0  501 -0.00000000000E+00  0.00000000000E+00  0.13163841235E+03  0.13163841237E+03  0.25500000000E-02 0.  1.
          2   -1    0    0  501    0  0.00000000000E+00 -0.00000000000E+00 -0.10406583031E+04  0.10406583031E+04  0.25500000000E-02 0. -1.
    5000001    1    1    2    0    0  0.17726584731E+03  0.86988442595E+02 -0.58099576824E+02  0.27876465090E+03  0.18800000000E+03 0.  0.
   -5000001    1    1    2    0    0 -0.17726584731E+03 -0.86988442595E+02 -0.85092031397E+03  0.89353206461E+03  0.18800000000E+03 0.  0.
<mgrwt>
<rscale>  0 0.74024484E+03</rscale>
<asrwt>0</asrwt>
<pdfrwt beam="1">  1        2 0.14866547E+00 0.74024484E+03</pdfrwt>
<pdfrwt beam="2">  1       -2 0.18805488E-01 0.74024484E+03</pdfrwt>
<totfact> 0.63272672E+02</totfact>
</mgrwt>
</event>
<event>
 4    1  0.2209668E-005  0.6855606E+03  0.7818608E-02  0.9742249E-01
          2   -1    0    0  501    0  0.00000000000E+00  0.00000000000E+00  0.32719418740E+04  0.32719418740E+04  0.25500000000E-02 0.  1.
         -2   -1    0    0    0  501 -0.00000000000E+00 -0.00000000000E+00 -0.35910884195E+02  0.35910884285E+02  0.25500000000E-02 0. -1.
    5000001    1    1    2    0    0 -0.13723630309E+03  0.13644061024E+03  0.59783768630E+03  0.65589918598E+03  0.18800000000E+03 0.  0.
   -5000001    1    1    2    0    0  0.13723630309E+03 -0.13644061024E+03  0.26381933035E+04  0.26519535723E+04  0.18800000000E+03 0.  0.
<mgrwt>
<rscale>  0 0.68556058E+03</rscale>
<asrwt>0</asrwt>
<pdfrwt beam="1">  1        2 0.46742032E+00 0.68556058E+03</pdfrwt>
<pdfrwt beam="2">  1       -2 0.51301258E-02 0.68556058E+03</pdfrwt>
<totfact> 0.34781117E+02</totfact>
</mgrwt>
</event>
<event>
 4    1  0.2209668E-005  0.6866296E+03  0.7818608E-02  0.9740375E-01
          2   -1    0    0  501    0  0.00000000000E+00  0.00000000000E+00  0.54509820426E+03  0.54509820427E+03  0.25500000000E-02 0.  1.
         -2   -1    0    0    0  501 -0.00000000000E+00 -0.00000000000E+00 -0.21622716077E+03  0.21622716079E+03  0.25500000000E-02 0. -1.
    5000001    1    1    2    0    0  0.14989497409E+03 -0.24048148648E+03  0.11217899876E+03  0.35808934131E+03  0.18800000000E+03 0.  0.
   -5000001    1    1    2    0    0 -0.14989497409E+03  0.24048148648E+03  0.21669204473E+03  0.40323602375E+03  0.18800000000E+03 0.  0.
<mgrwt>
<rscale>  0 0.68662956E+03</rscale>
<asrwt>0</asrwt>
<pdfrwt beam="1">  1        2 0.77871170E-01 0.68662956E+03</pdfrwt>
<pdfrwt beam="2">  1       -2 0.30889595E-01 0.68662956E+03</pdfrwt>
<totfact> 0.59241441E+02</totfact>
</mgrwt>
</event>
<event>
 4    1  0.2209668E-005  0.7374627E+03  0.7818608E-02  0.9655227E-01
         -2   -1    0    0    0  501 -0.00000000000E+00  0.00000000000E+00  0.50185807427E+02  0.50185807491E+02  0.25500000000E-02 0. -1.
          2   -1    0    0  501    0  0.00000000000E+00 -0.00000000000E+00 -0.27091886463E+04  0.27091886463E+04  0.25500000000E-02 0.  1.
    5000001    1    1    2    0    0 -0.25422725519E+03 -0.17716370819E+03 -0.15832862554E+04  0.16242406975E+04  0.18800000000E+03 0.  0.
   -5000001    1    1    2    0    0  0.25422725519E+03  0.17716370819E+03 -0.10757165834E+04  0.11351337563E+04  0.18800000000E+03 0.  0.
<mgrwt>
<rscale>  0 0.73746273E+03</rscale>
<asrwt>0</asrwt>
<pdfrwt beam="1">  1        2 0.38702686E+00 0.73746273E+03</pdfrwt>
<pdfrwt beam="2">  1       -2 0.71694028E-02 0.73746273E+03</pdfrwt>
<totfact> 0.41533724E+02</totfact>
</mgrwt>
</event>
<event>
 4    1  0.2209668E-005  0.6000554E+03  0.7818608E-02  0.9905291E-01
         -2   -1    0    0    0  501 -0.00000000000E+00  0.00000000000E+00  0.55060489334E+03  0.55060489334E+03  0.25500000000E-02 0. -1.
          2   -1    0    0  501    0  0.00000000000E+00 -0.00000000000E+00 -0.16348676088E+03  0.16348676090E+03  0.25500000000E-02 0.  1.
    5000001    1    1    2    0    0  0.29977946878E+01  0.11593354916E+03 -0.48060789257E+02  0.22606064243E+03  0.18800000000E+03 0.  0.
   -5000001    1    1    2    0    0 -0.29977946878E+01 -0.11593354916E+03  0.43517892171E+03  0.48803101182E+03  0.18800000000E+03 0.  0.
<mgrwt>
<rscale>  0 0.60005537E+03</rscale>
<asrwt>0</asrwt>
<pdfrwt beam="1">  1        2 0.23355251E-01 0.60005537E+03</pdfrwt>
<pdfrwt beam="2">  1       -2 0.78657842E-01 0.60005537E+03</pdfrwt>
<totfact> 0.34386019E+02</totfact>
</mgrwt>
</event>
<event>
 4    1  0.2209668E-005  0.1450882E+04  0.7818608E-02  0.8917789E-01
          2   -1    0    0  501    0  0.00000000000E+00  0.00000000000E+00  0.50191865139E+03  0.50191865139E+03  0.25500000000E-02 0.  1.
         -2   -1    0    0    0  501 -0.00000000000E+00 -0.00000000000E+00 -0.10485065589E+04  0.10485065589E+04  0.25500000000E-02 0. -1.
    5000001    1    1    2    0    0  0.42391700343E+03 -0.38648820563E+03 -0.70319106027E+03  0.92676880943E+03  0.18800000000E+03 0.  0.
   -5000001    1    1    2    0    0 -0.42391700343E+03  0.38648820563E+03  0.15660315275E+03  0.62365640087E+03  0.18800000000E+03 0.  0.
<mgrwt>
<rscale>  0 0.14508825E+04</rscale>
<asrwt>0</asrwt>
<pdfrwt beam="1">  1        2 0.71702665E-01 0.14508825E+04</pdfrwt>
<pdfrwt beam="2">  1       -2 0.14978665E+00 0.14508825E+04</pdfrwt>
<totfact> 0.19516278E+01</totfact>
</mgrwt>
</event>
<event>
 4    1  0.2209668E-005  0.7862342E+03  0.7818608E-02  0.9580159E-01
         -2   -1    0    0    0  501 -0.00000000000E+00  0.00000000000E+00  0.34483771391E+03  0.34483771392E+03  0.25500000000E-02 0.  1.
          2   -1    0    0  501    0  0.00000000000E+00 -0.00000000000E+00 -0.44815593593E+03  0.44815593594E+03  0.25500000000E-02 0. -1.
    5000001    1    1    2    0    0  0.17304958810E+03  0.13942357794E+03 -0.31815021691E+03  0.43121764174E+03  0.18800000000E+03 0.  0.
   -5000001    1    1    2    0    0 -0.17304958810E+03 -0.13942357794E+03  0.21483199488E+03  0.36177600812E+03  0.18800000000E+03 0.  0.
<mgrwt>
<rscale>  0 0.78623424E+03</rscale>
<asrwt>0</asrwt>
<pdfrwt beam="1">  1        2 0.64022276E-01 0.78623424E+03</pdfrwt>
<pdfrwt beam="2">  1       -2 0.49262531E-01 0.78623424E+03</pdfrwt>
<totfact> 0.29869962E+02</totfact>
</mgrwt>
</event>
<event>
 4    1  0.2209668E-005  0.5397517E+03  0.7818608E-02  0.1003894E+00
          2   -1    0    0  501    0  0.00000000000E+00  0.00000000000E+00  0.13522500468E+03  0.13522500470E+03  0.25500000000E-02 0.  1.
         -2   -1    0    0    0  501 -0.00000000000E+00 -0.00000000000E+00 -0.53860579900E+03  0.53860579900E+03  0.25500000000E-02 0. -1.
    5000001    1    1    2    0    0 -0.16815227885E+03 -0.81011139666E+02 -0.26596803629E+03  0.37539444583E+03  0.18800000000E+03 0.  0.
   -5000001    1    1    2    0    0  0.16815227885E+03  0.81011139666E+02 -0.13741275803E+03  0.29843635787E+03  0.18800000000E+03 0.  0.
<mgrwt>
<rscale>  0 0.53975169E+03</rscale>
<asrwt>0</asrwt>
<pdfrwt beam="1">  1        2 0.19317858E-01 0.53975169E+03</pdfrwt>
<pdfrwt beam="2">  1       -2 0.76943685E-01 0.53975169E+03</pdfrwt>
<totfact> 0.45067164E+02</totfact>
</mgrwt>
</event>
<event>
 4    1  0.2209668E-005  0.5101606E+03  0.7818608E-02  0.1011160E+00
         -2   -1    0    0    0  501 -0.00000000000E+00  0.00000000000E+00  0.21911898950E+03  0.21911898951E+03  0.25500000000E-02 0. -1.
          2   -1    0    0  501    0  0.00000000000E+00 -0.00000000000E+00 -0.29694355233E+03  0.29694355235E+03  0.25500000000E-02 0.  1.
    5000001    1    1    2    0    0  0.17064161562E+03  0.21505414618E+02 -0.26903665901E+02  0.25622031746E+03  0.18800000000E+03 0.  0.
   -5000001    1    1    2    0    0 -0.17064161562E+03 -0.21505414618E+02 -0.50920896934E+02  0.25984222440E+03  0.18800000000E+03 0.  0.
<mgrwt>
<rscale>  0 0.51016065E+03</rscale>
<asrwt>0</asrwt>
<pdfrwt beam="1">  1        2 0.42420507E-01 0.51016065E+03</pdfrwt>
<pdfrwt beam="2">  1       -2 0.31302713E-01 0.51016065E+03</pdfrwt>
<totfact> 0.11418889E+03</totfact>
</mgrwt>
</event>
<event>
 4    1  0.2209668E-005  0.9488396E+03  0.7818608E-02  0.9366508E-01
         -2   -1    0    0    0  501 -0.00000000000E+00  0.00000000000E+00  0.22016508866E+03  0.22016508867E+03  0.25500000000E-02 0. -1.
          2   -1    0    0  501    0  0.00000000000E+00 -0.00000000000E+00 -0.10222972278E+04  0.10222972278E+04  0.25500000000E-02 0.  1.
    5000001    1    1    2    0    0  0.29582229869E+03  0.26406297241E+03 -0.63709528432E+03  0.77361132819E+03  0.18800000000E+03 0.  0.
   -5000001    1    1    2    0    0 -0.29582229869E+03 -0.26406297241E+03 -0.16503685486E+03  0.46885098833E+03  0.18800000000E+03 0.  0.
<mgrwt>
<rscale>  0 0.94883963E+03</rscale>
<asrwt>0</asrwt>
<pdfrwt beam="1">  1        2 0.14604246E+00 0.94883963E+03</pdfrwt>
<pdfrwt beam="2">  1       -2 0.31452156E-01 0.94883963E+03</pdfrwt>
<totfact> 0.25481784E+02</totfact>
</mgrwt>
</event>
<event>
 4    1  0.2209668E-005  0.4237355E+03  0.7818608E-02  0.1035857E+00
         -2   -1    0    0    0  501 -0.00000000000E+00  0.00000000000E+00  0.59359091269E+02  0.59359091324E+02  0.25500000000E-02 0. -1.
          2   -1    0    0  501    0  0.00000000000E+00 -0.00000000000E+00 -0.75621004669E+03  0.75621004669E+03  0.25500000000E-02 0.  1.
    5000001    1    1    2    0    0  0.77892878559E+02 -0.41340928026E+02 -0.42934513815E+03  0.47692517287E+03  0.18800000000E+03 0.  0.
   -5000001    1    1    2    0    0 -0.77892878559E+02  0.41340928026E+02 -0.26750581727E+03  0.33864396515E+03  0.18800000000E+03 0.  0.
<mgrwt>
<rscale>  0 0.42373549E+03</rscale>
<asrwt>0</asrwt>
<pdfrwt beam="1">  1        2 0.10803000E+00 0.42373549E+03</pdfrwt>
<pdfrwt beam="2">  1       -2 0.84798706E-02 0.42373549E+03</pdfrwt>
<totfact> 0.36287316E+03</totfact>
</mgrwt>
</event>
<event>
 4    1  0.2209668E-005  0.3927555E+03  0.7818608E-02  0.1046317E+00
         -2   -1    0    0    0  501 -0.00000000000E+00  0.00000000000E+00  0.11949237892E+02  0.11949238164E+02  0.25500000000E-02 0. -1.
          2   -1    0    0  501    0  0.00000000000E+00 -0.00000000000E+00 -0.32273379354E+04  0.32273379354E+04  0.25500000000E-02 0.  1.
    5000001    1    1    2    0    0  0.15500229254E+02 -0.46009145712E+02 -0.13653876709E+04  0.13791245740E+04  0.18800000000E+03 0.  0.
   -5000001    1    1    2    0    0 -0.15500229254E+02  0.46009145712E+02 -0.18500010266E+04  0.18601625996E+04  0.18800000000E+03 0.  0.
<mgrwt>
<rscale>  0 0.39275554E+03</rscale>
<asrwt>0</asrwt>
<pdfrwt beam="1">  1        2 0.46104772E+00 0.39275554E+03</pdfrwt>
<pdfrwt beam="2">  1       -2 0.17070361E-02 0.39275554E+03</pdfrwt>
<totfact> 0.20155569E+03</totfact>
</mgrwt>
</event>
<event>
 4    1  0.2209668E-005  0.1086416E+04  0.7818608E-02  0.9218533E-01
          2   -1    0    0  501    0  0.00000000000E+00  0.00000000000E+00  0.49649542298E+03  0.49649542298E+03  0.25500000000E-02 0.  1.
         -2   -1    0    0    0  501 -0.00000000000E+00 -0.00000000000E+00 -0.59431588750E+03  0.59431588751E+03  0.25500000000E-02 0. -1.
    5000001    1    1    2    0    0  0.42778735165E+03 -0.12853167549E+03 -0.29527749394E+03  0.56749908218E+03  0.18800000000E+03 0.  0.
   -5000001    1    1    2    0    0 -0.42778735165E+03  0.12853167549E+03  0.19745702942E+03  0.52331222832E+03  0.18800000000E+03 0.  0.
<mgrwt>
<rscale>  0 0.10864163E+04</rscale>
<asrwt>0</asrwt>
<pdfrwt beam="1">  1        2 0.70927918E-01 0.10864163E+04</pdfrwt>
<pdfrwt beam="2">  1       -2 0.84902269E-01 0.10864163E+04</pdfrwt>
<totfact> 0.81344774E+01</totfact>
</mgrwt>
</event>
<event>
 4    1  0.2209668E-005  0.1402650E+04  0.7818608E-02  0.8951903E-01
         -2   -1    0    0    0  501 -0.00000000000E+00  0.00000000000E+00  0.26809074286E+03  0.26809074287E+03  0.25500000000E-02 0. -1.
          2   -1    0    0  501    0  0.00000000000E+00 -0.00000000000E+00 -0.18346646594E+04  0.18346646594E+04  0.25500000000E-02 0.  1.
    5000001    1    1    2    0    0  0.43450166966E+03 -0.16937135821E+03 -0.15162289007E+04  0.15974268175E+04  0.18800000000E+03 0.  0.
   -5000001    1    1    2    0    0 -0.43450166966E+03  0.16937135821E+03 -0.50345015782E+02  0.50532858472E+03  0.18800000000E+03 0.  0.
<mgrwt>
<rscale>  0 0.14026498E+04</rscale>
<asrwt>0</asrwt>
<pdfrwt beam="1">  1        2 0.26209495E+00 0.14026498E+04</pdfrwt>
<pdfrwt beam="2">  1       -2 0.38298678E-01 0.14026498E+04</pdfrwt>
<totfact> 0.61225469E+01</totfact>
</mgrwt>
</event>
<event>
 4    1  0.2209668E-005  0.4695197E+03  0.7818608E-02  0.1022056E+00
         -2   -1    0    0    0  501 -0.00000000000E+00  0.00000000000E+00  0.11305767239E+03  0.11305767242E+03  0.25500000000E-02 0.  1.
          2   -1    0    0  501    0  0.00000000000E+00 -0.00000000000E+00 -0.48746976570E+03  0.48746976570E+03  0.25500000000E-02 0. -1.
    5000001    1    1    2    0    0 -0.11008170206E+03 -0.82556429462E+02 -0.22415751428E+03  0.32330192759E+03  0.18800000000E+03 0.  0.
   -5000001    1    1    2    0    0  0.11008170206E+03  0.82556429462E+02 -0.15025457903E+03  0.27722551054E+03  0.18800000000E+03 0.  0.
<mgrwt>
<rscale>  0 0.46951974E+03</rscale>
<asrwt>0</asrwt>
<pdfrwt beam="1">  1        2 0.69638537E-01 0.46951974E+03</pdfrwt>
<pdfrwt beam="2">  1       -2 0.16151096E-01 0.46951974E+03</pdfrwt>
<totfact> 0.21214603E+03</totfact>
</mgrwt>
</event>
<event>
 4    1  0.2209668E-005  0.1092699E+04  0.7818608E-02  0.9212337E-01
         -2   -1    0    0    0  501 -0.00000000000E+00  0.00000000000E+00  0.26749800734E+03  0.26749800735E+03  0.25500000000E-02 0. -1.
          2   -1    0    0  501    0  0.00000000000E+00 -0.00000000000E+00 -0.11158880792E+04  0.11158880792E+04  0.25500000000E-02 0.  1.
    5000001    1    1    2    0    0 -0.12816434696E+02  0.41867109447E+03 -0.49262836429E+02  0.46175813301E+03  0.18800000000E+03 0.  0.
   -5000001    1    1    2    0    0  0.12816434696E+02 -0.41867109447E+03 -0.79912723547E+03  0.92162795358E+03  0.18800000000E+03 0.  0.
<mgrwt>
<rscale>  0 0.10926991E+04</rscale>
<asrwt>0</asrwt>
<pdfrwt beam="1">  1        2 0.15941258E+00 0.10926991E+04</pdfrwt>
<pdfrwt beam="2">  1       -2 0.38214001E-01 0.10926991E+04</pdfrwt>
<totfact> 0.15334184E+02</totfact>
</mgrwt>
</event>
<event>
 4    1  0.2209668E-005  0.5307256E+03  0.7818608E-02  0.1006056E+00
          2   -1    0    0  501    0  0.00000000000E+00  0.00000000000E+00  0.19118953743E+04  0.19118953743E+04  0.25500000000E-02 0.  1.
         -2   -1    0    0    0  501 -0.00000000000E+00 -0.00000000000E+00 -0.36831203927E+02  0.36831204015E+02  0.25500000000E-02 0. -1.
    5000001    1    1    2    0    0 -0.15605569192E+03 -0.91291024177E+02  0.11168873586E+04  0.11469388832E+04  0.18800000000E+03 0.  0.
   -5000001    1    1    2    0    0  0.15605569192E+03  0.91291024177E+02  0.75817681179E+03  0.80178769510E+03  0.18800000000E+03 0.  0.
<mgrwt>
<rscale>  0 0.53072557E+03</rscale>
<asrwt>0</asrwt>
<pdfrwt beam="1">  1        2 0.27312805E+00 0.53072557E+03</pdfrwt>
<pdfrwt beam="2">  1       -2 0.52615979E-02 0.53072557E+03</pdfrwt>
<totfact> 0.17439181E+03</totfact>
</mgrwt>
</event>
<event>
 4    1  0.2209668E-005  0.4594261E+03  0.7818608E-02  0.1024948E+00
          2   -1    0    0  501    0  0.00000000000E+00  0.00000000000E+00  0.12044238485E+04  0.12044238485E+04  0.25500000000E-02 0.  1.
         -2   -1    0    0    0  501 -0.00000000000E+00 -0.00000000000E+00 -0.43811890891E+02  0.43811890966E+02  0.25500000000E-02 0. -1.
    5000001    1    1    2    0    0  0.11298362693E+03 -0.60169163615E+02  0.49275209197E+03  0.54271009973E+03  0.18800000000E+03 0.  0.
   -5000001    1    1    2    0    0 -0.11298362693E+03  0.60169163615E+02  0.66785986568E+03  0.70552563978E+03  0.18800000000E+03 0.  0.
<mgrwt>
<rscale>  0 0.45942610E+03</rscale>
<asrwt>0</asrwt>
<pdfrwt beam="1">  1        2 0.17206056E+00 0.45942610E+03</pdfrwt>
<pdfrwt beam="2">  1       -2 0.62588411E-02 0.45942610E+03</pdfrwt>
<totfact> 0.30990235E+03</totfact>
</mgrwt>
</event>
<event>
 4    1  0.2209668E-005  0.5071670E+03  0.7818608E-02  0.1011925E+00
          2   -1    0    0  501    0  0.00000000000E+00  0.00000000000E+00  0.10682593515E+04  0.10682593516E+04  0.25500000000E-02 0.  1.
         -2   -1    0    0    0  501 -0.00000000000E+00 -0.00000000000E+00 -0.60195680527E+02  0.60195680581E+02  0.25500000000E-02 0. -1.
    5000001    1    1    2    0    0 -0.15067152947E+03 -0.74537303676E+02  0.56302118487E+03  0.61692347503E+03  0.18800000000E+03 0.  0.
   -5000001    1    1    2    0    0  0.15067152947E+03  0.74537303676E+02  0.44504248615E+03  0.51153155710E+03  0.18800000000E+03 0.  0.
<mgrwt>
<rscale>  0 0.50716703E+03</rscale>
<asrwt>0</asrwt>
<pdfrwt beam="1">  1        2 0.15260847E+00 0.50716703E+03</pdfrwt>
<pdfrwt beam="2">  1       -2 0.85993834E-02 0.50716703E+03</pdfrwt>
<totfact> 0.22442122E+03</totfact>
</mgrwt>
</event>
<event>
 4    1  0.2209668E-005  0.5578717E+03  0.7818608E-02  0.9996882E-01
          2   -1    0    0  501    0  0.00000000000E+00  0.00000000000E+00  0.14183018064E+04  0.14183018064E+04  0.25500000000E-02 0.  1.
         -2   -1    0    0    0  501 -0.00000000000E+00 -0.00000000000E+00 -0.54858002455E+02  0.54858002514E+02  0.25500000000E-02 0. -1.
    5000001    1    1    2    0    0  0.14398809820E+03 -0.12508681550E+03  0.88765962253E+03  0.92718007383E+03  0.18800000000E+03 0.  0.
   -5000001    1    1    2    0    0 -0.14398809820E+03  0.12508681550E+03  0.47578418138E+03  0.54597973505E+03  0.18800000000E+03 0.  0.
<mgrwt>
<rscale>  0 0.55787168E+03</rscale>
<asrwt>0</asrwt>
<pdfrwt beam="1">  1        2 0.20261451E+00 0.55787168E+03</pdfrwt>
<pdfrwt beam="2">  1       -2 0.78368587E-02 0.55787168E+03</pdfrwt>
<totfact> 0.16653804E+03</totfact>
</mgrwt>
</event>
<event>
 4    1  0.2209668E-005  0.5131307E+03  0.7818608E-02  0.1010407E+00
         -2   -1    0    0    0  501 -0.00000000000E+00  0.00000000000E+00  0.31743937918E+03  0.31743937919E+03  0.25500000000E-02 0. -1.
          2   -1    0    0  501    0  0.00000000000E+00 -0.00000000000E+00 -0.20736489674E+03  0.20736489676E+03  0.25500000000E-02 0.  1.
    5000001    1    1    2    0    0 -0.93954927013E+02 -0.14702504158E+03  0.61333005458E+02  0.26372263596E+03  0.18800000000E+03 0.  0.
   -5000001    1    1    2    0    0  0.93954927013E+02  0.14702504158E+03  0.48741476982E+02  0.26108163999E+03  0.18800000000E+03 0.  0.
<mgrwt>
<rscale>  0 0.51313072E+03</rscale>
<asrwt>0</asrwt>
<pdfrwt beam="1">  1        2 0.29623557E-01 0.51313072E+03</pdfrwt>
<pdfrwt beam="2">  1       -2 0.45348483E-01 0.51313072E+03</pdfrwt>
<totfact> 0.83563963E+02</totfact>
</mgrwt>
</event>
<event>
 4    1  0.2209668E-005  0.8201788E+03  0.7818608E-02  0.9531260E-01
          2   -1    0    0  501    0  0.00000000000E+00  0.00000000000E+00  0.12466148925E+04  0.12466148925E+04  0.25500000000E-02 0.  1.
         -2   -1    0    0    0  501 -0.00000000000E+00 -0.00000000000E+00 -0.13490398081E+03  0.13490398084E+03  0.25500000000E-02 0. -1.
    5000001    1    1    2    0    0  0.21214609963E+03  0.29176879932E+03  0.46842309434E+03  0.62040244613E+03  0.18800000000E+03 0.  0.
   -5000001    1    1    2    0    0 -0.21214609963E+03 -0.29176879932E+03  0.64328781738E+03  0.76111642726E+03  0.18800000000E+03 0.  0.
<mgrwt>
<rscale>  0 0.82017879E+03</rscale>
<asrwt>0</asrwt>
<pdfrwt beam="1">  1        2 0.17808784E+00 0.82017879E+03</pdfrwt>
<pdfrwt beam="2">  1       -2 0.19271998E-01 0.82017879E+03</pdfrwt>
<totfact> 0.45945593E+02</totfact>
</mgrwt>
</event>
<event>
 4    1  0.2209668E-005  0.5274619E+03  0.7818608E-02  0.1006850E+00
         -2   -1    0    0    0  501 -0.00000000000E+00  0.00000000000E+00  0.42452779884E+02  0.42452779960E+02  0.25500000000E-02 0. -1.
          2   -1    0    0  501    0  0.00000000000E+00 -0.00000000000E+00 -0.16383856328E+04  0.16383856328E+04  0.25500000000E-02 0.  1.
    5000001    1    1    2    0    0 -0.85338323738E+02  0.15614854086E+02 -0.27742318094E+03  0.34617058582E+03  0.18800000000E+03 0.  0.
   -5000001    1    1    2    0    0  0.85338323738E+02 -0.15614854086E+02 -0.13185096719E+04  0.13346678269E+04  0.18800000000E+03 0.  0.
<mgrwt>
<rscale>  0 0.52746194E+03</rscale>
<asrwt>0</asrwt>
<pdfrwt beam="1">  1        2 0.23405505E+00 0.52746194E+03</pdfrwt>
<pdfrwt beam="2">  1       -2 0.60646839E-02 0.52746194E+03</pdfrwt>
<totfact> 0.19204627E+03</totfact>
</mgrwt>
</event>
<event>
 4    1  0.2209668E-005  0.6463290E+03  0.7818608E-02  0.9813692E-01
         -2   -1    0    0    0  501 -0.00000000000E+00  0.00000000000E+00  0.29634843443E+03  0.29634843444E+03  0.25500000000E-02 0. -1.
          2   -1    0    0  501    0  0.00000000000E+00 -0.00000000000E+00 -0.35240711509E+03  0.35240711510E+03  0.25500000000E-02 0.  1.
    5000001    1    1    2    0    0  0.22917794888E+03 -0.12705552802E+03 -0.48738263930E+02  0.32616722372E+03  0.18800000000E+03 0.  0.
   -5000001    1    1    2    0    0 -0.22917794888E+03  0.12705552802E+03 -0.73204167362E+01  0.32258832582E+03  0.18800000000E+03 0.  0.
<mgrwt>
<rscale>  0 0.64632901E+03</rscale>
<asrwt>0</asrwt>
<pdfrwt beam="1">  1        2 0.50343873E-01 0.64632901E+03</pdfrwt>
<pdfrwt beam="2">  1       -2 0.42335491E-01 0.64632901E+03</pdfrwt>
<totfact> 0.53076400E+02</totfact>
</mgrwt>
</event>
<event>
 4    1  0.2209668E-005  0.1473821E+04  0.7818608E-02  0.8902050E-01
         -2   -1    0    0    0  501 -0.00000000000E+00  0.00000000000E+00  0.26215816597E+03  0.26215816598E+03  0.25500000000E-02 0. -1.
          2   -1    0    0  501    0  0.00000000000E+00 -0.00000000000E+00 -0.20714113358E+04  0.20714113358E+04  0.25500000000E-02 0.  1.
    5000001    1    1    2    0    0  0.40285304341E+03 -0.55080884368E+03 -0.58008912895E+03  0.91516575241E+03  0.18800000000E+03 0.  0.
   -5000001    1    1    2    0    0 -0.40285304341E+03  0.55080884368E+03 -0.12291640409E+04  0.14184037494E+04  0.18800000000E+03 0.  0.
<mgrwt>
<rscale>  0 0.14738214E+04</rscale>
<asrwt>0</asrwt>
<pdfrwt beam="1">  1        2 0.29591590E+00 0.14738214E+04</pdfrwt>
<pdfrwt beam="2">  1       -2 0.37451168E-01 0.14738214E+04</pdfrwt>
<totfact> 0.48047061E+01</totfact>
</mgrwt>
</event>
<event>
 4    1  0.2209668E-005  0.5444833E+03  0.7818608E-02  0.1002779E+00
         -2   -1    0    0    0  501 -0.00000000000E+00  0.00000000000E+00  0.11798559832E+03  0.11798559834E+03  0.25500000000E-02 0. -1.
          2   -1    0    0  501    0  0.00000000000E+00 -0.00000000000E+00 -0.62817431168E+03  0.62817431169E+03  0.25500000000E-02 0.  1.
    5000001    1    1    2    0    0 -0.35828555896E+02  0.76993154481E+02 -0.11641387568E+02  0.20661837566E+03  0.18800000000E+03 0.  0.
   -5000001    1    1    2    0    0  0.35828555896E+02 -0.76993154481E+02 -0.49854732580E+03  0.53954153437E+03  0.18800000000E+03 0.  0.
<mgrwt>
<rscale>  0 0.54448332E+03</rscale>
<asrwt>0</asrwt>
<pdfrwt beam="1">  1        2 0.89739185E-01 0.54448332E+03</pdfrwt>
<pdfrwt beam="2">  1       -2 0.16855086E-01 0.54448332E+03</pdfrwt>
<totfact> 0.14741256E+03</totfact>
</mgrwt>
</event>
<event>
 4    1  0.2209668E-005  0.6861437E+03  0.7818608E-02  0.9741226E-01
          2   -1    0    0  501    0  0.00000000000E+00  0.00000000000E+00  0.25347245498E+04  0.25347245498E+04  0.25500000000E-02 0.  1.
         -2   -1    0    0    0  501 -0.00000000000E+00 -0.00000000000E+00 -0.46434350642E+02  0.46434350712E+02  0.25500000000E-02 0. -1.
    5000001    1    1    2    0    0  0.15030714508E+03  0.14270064657E+03  0.49745578679E+03  0.57075561513E+03  0.18800000000E+03 0.  0.
   -5000001    1    1    2    0    0 -0.15030714508E+03 -0.14270064657E+03  0.19908344123E+04  0.20104032854E+04  0.18800000000E+03 0.  0.
<mgrwt>
<rscale>  0 0.68614368E+03</rscale>
<asrwt>0</asrwt>
<pdfrwt beam="1">  1        2 0.36210347E+00 0.68614368E+03</pdfrwt>
<pdfrwt beam="2">  1       -2 0.66334793E-02 0.68614368E+03</pdfrwt>
<totfact> 0.58175993E+02</totfact>
</mgrwt>
</event>
<event>
 4    1  0.2209668E-005  0.5324447E+03  0.7818608E-02  0.1005641E+00
         -2   -1    0    0    0  501 -0.00000000000E+00  0.00000000000E+00  0.12706423534E+03  0.12706423536E+03  0.25500000000E-02 0. -1.
          2   -1    0    0  501    0  0.00000000000E+00 -0.00000000000E+00 -0.55778357601E+03  0.55778357601E+03  0.25500000000E-02 0.  1.
    5000001    1    1    2    0    0 -0.10284690477E+03  0.30035303250E+02 -0.15886836193E+02  0.21697003670E+03  0.18800000000E+03 0.  0.
   -5000001    1    1    2    0    0  0.10284690477E+03 -0.30035303250E+02 -0.41483250448E+03  0.46787777468E+03  0.18800000000E+03 0.  0.
<mgrwt>
<rscale>  0 0.53244471E+03</rscale>
<asrwt>0</asrwt>
<pdfrwt beam="1">  1        2 0.79683367E-01 0.53244471E+03</pdfrwt>
<pdfrwt beam="2">  1       -2 0.18152034E-01 0.53244471E+03</pdfrwt>
<totfact> 0.14924114E+03</totfact>
</mgrwt>
</event>
<event>
 4    1  0.2209668E-005  0.4136597E+03  0.7818608E-02  0.1039150E+00
         -2   -1    0    0    0  501 -0.00000000000E+00  0.00000000000E+00  0.11284109625E+04  0.11284109625E+04  0.25500000000E-02 0. -1.
          2   -1    0    0  501    0  0.00000000000E+00 -0.00000000000E+00 -0.37910468105E+02  0.37910468191E+02  0.25500000000E-02 0.  1.
    5000001    1    1    2    0    0  0.12657851590E+02 -0.85066704955E+02  0.52786445234E+03  0.56690514687E+03  0.18800000000E+03 0.  0.
   -5000001    1    1    2    0    0 -0.12657851590E+02  0.85066704955E+02  0.56263604205E+03  0.59941628382E+03  0.18800000000E+03 0.  0.
<mgrwt>
<rscale>  0 0.41365970E+03</rscale>
<asrwt>0</asrwt>
<pdfrwt beam="1">  1        2 0.54157817E-02 0.41365970E+03</pdfrwt>
<pdfrwt beam="2">  1       -2 0.16120155E+00 0.41365970E+03</pdfrwt>
<totfact> 0.37251734E+02</totfact>
</mgrwt>
</event>
<event>
 4    1  0.2209668E-005  0.4382788E+03  0.7818608E-02  0.1031276E+00
         -2   -1    0    0    0  501 -0.00000000000E+00  0.00000000000E+00  0.19629672983E+02  0.19629673148E+02  0.25500000000E-02 0. -1.
          2   -1    0    0  501    0  0.00000000000E+00 -0.00000000000E+00 -0.24464027130E+04  0.24464027130E+04  0.25500000000E-02 0.  1.
    5000001    1    1    2    0    0 -0.69246488139E+00 -0.40251973291E+02 -0.18050496131E+04  0.18152599832E+04  0.18800000000E+03 0.  0.
   -5000001    1    1    2    0    0  0.69246488139E+00  0.40251973291E+02 -0.62172342694E+03  0.65077240297E+03  0.18800000000E+03 0.  0.
<mgrwt>
<rscale>  0 0.43827884E+03</rscale>
<asrwt>0</asrwt>
<pdfrwt beam="1">  1        2 0.34948591E+00 0.43827884E+03</pdfrwt>
<pdfrwt beam="2">  1       -2 0.28042406E-02 0.43827884E+03</pdfrwt>
<totfact> 0.24718528E+03</totfact>
</mgrwt>
</event>
<event>
 4    1  0.2209668E-005  0.7461026E+03  0.7818608E-02  0.9641485E-01
         -2   -1    0    0    0  501 -0.00000000000E+00  0.00000000000E+00  0.17432139629E+03  0.17432139630E+03  0.25500000000E-02 0. -1.
          2   -1    0    0  501    0  0.00000000000E+00 -0.00000000000E+00 -0.79833740200E+03  0.79833740200E+03  0.25500000000E-02 0.  1.
    5000001    1    1    2    0    0 -0.14349222914E+02 -0.28522739512E+03 -0.50652210109E+03  0.61112126948E+03  0.18800000000E+03 0.  0.
   -5000001    1    1    2    0    0  0.14349222914E+02  0.28522739512E+03 -0.11749390462E+03  0.36153752882E+03  0.18800000000E+03 0.  0.
<mgrwt>
<rscale>  0 0.74610265E+03</rscale>
<asrwt>0</asrwt>
<pdfrwt beam="1">  1        2 0.11404820E+00 0.74610265E+03</pdfrwt>
<pdfrwt beam="2">  1       -2 0.24903057E-01 0.74610265E+03</pdfrwt>
<totfact> 0.55192892E+02</totfact>
</mgrwt>
</event>
<event>
 4    1  0.2209668E-005  0.7340370E+03  0.7818608E-02  0.9660732E-01
         -2   -1    0    0    0  501 -0.00000000000E+00  0.00000000000E+00  0.13195040087E+03  0.13195040089E+03  0.25500000000E-02 0. -1.
          2   -1    0    0  501    0  0.00000000000E+00 -0.00000000000E+00 -0.10208576152E+04  0.10208576152E+04  0.25500000000E-02 0.  1.
    5000001    1    1    2    0    0  0.83457338255E+02  0.22884620154E+03 -0.13026306320E+03  0.33413796088E+03  0.18800000000E+03 0.  0.
   -5000001    1    1    2    0    0 -0.83457338255E+02 -0.22884620154E+03 -0.75864415108E+03  0.81867005517E+03  0.18800000000E+03 0.  0.
<mgrwt>
<rscale>  0 0.73403698E+03</rscale>
<asrwt>0</asrwt>
<pdfrwt beam="1">  1        2 0.14583680E+00 0.73403698E+03</pdfrwt>
<pdfrwt beam="2">  1       -2 0.18850058E-01 0.73403698E+03</pdfrwt>
<totfact> 0.64788441E+02</totfact>
</mgrwt>
</event>
<event>
 4    1  0.2209668E-005  0.1076985E+04  0.7818608E-02  0.9227918E-01
          2   -1    0    0  501    0  0.00000000000E+00  0.00000000000E+00  0.18505967521E+04  0.18505967521E+04  0.25500000000E-02 0.  1.
         -2   -1    0    0    0  501 -0.00000000000E+00 -0.00000000000E+00 -0.15669235260E+03  0.15669235262E+03  0.25500000000E-02 0. -1.
    5000001    1    1    2    0    0 -0.39885721552E+03  0.30633706395E+03  0.92381875915E+03  0.10685104468E+04  0.18800000000E+03 0.  0.
   -5000001    1    1    2    0    0  0.39885721552E+03 -0.30633706395E+03  0.77008564031E+03  0.93877865790E+03  0.18800000000E+03 0.  0.
<mgrwt>
<rscale>  0 0.10769853E+04</rscale>
<asrwt>0</asrwt>
<pdfrwt beam="1">  1        2 0.26437095E+00 0.10769853E+04</pdfrwt>
<pdfrwt beam="2">  1       -2 0.22384623E-01 0.10769853E+04</pdfrwt>
<totfact> 0.16670766E+02</totfact>
</mgrwt>
</event>
<event>
 4    1  0.2209668E-005  0.6276103E+03  0.7818608E-02  0.9849723E-01
          2   -1    0    0  501    0  0.00000000000E+00  0.00000000000E+00  0.10504083850E+04  0.10504083850E+04  0.25500000000E-02 0.  1.
         -2   -1    0    0    0  501 -0.00000000000E+00 -0.00000000000E+00 -0.93747997020E+02  0.93747997055E+02  0.25500000000E-02 0. -1.
    5000001    1    1    2    0    0  0.20102028812E+03  0.14841618619E+03  0.52632702377E+03  0.61220965078E+03  0.18800000000E+03 0.  0.
   -5000001    1    1    2    0    0 -0.20102028812E+03 -0.14841618619E+03  0.43033336419E+03  0.53194673126E+03  0.18800000000E+03 0.  0.
<mgrwt>
<rscale>  0 0.62761033E+03</rscale>
<asrwt>0</asrwt>
<pdfrwt beam="1">  1        2 0.15005833E+00 0.62761033E+03</pdfrwt>
<pdfrwt beam="2">  1       -2 0.13392572E-01 0.62761033E+03</pdfrwt>
<totfact> 0.11151447E+03</totfact>
</mgrwt>
</event>
<event>
 4    1  0.2209668E-005  0.8229375E+03  0.7818608E-02  0.9527397E-01
         -2   -1    0    0    0  501 -0.00000000000E+00  0.00000000000E+00  0.25145552296E+03  0.25145552297E+03  0.25500000000E-02 0. -1.
          2   -1    0    0  501    0  0.00000000000E+00 -0.00000000000E+00 -0.67330615309E+03  0.67330615309E+03  0.25500000000E-02 0.  1.
    5000001    1    1    2    0    0  0.14726494981E+03 -0.16091283453E+03 -0.54120069116E+03  0.61304330505E+03  0.18800000000E+03 0.  0.
   -5000001    1    1    2    0    0 -0.14726494981E+03  0.16091283453E+03  0.11935006102E+03  0.31171837101E+03  0.18800000000E+03 0.  0.
<mgrwt>
<rscale>  0 0.82293755E+03</rscale>
<asrwt>0</asrwt>
<pdfrwt beam="1">  1        2 0.96186593E-01 0.82293755E+03</pdfrwt>
<pdfrwt beam="2">  1       -2 0.35922218E-01 0.82293755E+03</pdfrwt>
<totfact> 0.34522986E+02</totfact>
</mgrwt>
</event>
<event>
 4    1  0.2209668E-005  0.7880537E+03  0.7818608E-02  0.9577472E-01
         -2   -1    0    0    0  501 -0.00000000000E+00  0.00000000000E+00  0.22359468528E+03  0.22359468530E+03  0.25500000000E-02 0. -1.
          2   -1    0    0  501    0  0.00000000000E+00 -0.00000000000E+00 -0.69436873115E+03  0.69436873116E+03  0.25500000000E-02 0.  1.
    5000001    1    1    2    0    0  0.83894876144E+02 -0.11911758444E+03 -0.60131609498E+03  0.64664704070E+03  0.18800000000E+03 0.  0.
   -5000001    1    1    2    0    0 -0.83894876144E+02  0.11911758444E+03  0.13054204911E+03  0.27131637575E+03  0.18800000000E+03 0.  0.
<mgrwt>
<rscale>  0 0.78805370E+03</rscale>
<asrwt>0</asrwt>
<pdfrwt beam="1">  1        2 0.99195532E-01 0.78805370E+03</pdfrwt>
<pdfrwt beam="2">  1       -2 0.31942098E-01 0.78805370E+03</pdfrwt>
<totfact> 0.41574785E+02</totfact>
</mgrwt>
</event>
<event>
 4    1  0.2209668E-005  0.5151617E+03  0.7818608E-02  0.1009896E+00
         -2   -1    0    0    0  501 -0.00000000000E+00  0.00000000000E+00  0.38816302196E+02  0.38816302279E+02  0.25500000000E-02 0. -1.
          2   -1    0    0  501    0  0.00000000000E+00 -0.00000000000E+00 -0.17092790287E+04  0.17092790287E+04  0.25500000000E-02 0.  1.
    5000001    1    1    2    0    0 -0.17412084058E+03  0.26180273172E+02 -0.83742407390E+03  0.87614299824E+03  0.18800000000E+03 0.  0.
   -5000001    1    1    2    0    0  0.17412084058E+03 -0.26180273172E+02 -0.83303865258E+03  0.87195233271E+03  0.18800000000E+03 0.  0.
<mgrwt>
<rscale>  0 0.51516169E+03</rscale>
<asrwt>0</asrwt>
<pdfrwt beam="1">  1        2 0.24418267E+00 0.51516169E+03</pdfrwt>
<pdfrwt beam="2">  1       -2 0.55451871E-02 0.51516169E+03</pdfrwt>
<totfact> 0.20333082E+03</totfact>
</mgrwt>
</event>
<event>
 4    1  0.2209668E-005  0.9241243E+03  0.7818608E-02  0.9395917E-01
          2   -1    0    0  501    0  0.00000000000E+00  0.00000000000E+00  0.13820795778E+04  0.13820795778E+04  0.25500000000E-02 0.  1.
         -2   -1    0    0    0  501 -0.00000000000E+00 -0.00000000000E+00 -0.15447840786E+03  0.15447840788E+03  0.25500000000E-02 0. -1.
    5000001    1    1    2    0    0 -0.34349097644E+03  0.21735234904E+01  0.10216469129E+04  0.10941193673E+04  0.18800000000E+03 0.  0.
   -5000001    1    1    2    0    0  0.34349097644E+03 -0.21735234904E+01  0.20595425703E+03  0.44243861844E+03  0.18800000000E+03 0.  0.
<mgrwt>
<rscale>  0 0.92412435E+03</rscale>
<asrwt>0</asrwt>
<pdfrwt beam="1">  1        2 0.19743993E+00 0.92412435E+03</pdfrwt>
<pdfrwt beam="2">  1       -2 0.22068345E-01 0.92412435E+03</pdfrwt>
<totfact> 0.30344336E+02</totfact>
</mgrwt>
</event>
<event>
 4    1  0.2209668E-005  0.5900027E+03  0.7818608E-02  0.9926367E-01
          2   -1    0    0  501    0  0.00000000000E+00  0.00000000000E+00  0.77915578236E+03  0.77915578236E+03  0.25500000000E-02 0.  1.
         -2   -1    0    0    0  501 -0.00000000000E+00 -0.00000000000E+00 -0.11169243243E+03  0.11169243246E+03  0.25500000000E-02 0. -1.
    5000001    1    1    2    0    0  0.12471603257E+03 -0.18924178694E+03  0.36054097205E+03  0.46551083256E+03  0.18800000000E+03 0.  0.
   -5000001    1    1    2    0    0 -0.12471603257E+03  0.18924178694E+03  0.30692237788E+03  0.42533738226E+03  0.18800000000E+03 0.  0.
<mgrwt>
<rscale>  0 0.59000273E+03</rscale>
<asrwt>0</asrwt>
<pdfrwt beam="1">  1        2 0.11130797E+00 0.59000273E+03</pdfrwt>
<pdfrwt beam="2">  1       -2 0.15956062E-01 0.59000273E+03</pdfrwt>
<totfact> 0.12428740E+03</totfact>
</mgrwt>
</event>
<event>
 4    1  0.2209668E-005  0.7784110E+03  0.7818608E-02  0.9591803E-01
         -2   -1    0    0    0  501 -0.00000000000E+00  0.00000000000E+00  0.25378071944E+03  0.25378071946E+03  0.25500000000E-02 0. -1.
          2   -1    0    0  501    0  0.00000000000E+00 -0.00000000000E+00 -0.59689690637E+03  0.59689690638E+03  0.25500000000E-02 0.  1.
    5000001    1    1    2    0    0 -0.17477503154E+03 -0.63964808987E+02 -0.48354221609E+03  0.55117590947E+03  0.18800000000E+03 0.  0.
   -5000001    1    1    2    0    0  0.17477503154E+03  0.63964808987E+02  0.14042602916E+03  0.29950171636E+03  0.18800000000E+03 0.  0.
<mgrwt>
<rscale>  0 0.77841101E+03</rscale>
<asrwt>0</asrwt>
<pdfrwt beam="1">  1        2 0.85270986E-01 0.77841101E+03</pdfrwt>
<pdfrwt beam="2">  1       -2 0.36254389E-01 0.77841101E+03</pdfrwt>
<totfact> 0.39267099E+02</totfact>
</mgrwt>
</event>
<event>
 4    1  0.2209668E-005  0.5504837E+03  0.7818608E-02  0.1001382E+00
         -2   -1    0    0    0  501 -0.00000000000E+00  0.00000000000E+00  0.39158008826E+03  0.39158008827E+03  0.25500000000E-02 0. -1.
          2   -1    0    0  501    0  0.00000000000E+00 -0.00000000000E+00 -0.19346763044E+03  0.19346763045E+03  0.25500000000E-02 0.  1.
    5000001    1    1    2    0    0 -0.64315131734E+02 -0.27129365408E+02  0.29941830747E+03  0.36037169906E+03  0.18800000000E+03 0.  0.
   -5000001    1    1    2    0    0  0.64315131734E+02  0.27129365408E+02 -0.10130584965E+03  0.22467601966E+03  0.18800000000E+03 0.  0.
<mgrwt>
<rscale>  0 0.55048368E+03</rscale>
<asrwt>0</asrwt>
<pdfrwt beam="1">  1        2 0.27638233E-01 0.55048368E+03</pdfrwt>
<pdfrwt beam="2">  1       -2 0.55940013E-01 0.55048368E+03</pdfrwt>
<totfact> 0.59044950E+02</totfact>
</mgrwt>
</event>
<event>
 4    1  0.2209668E-005  0.5879984E+03  0.7818608E-02  0.9930623E-01
          2   -1    0    0  501    0  0.00000000000E+00  0.00000000000E+00  0.21546800984E+04  0.21546800984E+04  0.25500000000E-02 0.  1.
         -2   -1    0    0    0  501 -0.00000000000E+00 -0.00000000000E+00 -0.40115250370E+02  0.40115250451E+02  0.25500000000E-02 0. -1.
    5000001    1    1    2    0    0  0.20710934735E+03 -0.61564340898E+02  0.80948690937E+03  0.85866029737E+03  0.18800000000E+03 0.  0.
   -5000001    1    1    2    0    0 -0.20710934735E+03  0.61564340898E+02  0.13050779386E+04  0.13361350515E+04  0.18800000000E+03 0.  0.
<mgrwt>
<rscale>  0 0.58799841E+03</rscale>
<asrwt>0</asrwt>
<pdfrwt beam="1">  1        2 0.30781150E+00 0.58799841E+03</pdfrwt>
<pdfrwt beam="2">  1       -2 0.57307490E-02 0.58799841E+03</pdfrwt>
<totfact> 0.11504057E+03</totfact>
</mgrwt>
</event>
<event>
 4    1  0.2209668E-005  0.4494787E+03  0.7818608E-02  0.1027878E+00
          2   -1    0    0  501    0  0.00000000000E+00  0.00000000000E+00  0.15219349442E+04  0.15219349442E+04  0.25500000000E-02 0.  1.
         -2   -1    0    0    0  501 -0.00000000000E+00 -0.00000000000E+00 -0.33186559882E+02  0.33186559980E+02  0.25500000000E-02 0. -1.
    5000001    1    1    2    0    0 -0.82285975437E+02 -0.23902858509E+02  0.43838999664E+03  0.48463606712E+03  0.18800000000E+03 0.  0.
   -5000001    1    1    2    0    0  0.82285975437E+02  0.23902858509E+02  0.10503583877E+04  0.10704854370E+04  0.18800000000E+03 0.  0.
<mgrwt>
<rscale>  0 0.44947874E+03</rscale>
<asrwt>0</asrwt>
<pdfrwt beam="1">  1        2 0.21741929E+00 0.44947874E+03</pdfrwt>
<pdfrwt beam="2">  1       -2 0.47409368E-02 0.44947874E+03</pdfrwt>
<totfact> 0.32309147E+03</totfact>
</mgrwt>
</event>
<event>
 4    1  0.2209668E-005  0.5470117E+03  0.7818608E-02  0.1002188E+00
         -2   -1    0    0    0  501 -0.00000000000E+00  0.00000000000E+00  0.27850725658E+02  0.27850725775E+02  0.25500000000E-02 0. -1.
          2   -1    0    0  501    0  0.00000000000E+00 -0.00000000000E+00 -0.26859428315E+04  0.26859428315E+04  0.25500000000E-02 0.  1.
    5000001    1    1    2    0    0  0.12662109945E+03  0.14837200279E+03 -0.11424719292E+04  0.11741521464E+04  0.18800000000E+03 0.  0.
   -5000001    1    1    2    0    0 -0.12662109945E+03 -0.14837200279E+03 -0.15156201767E+04  0.15396414109E+04  0.18800000000E+03 0.  0.
<mgrwt>
<rscale>  0 0.54701173E+03</rscale>
<asrwt>0</asrwt>
<pdfrwt beam="1">  1        2 0.38370596E+00 0.54701173E+03</pdfrwt>
<pdfrwt beam="2">  1       -2 0.39786768E-02 0.54701173E+03</pdfrwt>
<totfact> 0.10870359E+03</totfact>
</mgrwt>
</event>
<event>
 4    1  0.2209668E-005  0.7873143E+03  0.7818608E-02  0.9578563E-01
          2   -1    0    0  501    0  0.00000000000E+00  0.00000000000E+00  0.41799433279E+03  0.41799433280E+03  0.25500000000E-02 0.  1.
         -2   -1    0    0    0  501 -0.00000000000E+00 -0.00000000000E+00 -0.37073701001E+03  0.37073701002E+03  0.25500000000E-02 0. -1.
    5000001    1    1    2    0    0  0.10609242920E+03  0.31858094859E+03  0.10667867833E+03  0.39934166418E+03  0.18800000000E+03 0.  0.
   -5000001    1    1    2    0    0 -0.10609242920E+03 -0.31858094859E+03 -0.59421355554E+02  0.38938967864E+03  0.18800000000E+03 0.  0.
<mgrwt>
<rscale>  0 0.78731434E+03</rscale>
<asrwt>0</asrwt>
<pdfrwt beam="1">  1        2 0.59713476E-01 0.78731434E+03</pdfrwt>
<pdfrwt beam="2">  1       -2 0.52962430E-01 0.78731434E+03</pdfrwt>
<totfact> 0.27863392E+02</totfact>
</mgrwt>
</event>
<event>
 4    1  0.2209668E-005  0.4647098E+03  0.7818608E-02  0.1023424E+00
         -2   -1    0    0    0  501 -0.00000000000E+00  0.00000000000E+00  0.50757402403E+02  0.50757402467E+02  0.25500000000E-02 0. -1.
          2   -1    0    0  501    0  0.00000000000E+00 -0.00000000000E+00 -0.10636635764E+04  0.10636635764E+04  0.25500000000E-02 0.  1.
    5000001    1    1    2    0    0  0.93790094476E+02 -0.87480423000E+02 -0.61881617836E+03  0.65933820520E+03  0.18800000000E+03 0.  0.
   -5000001    1    1    2    0    0 -0.93790094476E+02  0.87480423000E+02 -0.39408999560E+03  0.45508277364E+03  0.18800000000E+03 0.  0.
<mgrwt>
<rscale>  0 0.46470980E+03</rscale>
<asrwt>0</asrwt>
<pdfrwt beam="1">  1        2 0.15195193E+00 0.46470980E+03</pdfrwt>
<pdfrwt beam="2">  1       -2 0.72510582E-02 0.46470980E+03</pdfrwt>
<totfact> 0.29589321E+03</totfact>
</mgrwt>
</event>
<event>
 4    1  0.2209668E-005  0.7651168E+03  0.7818608E-02  0.9611929E-01
         -2   -1    0    0    0  501 -0.00000000000E+00  0.00000000000E+00  0.51155930401E+03  0.51155930402E+03  0.25500000000E-02 0. -1.
          2   -1    0    0  501    0  0.00000000000E+00 -0.00000000000E+00 -0.28608788278E+03  0.28608788279E+03  0.25500000000E-02 0.  1.
    5000001    1    1    2    0    0 -0.32554097474E+03  0.87528127511E+01  0.39363103628E+02  0.37808331343E+03  0.18800000000E+03 0.  0.
   -5000001    1    1    2    0    0  0.32554097474E+03 -0.87528127511E+01  0.18610831760E+03  0.41956387338E+03  0.18800000000E+03 0.  0.
<mgrwt>
<rscale>  0 0.76511677E+03</rscale>
<asrwt>0</asrwt>
<pdfrwt beam="1">  1        2 0.40869697E-01 0.76511677E+03</pdfrwt>
<pdfrwt beam="2">  1       -2 0.73079901E-01 0.76511677E+03</pdfrwt>
<totfact> 0.21439378E+02</totfact>
</mgrwt>
</event>
<event>
 4    1  0.2209668E-005  0.2781986E+04  0.7818608E-02  0.8308883E-01
          2   -1    0    0  501    0  0.00000000000E+00  0.00000000000E+00  0.26108598639E+04  0.26108598639E+04  0.25500000000E-02 0.  1.
         -2   -1    0    0    0  501 -0.00000000000E+00 -0.00000000000E+00 -0.74108185005E+03  0.74108185005E+03  0.25500000000E-02 0. -1.
    5000001    1    1    2    0    0  0.98898735644E+03  0.73341323147E+03  0.16810609950E+04  0.20922000450E+04  0.18800000000E+03 0.  0.
   -5000001    1    1    2    0    0 -0.98898735644E+03 -0.73341323147E+03  0.18871701884E+03  0.12597416690E+04  0.18800000000E+03 0.  0.
<mgrwt>
<rscale>  0 0.27819855E+04</rscale>
<asrwt>0</asrwt>
<pdfrwt beam="1">  1        2 0.37297999E+00 0.27819855E+04</pdfrwt>
<pdfrwt beam="2">  1       -2 0.10586883E+00 0.27819855E+04</pdfrwt>
<totfact> 0.24330285E+00</totfact>
</mgrwt>
</event>
<event>
 4    1  0.2209668E-005  0.5258271E+03  0.7818608E-02  0.1007249E+00
          2   -1    0    0  501    0  0.00000000000E+00  0.00000000000E+00  0.58402021963E+03  0.58402021964E+03  0.25500000000E-02 0.  1.
         -2   -1    0    0    0  501 -0.00000000000E+00 -0.00000000000E+00 -0.11835813242E+03  0.11835813245E+03  0.25500000000E-02 0. -1.
    5000001    1    1    2    0    0  0.15243254210E+03 -0.97156463462E+02  0.27722336809E+03  0.38062035428E+03  0.18800000000E+03 0.  0.
   -5000001    1    1    2    0    0 -0.15243254210E+03  0.97156463462E+02  0.18843871913E+03  0.32175799780E+03  0.18800000000E+03 0.  0.
<mgrwt>
<rscale>  0 0.52582713E+03</rscale>
<asrwt>0</asrwt>
<pdfrwt beam="1">  1        2 0.83431460E-01 0.52582713E+03</pdfrwt>
<pdfrwt beam="2">  1       -2 0.16908305E-01 0.52582713E+03</pdfrwt>
<totfact> 0.15973245E+03</totfact>
</mgrwt>
</event>
<event>
 4    1  0.2209668E-005  0.6939365E+03  0.7818608E-02  0.9727658E-01
         -2   -1    0    0    0  501 -0.00000000000E+00  0.00000000000E+00  0.54000357045E+03  0.54000357046E+03  0.25500000000E-02 0. -1.
          2   -1    0    0  501    0  0.00000000000E+00 -0.00000000000E+00 -0.22293738281E+03  0.22293738282E+03  0.25500000000E-02 0.  1.
    5000001    1    1    2    0    0 -0.59145289859E+02 -0.26286556482E+03  0.28119084619E+03  0.43244509762E+03  0.18800000000E+03 0.  0.
   -5000001    1    1    2    0    0  0.59145289859E+02  0.26286556482E+03  0.35875341462E+02  0.33049585566E+03  0.18800000000E+03 0.  0.
<mgrwt>
<rscale>  0 0.69393655E+03</rscale>
<asrwt>0</asrwt>
<pdfrwt beam="1">  1        2 0.31848197E-01 0.69393655E+03</pdfrwt>
<pdfrwt beam="2">  1       -2 0.77143368E-01 0.69393655E+03</pdfrwt>
<totfact> 0.25182906E+02</totfact>
</mgrwt>
</event>
<event>
 4    1  0.2209668E-005  0.5026119E+03  0.7818608E-02  0.1013099E+00
         -2   -1    0    0    0  501 -0.00000000000E+00  0.00000000000E+00  0.96803971485E+02  0.96803971519E+02  0.25500000000E-02 0. -1.
          2   -1    0    0  501    0  0.00000000000E+00 -0.00000000000E+00 -0.65239753085E+03  0.65239753085E+03  0.25500000000E-02 0.  1.
    5000001    1    1    2    0    0 -0.31582730572E+02  0.15892443749E+03 -0.33660015771E+03  0.41820821593E+03  0.18800000000E+03 0.  0.
   -5000001    1    1    2    0    0  0.31582730572E+02 -0.15892443749E+03 -0.21899340165E+03  0.33099328644E+03  0.18800000000E+03 0.  0.
<mgrwt>
<rscale>  0 0.50261187E+03</rscale>
<asrwt>0</asrwt>
<pdfrwt beam="1">  1        2 0.93199645E-01 0.50261187E+03</pdfrwt>
<pdfrwt beam="2">  1       -2 0.13829139E-01 0.50261187E+03</pdfrwt>
<totfact> 0.19656868E+03</totfact>
</mgrwt>
</event>
<event>
 4    1  0.2209668E-005  0.8744588E+03  0.7818608E-02  0.9458085E-01
          2   -1    0    0  501    0  0.00000000000E+00  0.00000000000E+00  0.26374819925E+04  0.26374819925E+04  0.25500000000E-02 0.  1.
         -2   -1    0    0    0  501 -0.00000000000E+00 -0.00000000000E+00 -0.72481834220E+02  0.72481834264E+02  0.25500000000E-02 0. -1.
    5000001    1    1    2    0    0 -0.21644509863E+03 -0.30709075704E+03  0.90711799891E+03  0.99968008769E+03  0.18800000000E+03 0.  0.
   -5000001    1    1    2    0    0  0.21644509863E+03  0.30709075704E+03  0.16578821594E+04  0.17102837391E+04  0.18800000000E+03 0.  0.
<mgrwt>
<rscale>  0 0.87445876E+03</rscale>
<asrwt>0</asrwt>
<pdfrwt beam="1">  1        2 0.37678307E+00 0.87445876E+03</pdfrwt>
<pdfrwt beam="2">  1       -2 0.10354550E-01 0.87445876E+03</pdfrwt>
<totfact> 0.24761570E+02</totfact>
</mgrwt>
</event>
<event>
 4    1  0.2209668E-005  0.8119935E+03  0.7818608E-02  0.9542817E-01
          2   -1    0    0  501    0  0.00000000000E+00  0.00000000000E+00  0.31260154545E+04  0.31260154545E+04  0.25500000000E-02 0.  1.
         -2   -1    0    0    0  501 -0.00000000000E+00 -0.00000000000E+00 -0.52729545255E+02  0.52729545316E+02  0.25500000000E-02 0. -1.
    5000001    1    1    2    0    0  0.88508440747E+02  0.32713918683E+03  0.20102390543E+04  0.20472564195E+04  0.18800000000E+03 0.  0.
   -5000001    1    1    2    0    0 -0.88508440747E+02 -0.32713918683E+03  0.10630468550E+04  0.11314885804E+04  0.18800000000E+03 0.  0.
<mgrwt>
<rscale>  0 0.81199353E+03</rscale>
<asrwt>0</asrwt>
<pdfrwt beam="1">  1        2 0.44657361E+00 0.81199353E+03</pdfrwt>
<pdfrwt beam="2">  1       -2 0.75327926E-02 0.81199353E+03</pdfrwt>
<totfact> 0.22655193E+02</totfact>
</mgrwt>
</event>
<event>
 4    1  0.2209668E-005  0.5366032E+03  0.7818608E-02  0.1004643E+00
         -2   -1    0    0    0  501 -0.00000000000E+00  0.00000000000E+00  0.25466346395E+02  0.25466346522E+02  0.25500000000E-02 0. -1.
          2   -1    0    0  501    0  0.00000000000E+00 -0.00000000000E+00 -0.28267015612E+04  0.28267015612E+04  0.25500000000E-02 0.  1.
    5000001    1    1    2    0    0 -0.56223970701E+02  0.10287837574E+03 -0.22048988105E+04  0.22160026759E+04  0.18800000000E+03 0.  0.
   -5000001    1    1    2    0    0  0.56223970701E+02 -0.10287837574E+03 -0.59633640432E+03  0.63616523183E+03  0.18800000000E+03 0.  0.
<mgrwt>
<rscale>  0 0.53660325E+03</rscale>
<asrwt>0</asrwt>
<pdfrwt beam="1">  1        2 0.40381431E+00 0.53660325E+03</pdfrwt>
<pdfrwt beam="2">  1       -2 0.36380513E-02 0.53660325E+03</pdfrwt>
<totfact> 0.10523524E+03</totfact>
</mgrwt>
</event>
<event>
 4    1  0.2209668E-005  0.7614045E+03  0.7818608E-02  0.9617626E-01
         -2   -1    0    0    0  501 -0.00000000000E+00  0.00000000000E+00  0.10509823806E+03  0.10509823809E+03  0.25500000000E-02 0. -1.
          2   -1    0    0  501    0  0.00000000000E+00 -0.00000000000E+00 -0.13790355263E+04  0.13790355263E+04  0.25500000000E-02 0.  1.
    5000001    1    1    2    0    0 -0.55733212558E+02  0.32613640552E+03 -0.61570013577E+03  0.72381061278E+03  0.18800000000E+03 0.  0.
   -5000001    1    1    2    0    0  0.55733212558E+02 -0.32613640552E+03 -0.65823715252E+03  0.76032315165E+03  0.18800000000E+03 0.  0.
<mgrwt>
<rscale>  0 0.76140450E+03</rscale>
<asrwt>0</asrwt>
<pdfrwt beam="1">  1        2 0.19700506E+00 0.76140450E+03</pdfrwt>
<pdfrwt beam="2">  1       -2 0.15014035E-01 0.76140450E+03</pdfrwt>
<totfact> 0.59841462E+02</totfact>
</mgrwt>
</event>
<event>
 4    1  0.2209668E-005  0.1029019E+04  0.7818608E-02  0.9277277E-01
          2   -1    0    0  501    0  0.00000000000E+00  0.00000000000E+00  0.10067897417E+04  0.10067897417E+04  0.25500000000E-02 0.  1.
         -2   -1    0    0    0  501 -0.00000000000E+00 -0.00000000000E+00 -0.26293495380E+03  0.26293495381E+03  0.25500000000E-02 0. -1.
    5000001    1    1    2    0    0  0.58421646530E+02 -0.46530520128E+03  0.25195031107E+03  0.56457504228E+03  0.18800000000E+03 0.  0.
   -5000001    1    1    2    0    0 -0.58421646530E+02  0.46530520128E+03  0.49190447679E+03  0.70514965320E+03  0.18800000000E+03 0.  0.
<mgrwt>
<rscale>  0 0.10290194E+04</rscale>
<asrwt>0</asrwt>
<pdfrwt beam="1">  1        2 0.14382711E+00 0.10290194E+04</pdfrwt>
<pdfrwt beam="2">  1       -2 0.37562136E-01 0.10290194E+04</pdfrwt>
<totfact> 0.18504337E+02</totfact>
</mgrwt>
</event>
<event>
 4    1  0.2209668E-005  0.4464077E+03  0.7818608E-02  0.1028799E+00
         -2   -1    0    0    0  501 -0.00000000000E+00  0.00000000000E+00  0.26020540743E+02  0.26020540868E+02  0.25500000000E-02 0. -1.
          2   -1    0    0  501    0  0.00000000000E+00 -0.00000000000E+00 -0.19146395745E+04  0.19146395745E+04  0.25500000000E-02 0.  1.
    5000001    1    1    2    0    0  0.11598747389E+03 -0.20770731912E+02 -0.10500333923E+04  0.10732188231E+04  0.18800000000E+03 0.  0.
   -5000001    1    1    2    0    0 -0.11598747389E+03  0.20770731912E+02 -0.83858564150E+03  0.86744129227E+03  0.18800000000E+03 0.  0.
<mgrwt>
<rscale>  0 0.44640769E+03</rscale>
<asrwt>0</asrwt>
<pdfrwt beam="1">  1        2 0.27351985E+00 0.44640769E+03</pdfrwt>
<pdfrwt beam="2">  1       -2 0.37172213E-02 0.44640769E+03</pdfrwt>
<totfact> 0.29726413E+03</totfact>
</mgrwt>
</event>
<event>
 4    1  0.2209668E-005  0.5243044E+03  0.7818608E-02  0.1007623E+00
          2   -1    0    0  501    0  0.00000000000E+00  0.00000000000E+00  0.99535053012E+03  0.99535053012E+03  0.25500000000E-02 0. -1.
         -2   -1    0    0    0  501 -0.00000000000E+00 -0.00000000000E+00 -0.69044798143E+02  0.69044798190E+02  0.25500000000E-02 0.  1.
    5000001    1    1    2    0    0 -0.17931936427E+03 -0.32814732452E+02  0.48781141753E+03  0.55365713229E+03  0.18800000000E+03 0.  0.
   -5000001    1    1    2    0    0  0.17931936427E+03  0.32814732452E+02  0.43849431445E+03  0.51073819602E+03  0.18800000000E+03 0.  0.
<mgrwt>
<rscale>  0 0.52430440E+03</rscale>
<asrwt>0</asrwt>
<pdfrwt beam="1">  1        2 0.14219293E+00 0.52430440E+03</pdfrwt>
<pdfrwt beam="2">  1       -2 0.98635428E-02 0.52430440E+03</pdfrwt>
<totfact> 0.19902476E+03</totfact>
</mgrwt>
</event>
<event>
 4    1  0.2209668E-005  0.4168391E+03  0.7818608E-02  0.1038100E+00
         -2   -1    0    0    0  501 -0.00000000000E+00  0.00000000000E+00  0.33854015916E+02  0.33854016012E+02  0.25500000000E-02 0. -1.
          2   -1    0    0  501    0  0.00000000000E+00 -0.00000000000E+00 -0.12831181493E+04  0.12831181493E+04  0.25500000000E-02 0.  1.
    5000001    1    1    2    0    0  0.24443405050E+02 -0.38380306357E+02 -0.37941146976E+03  0.42587274079E+03  0.18800000000E+03 0.  0.
   -5000001    1    1    2    0    0 -0.24443405050E+02  0.38380306357E+02 -0.86985266362E+03  0.89109942451E+03  0.18800000000E+03 0.  0.
<mgrwt>
<rscale>  0 0.41683907E+03</rscale>
<asrwt>0</asrwt>
<pdfrwt beam="1">  1        2 0.18330256E+00 0.41683907E+03</pdfrwt>
<pdfrwt beam="2">  1       -2 0.48362888E-02 0.41683907E+03</pdfrwt>
<totfact> 0.41817625E+03</totfact>
</mgrwt>
</event>
<event>
 4    1  0.2209668E-005  0.4399393E+03  0.7818608E-02  0.1030765E+00
          2   -1    0    0  501    0  0.00000000000E+00  0.00000000000E+00  0.29606291926E+03  0.29606291927E+03  0.25500000000E-02 0.  1.
         -2   -1    0    0    0  501 -0.00000000000E+00 -0.00000000000E+00 -0.16343367728E+03  0.16343367730E+03  0.25500000000E-02 0. -1.
    5000001    1    1    2    0    0  0.10488558929E+03  0.38762707624E+02  0.90565703979E+02  0.23674813850E+03  0.18800000000E+03 0.  0.
   -5000001    1    1    2    0    0 -0.10488558929E+03 -0.38762707624E+02  0.42063538002E+02  0.22274845807E+03  0.18800000000E+03 0.  0.
<mgrwt>
<rscale>  0 0.43993932E+03</rscale>
<asrwt>0</asrwt>
<pdfrwt beam="1">  1        2 0.42294703E-01 0.43993932E+03</pdfrwt>
<pdfrwt beam="2">  1       -2 0.23347668E-01 0.43993932E+03</pdfrwt>
<totfact> 0.19452184E+03</totfact>
</mgrwt>
</event>
<event>
 4    1  0.2209668E-005  0.5284310E+03  0.7818608E-02  0.1006613E+00
          2   -1    0    0  501    0  0.00000000000E+00  0.00000000000E+00  0.48134912080E+03  0.48134912081E+03  0.25500000000E-02 0.  1.
         -2   -1    0    0    0  501 -0.00000000000E+00 -0.00000000000E+00 -0.14502950155E+03  0.14502950157E+03  0.25500000000E-02 0. -1.
    5000001    1    1    2    0    0 -0.97524813520E+02  0.64071452221E+02  0.33931786669E+03  0.40508870004E+03  0.18800000000E+03 0.  0.
   -5000001    1    1    2    0    0  0.97524813520E+02 -0.64071452221E+02 -0.29982474392E+01  0.22128992234E+03  0.18800000000E+03 0.  0.
<mgrwt>
<rscale>  0 0.52843097E+03</rscale>
<asrwt>0</asrwt>
<pdfrwt beam="1">  1        2 0.68764161E-01 0.52843097E+03</pdfrwt>
<pdfrwt beam="2">  1       -2 0.20718500E-01 0.52843097E+03</pdfrwt>
<totfact> 0.14044053E+03</totfact>
</mgrwt>
</event>
<event>
 4    1  0.2209668E-005  0.5685119E+03  0.7818608E-02  0.9972977E-01
          2   -1    0    0  501    0  0.00000000000E+00  0.00000000000E+00  0.16118999423E+04  0.16118999423E+04  0.25500000000E-02 0.  1.
         -2   -1    0    0    0  501 -0.00000000000E+00 -0.00000000000E+00 -0.50128085102E+02  0.50128085167E+02  0.25500000000E-02 0. -1.
    5000001    1    1    2    0    0 -0.12488601557E+03 -0.32937965958E+02  0.28496298994E+03  0.36500593436E+03  0.18800000000E+03 0.  0.
   -5000001    1    1    2    0    0  0.12488601557E+03  0.32937965958E+02  0.12768088673E+04  0.12970220931E+04  0.18800000000E+03 0.  0.
<mgrwt>
<rscale>  0 0.56851194E+03</rscale>
<asrwt>0</asrwt>
<pdfrwt beam="1">  1        2 0.23027139E+00 0.56851194E+03</pdfrwt>
<pdfrwt beam="2">  1       -2 0.71611561E-02 0.56851194E+03</pdfrwt>
<totfact> 0.15237543E+03</totfact>
</mgrwt>
</event>
<event>
 4    1  0.2209668E-005  0.1143044E+04  0.7818608E-02  0.9164225E-01
         -2   -1    0    0    0  501 -0.00000000000E+00  0.00000000000E+00  0.30103156190E+03  0.30103156191E+03  0.25500000000E-02 0. -1.
          2   -1    0    0  501    0  0.00000000000E+00 -0.00000000000E+00 -0.10850594680E+04  0.10850594680E+04  0.25500000000E-02 0.  1.
    5000001    1    1    2    0    0 -0.86706876316E+02  0.53268540507E+03 -0.39761353565E+03  0.69621286035E+03  0.18800000000E+03 0.  0.
   -5000001    1    1    2    0    0  0.86706876316E+02 -0.53268540507E+03 -0.38641437048E+03  0.68987816960E+03  0.18800000000E+03 0.  0.
<mgrwt>
<rscale>  0 0.11430436E+04</rscale>
<asrwt>0</asrwt>
<pdfrwt beam="1">  1        2 0.15500849E+00 0.11430436E+04</pdfrwt>
<pdfrwt beam="2">  1       -2 0.43004509E-01 0.11430436E+04</pdfrwt>
<totfact> 0.12650315E+02</totfact>
</mgrwt>
</event>
<event>
 4    1  0.2209668E-005  0.7298356E+03  0.7818608E-02  0.9667527E-01
         -2   -1    0    0    0  501 -0.00000000000E+00  0.00000000000E+00  0.43590196268E+02  0.43590196342E+02  0.25500000000E-02 0. -1.
          2   -1    0    0  501    0  0.00000000000E+00 -0.00000000000E+00 -0.30549296761E+04  0.30549296761E+04  0.25500000000E-02 0.  1.
    5000001    1    1    2    0    0 -0.88271284774E+02  0.23182445907E+03 -0.23143974361E+04  0.23352331558E+04  0.18800000000E+03 0.  0.
   -5000001    1    1    2    0    0  0.88271284774E+02 -0.23182445907E+03 -0.69694204370E+03  0.76328671665E+03  0.18800000000E+03 0.  0.
<mgrwt>
<rscale>  0 0.72983555E+03</rscale>
<asrwt>0</asrwt>
<pdfrwt beam="1">  1        2 0.43641839E+00 0.72983555E+03</pdfrwt>
<pdfrwt beam="2">  1       -2 0.62271728E-02 0.72983555E+03</pdfrwt>
<totfact> 0.33827638E+02</totfact>
</mgrwt>
</event>
<event>
 4    1  0.2209668E-005  0.7933967E+03  0.7818608E-02  0.9569625E-01
          2   -1    0    0  501    0  0.00000000000E+00  0.00000000000E+00  0.13653085280E+03  0.13653085282E+03  0.25500000000E-02 0.  1.
         -2   -1    0    0    0  501 -0.00000000000E+00 -0.00000000000E+00 -0.11526301307E+04  0.11526301307E+04  0.25500000000E-02 0. -1.
    5000001    1    1    2    0    0  0.34279530497E+03 -0.17162324443E+02 -0.61363333998E+03  0.72780013907E+03  0.18800000000E+03 0.  0.
   -5000001    1    1    2    0    0 -0.34279530497E+03  0.17162324443E+02 -0.40246593790E+03  0.56136084443E+03  0.18800000000E+03 0.  0.
<mgrwt>
<rscale>  0 0.79339668E+03</rscale>
<asrwt>0</asrwt>
<pdfrwt beam="1">  1        2 0.19504408E-01 0.79339668E+03</pdfrwt>
<pdfrwt beam="2">  1       -2 0.16466144E+00 0.79339668E+03</pdfrwt>
<totfact> 0.68853831E+01</totfact>
</mgrwt>
</event>
<event>
 4    1  0.2209668E-005  0.7748442E+03  0.7818608E-02  0.9597160E-01
         -2   -1    0    0    0  501 -0.00000000000E+00  0.00000000000E+00  0.54537953634E+03  0.54537953634E+03  0.25500000000E-02 0. -1.
          2   -1    0    0  501    0  0.00000000000E+00 -0.00000000000E+00 -0.27521363395E+03  0.27521363397E+03  0.25500000000E-02 0.  1.
    5000001    1    1    2    0    0 -0.17701664534E+03  0.18447827190E+02 -0.17016520431E+03  0.30979898614E+03  0.18800000000E+03 0.  0.
   -5000001    1    1    2    0    0  0.17701664534E+03 -0.18447827190E+02  0.44033110670E+03  0.51079418417E+03  0.18800000000E+03 0.  0.
<mgrwt>
<rscale>  0 0.77484420E+03</rscale>
<asrwt>0</asrwt>
<pdfrwt beam="1">  1        2 0.39316234E-01 0.77484420E+03</pdfrwt>
<pdfrwt beam="2">  1       -2 0.77911362E-01 0.77484420E+03</pdfrwt>
<totfact> 0.19413976E+02</totfact>
</mgrwt>
</event>
<event>
 4    1  0.2209668E-005  0.5804367E+03  0.7818608E-02  0.9946846E-01
          2   -1    0    0  501    0  0.00000000000E+00  0.00000000000E+00  0.42567231875E+02  0.42567231952E+02  0.25500000000E-02 0.  1.
         -2   -1    0    0    0  501 -0.00000000000E+00 -0.00000000000E+00 -0.19786740571E+04  0.19786740571E+04  0.25500000000E-02 0. -1.
    5000001    1    1    2    0    0  0.88973043422E+02  0.16390102583E+03 -0.13815938539E+04  0.14067428073E+04  0.18800000000E+03 0.  0.
   -5000001    1    1    2    0    0 -0.88973043422E+02 -0.16390102583E+03 -0.55451297132E+03  0.61449848176E+03  0.18800000000E+03 0.  0.
<mgrwt>
<rscale>  0 0.58043665E+03</rscale>
<asrwt>0</asrwt>
<pdfrwt beam="1">  1        2 0.60810344E-02 0.58043665E+03</pdfrwt>
<pdfrwt beam="2">  1       -2 0.28266767E+00 0.58043665E+03</pdfrwt>
<totfact> 0.54269558E+01</totfact>
</mgrwt>
</event>
<event>
 4    1  0.2209668E-005  0.1818398E+04  0.7818608E-02  0.8696576E-01
          2   -1    0    0  501    0  0.00000000000E+00  0.00000000000E+00  0.99798107100E+03  0.99798107100E+03  0.25500000000E-02 0. -1.
         -2   -1    0    0    0  501 -0.00000000000E+00 -0.00000000000E+00 -0.82831500166E+03  0.82831500166E+03  0.25500000000E-02 0.  1.
    5000001    1    1    2    0    0 -0.58276343900E+03  0.30278173662E+03  0.68744640609E+03  0.96913186261E+03  0.18800000000E+03 0.  0.
   -5000001    1    1    2    0    0  0.58276343900E+03 -0.30278173662E+03 -0.51778033676E+03  0.85716421006E+03  0.18800000000E+03 0.  0.
<mgrwt>
<rscale>  0 0.18183979E+04</rscale>
<asrwt>0</asrwt>
<pdfrwt beam="1">  1        2 0.14256872E+00 0.18183979E+04</pdfrwt>
<pdfrwt beam="2">  1       -2 0.11833071E+00 0.18183979E+04</pdfrwt>
<totfact> 0.14646229E+01</totfact>
</mgrwt>
</event>
<event>
 4    1  0.2209668E-005  0.4388158E+03  0.7818608E-02  0.1031111E+00
          2   -1    0    0  501    0  0.00000000000E+00  0.00000000000E+00  0.18690417157E+04  0.18690417157E+04  0.25500000000E-02 0.  1.
         -2   -1    0    0    0  501 -0.00000000000E+00 -0.00000000000E+00 -0.25756421751E+02  0.25756421878E+02  0.25500000000E-02 0. -1.
    5000001    1    1    2    0    0 -0.88554981614E+02  0.64563685665E+02  0.80063340243E+03  0.82967963658E+03  0.18800000000E+03 0.  0.
   -5000001    1    1    2    0    0  0.88554981614E+02 -0.64563685665E+02  0.10426518915E+04  0.10651185010E+04  0.18800000000E+03 0.  0.
<mgrwt>
<rscale>  0 0.43881580E+03</rscale>
<asrwt>0</asrwt>
<pdfrwt beam="1">  1        2 0.26700604E+00 0.43881580E+03</pdfrwt>
<pdfrwt beam="2">  1       -2 0.36794878E-02 0.43881580E+03</pdfrwt>
<totfact> 0.31815729E+03</totfact>
</mgrwt>
</event>
<event>
 4    1  0.2209668E-005  0.5260971E+03  0.7818608E-02  0.1007183E+00
         -2   -1    0    0    0  501 -0.00000000000E+00  0.00000000000E+00  0.36025489791E+02  0.36025489882E+02  0.25500000000E-02 0. -1.
          2   -1    0    0  501    0  0.00000000000E+00 -0.00000000000E+00 -0.19207103966E+04  0.19207103966E+04  0.25500000000E-02 0.  1.
    5000001    1    1    2    0    0  0.11439226356E+03  0.14404832275E+03 -0.95675875052E+03  0.99225340309E+03  0.18800000000E+03 0.  0.
   -5000001    1    1    2    0    0 -0.11439226356E+03 -0.14404832275E+03 -0.92792615633E+03  0.96448248344E+03  0.18800000000E+03 0.  0.
<mgrwt>
<rscale>  0 0.52609707E+03</rscale>
<asrwt>0</asrwt>
<pdfrwt beam="1">  1        2 0.27438713E+00 0.52609707E+03</pdfrwt>
<pdfrwt beam="2">  1       -2 0.51464998E-02 0.52609707E+03</pdfrwt>
<totfact> 0.17868509E+03</totfact>
</mgrwt>
</event>
<event>
 4    1  0.2209668E-005  0.4143624E+03  0.7818608E-02  0.1038917E+00
         -2   -1    0    0    0  501 -0.00000000000E+00  0.00000000000E+00  0.55028616989E+02  0.55028617048E+02  0.25500000000E-02 0. -1.
          2   -1    0    0  501    0  0.00000000000E+00 -0.00000000000E+00 -0.78003148055E+03  0.78003148055E+03  0.25500000000E-02 0.  1.
    5000001    1    1    2    0    0 -0.59883544923E+02  0.69564024426E+01 -0.48909019939E+03  0.52743497574E+03  0.18800000000E+03 0.  0.
   -5000001    1    1    2    0    0  0.59883544923E+02 -0.69564024426E+01 -0.23591266417E+03  0.30762512186E+03  0.18800000000E+03 0.  0.
<mgrwt>
<rscale>  0 0.41436242E+03</rscale>
<asrwt>0</asrwt>
<pdfrwt beam="1">  1        2 0.11143306E+00 0.41436242E+03</pdfrwt>
<pdfrwt beam="2">  1       -2 0.78612315E-02 0.41436242E+03</pdfrwt>
<totfact> 0.39350423E+03</totfact>
</mgrwt>
</event>
<event>
 4    1  0.2209668E-005  0.8197630E+03  0.7818608E-02  0.9531843E-01
          2   -1    0    0  501    0  0.00000000000E+00  0.00000000000E+00  0.84504055932E+03  0.84504055933E+03  0.25500000000E-02 0.  1.
         -2   -1    0    0    0  501 -0.00000000000E+00 -0.00000000000E+00 -0.19881040286E+03  0.19881040288E+03  0.25500000000E-02 0. -1.
    5000001    1    1    2    0    0  0.22070135404E+03 -0.72407661900E+02 -0.34122030208E+02  0.30076613859E+03  0.18800000000E+03 0.  0.
   -5000001    1    1    2    0    0 -0.22070135404E+03  0.72407661900E+02  0.68035218667E+03  0.74308482361E+03  0.18800000000E+03 0.  0.
<mgrwt>
<rscale>  0 0.81976302E+03</rscale>
<asrwt>0</asrwt>
<pdfrwt beam="1">  1        2 0.12072008E+00 0.81976302E+03</pdfrwt>
<pdfrwt beam="2">  1       -2 0.28401487E-01 0.81976302E+03</pdfrwt>
<totfact> 0.40241047E+02</totfact>
</mgrwt>
</event>
<event>
 4    1  0.2209668E-005  0.4710510E+03  0.7818608E-02  0.1021624E+00
         -2   -1    0    0    0  501 -0.00000000000E+00  0.00000000000E+00  0.45120233448E+03  0.45120233449E+03  0.25500000000E-02 0. -1.
          2   -1    0    0  501    0  0.00000000000E+00 -0.00000000000E+00 -0.12294320737E+03  0.12294320739E+03  0.25500000000E-02 0.  1.
    5000001    1    1    2    0    0 -0.82175159536E+02 -0.62516339103E+01  0.30488777318E+03  0.36754917222E+03  0.18800000000E+03 0.  0.
   -5000001    1    1    2    0    0  0.82175159536E+02  0.62516339103E+01  0.23371353938E+02  0.20659636966E+03  0.18800000000E+03 0.  0.
<mgrwt>
<rscale>  0 0.47105100E+03</rscale>
<asrwt>0</asrwt>
<pdfrwt beam="1">  1        2 0.17563315E-01 0.47105100E+03</pdfrwt>
<pdfrwt beam="2">  1       -2 0.64457476E-01 0.47105100E+03</pdfrwt>
<totfact> 0.74063148E+02</totfact>
</mgrwt>
</event>
<event>
 4    1  0.2209668E-005  0.4461217E+03  0.7818608E-02  0.1028885E+00
          2   -1    0    0  501    0  0.00000000000E+00  0.00000000000E+00  0.57588724724E+02  0.57588724780E+02  0.25500000000E-02 0.  1.
         -2   -1    0    0    0  501 -0.00000000000E+00 -0.00000000000E+00 -0.86399099762E+03  0.86399099762E+03  0.25500000000E-02 0. -1.
    5000001    1    1    2    0    0  0.59428100141E+02  0.10100666499E+03 -0.34940827827E+03  0.41371994197E+03  0.18800000000E+03 0.  0.
   -5000001    1    1    2    0    0 -0.59428100141E+02 -0.10100666499E+03 -0.45699399463E+03  0.50785978044E+03  0.18800000000E+03 0.  0.
<mgrwt>
<rscale>  0 0.44612169E+03</rscale>
<asrwt>0</asrwt>
<pdfrwt beam="1">  1        2 0.82269612E-02 0.44612169E+03</pdfrwt>
<pdfrwt beam="2">  1       -2 0.12342728E+00 0.44612169E+03</pdfrwt>
<totfact> 0.42747685E+02</totfact>
</mgrwt>
</event>
<event>
 4    1  0.2209668E-005  0.5768282E+03  0.7818608E-02  0.9954682E-01
          2   -1    0    0  501    0  0.00000000000E+00  0.00000000000E+00  0.12482886060E+04  0.12482886060E+04  0.25500000000E-02 0.  1.
         -2   -1    0    0    0  501 -0.00000000000E+00 -0.00000000000E+00 -0.66637383350E+02  0.66637383399E+02  0.25500000000E-02 0. -1.
    5000001    1    1    2    0    0 -0.71667214529E+02 -0.15102485862E+03  0.26929984821E+03  0.36852558365E+03  0.18800000000E+03 0.  0.
   -5000001    1    1    2    0    0  0.71667214529E+02  0.15102485862E+03  0.91235137440E+03  0.94640040571E+03  0.18800000000E+03 0.  0.
<mgrwt>
<rscale>  0 0.57682818E+03</rscale>
<asrwt>0</asrwt>
<pdfrwt beam="1">  1        2 0.17832694E+00 0.57682818E+03</pdfrwt>
<pdfrwt beam="2">  1       -2 0.95196264E-02 0.57682818E+03</pdfrwt>
<totfact> 0.15053139E+03</totfact>
</mgrwt>
</event>
<event>
 4    1  0.2209668E-005  0.9707852E+03  0.7818608E-02  0.9341180E-01
          2   -1    0    0  501    0  0.00000000000E+00  0.00000000000E+00  0.14325707919E+04  0.14325707919E+04  0.25500000000E-02 0.  1.
         -2   -1    0    0    0  501 -0.00000000000E+00 -0.00000000000E+00 -0.16446374879E+03  0.16446374881E+03  0.25500000000E-02 0. -1.
    5000001    1    1    2    0    0  0.82451713394E+02 -0.43252852684E+03  0.76548371146E+03  0.90287791206E+03  0.18800000000E+03 0.  0.
   -5000001    1    1    2    0    0 -0.82451713394E+02  0.43252852684E+03  0.50262333163E+03  0.69415662863E+03  0.18800000000E+03 0.  0.
<mgrwt>
<rscale>  0 0.97078517E+03</rscale>
<asrwt>0</asrwt>
<pdfrwt beam="1">  1        2 0.20465297E+00 0.97078517E+03</pdfrwt>
<pdfrwt beam="2">  1       -2 0.23494822E-01 0.97078517E+03</pdfrwt>
<totfact> 0.25423545E+02</totfact>
</mgrwt>
</event>
<event>
 4    1  0.2209668E-005  0.4420333E+03  0.7818608E-02  0.1030125E+00
          2   -1    0    0  501    0  0.00000000000E+00  0.00000000000E+00  0.52394371746E+02  0.52394371808E+02  0.25500000000E-02 0.  1.
         -2   -1    0    0    0  501 -0.00000000000E+00 -0.00000000000E+00 -0.93232064282E+03  0.93232064282E+03  0.25500000000E-02 0. -1.
    5000001    1    1    2    0    0 -0.10957858344E+03 -0.36626438271E+02 -0.41219347624E+03  0.46754296464E+03  0.18800000000E+03 0.  0.
   -5000001    1    1    2    0    0  0.10957858344E+03  0.36626438271E+02 -0.46773279483E+03  0.51717204999E+03  0.18800000000E+03 0.  0.
<mgrwt>
<rscale>  0 0.44203328E+03</rscale>
<asrwt>0</asrwt>
<pdfrwt beam="1">  1        2 0.74849108E-02 0.44203328E+03</pdfrwt>
<pdfrwt beam="2">  1       -2 0.13318865E+00 0.44203328E+03</pdfrwt>
<totfact> 0.39948305E+02</totfact>
</mgrwt>
</event>
<event>
 4    1  0.2209668E-005  0.5650465E+03  0.7818608E-02  0.9980700E-01
         -2   -1    0    0    0  501 -0.00000000000E+00  0.00000000000E+00  0.31495517234E+03  0.31495517235E+03  0.25500000000E-02 0. -1.
          2   -1    0    0  501    0  0.00000000000E+00 -0.00000000000E+00 -0.25343097877E+03  0.25343097879E+03  0.25500000000E-02 0.  1.
    5000001    1    1    2    0    0 -0.15716850958E+03  0.78391030787E+02  0.14819239596E+03  0.29690416018E+03  0.18800000000E+03 0.  0.
   -5000001    1    1    2    0    0  0.15716850958E+03 -0.78391030787E+02 -0.86668202392E+02  0.27148199096E+03  0.18800000000E+03 0.  0.
<mgrwt>
<rscale>  0 0.56504654E+03</rscale>
<asrwt>0</asrwt>
<pdfrwt beam="1">  1        2 0.36204425E-01 0.56504654E+03</pdfrwt>
<pdfrwt beam="2">  1       -2 0.44993596E-01 0.56504654E+03</pdfrwt>
<totfact> 0.67853354E+02</totfact>
</mgrwt>
</event>
<event>
 4    1  0.2209668E-005  0.7650585E+03  0.7818608E-02  0.9612018E-01
         -2   -1    0    0    0  501 -0.00000000000E+00  0.00000000000E+00  0.63881974759E+03  0.63881974760E+03  0.25500000000E-02 0. -1.
          2   -1    0    0  501    0  0.00000000000E+00 -0.00000000000E+00 -0.22906090168E+03  0.22906090170E+03  0.25500000000E-02 0.  1.
    5000001    1    1    2    0    0  0.14186733905E+03  0.28624184599E+03  0.97717008130E+02  0.38334494905E+03  0.18800000000E+03 0.  0.
   -5000001    1    1    2    0    0 -0.14186733905E+03 -0.28624184599E+03  0.31204183778E+03  0.48453570024E+03  0.18800000000E+03 0.  0.
<mgrwt>
<rscale>  0 0.76505850E+03</rscale>
<asrwt>0</asrwt>
<pdfrwt beam="1">  1        2 0.32722986E-01 0.76505850E+03</pdfrwt>
<pdfrwt beam="2">  1       -2 0.91259964E-01 0.76505850E+03</pdfrwt>
<totfact> 0.16646216E+02</totfact>
</mgrwt>
</event>
<event>
 4    1  0.2209668E-005  0.4508116E+03  0.7818608E-02  0.1027480E+00
          2   -1    0    0  501    0  0.00000000000E+00  0.00000000000E+00  0.99086223923E+03  0.99086223924E+03  0.25500000000E-02 0.  1.
         -2   -1    0    0    0  501 -0.00000000000E+00 -0.00000000000E+00 -0.51276315985E+02  0.51276316049E+02  0.25500000000E-02 0. -1.
    5000001    1    1    2    0    0  0.10717174051E+03 -0.57977600324E+02  0.41239115470E+03  0.46931614992E+03  0.18800000000E+03 0.  0.
   -5000001    1    1    2    0    0 -0.10717174051E+03  0.57977600324E+02  0.52719476855E+03  0.57282240536E+03  0.18800000000E+03 0.  0.
<mgrwt>
<rscale>  0 0.45081156E+03</rscale>
<asrwt>0</asrwt>
<pdfrwt beam="1">  1        2 0.14155174E+00 0.45081156E+03</pdfrwt>
<pdfrwt beam="2">  1       -2 0.73251883E-02 0.45081156E+03</pdfrwt>
<totfact> 0.32170018E+03</totfact>
</mgrwt>
</event>
<event>
 4    1  0.2209668E-005  0.5483967E+03  0.7818608E-02  0.1001866E+00
          2   -1    0    0  501    0  0.00000000000E+00  0.00000000000E+00  0.90000018947E+03  0.90000018948E+03  0.25500000000E-02 0.  1.
         -2   -1    0    0    0  501 -0.00000000000E+00 -0.00000000000E+00 -0.83538570659E+02  0.83538570698E+02  0.25500000000E-02 0. -1.
    5000001    1    1    2    0    0 -0.19795803124E+03 -0.15086921372E+02  0.44523618950E+03  0.52248852788E+03  0.18800000000E+03 0.  0.
   -5000001    1    1    2    0    0  0.19795803124E+03  0.15086921372E+02  0.37122542931E+03  0.46105023229E+03  0.18800000000E+03 0.  0.
<mgrwt>
<rscale>  0 0.54839668E+03</rscale>
<asrwt>0</asrwt>
<pdfrwt beam="1">  1        2 0.12857146E+00 0.54839668E+03</pdfrwt>
<pdfrwt beam="2">  1       -2 0.11934081E-01 0.54839668E+03</pdfrwt>
<totfact> 0.16737263E+03</totfact>
</mgrwt>
</event>
<event>
 4    1  0.2209668E-005  0.5087220E+03  0.7818608E-02  0.1011527E+00
          2   -1    0    0  501    0  0.00000000000E+00  0.00000000000E+00  0.94329867530E+03  0.94329867530E+03  0.25500000000E-02 0.  1.
         -2   -1    0    0    0  501 -0.00000000000E+00 -0.00000000000E+00 -0.68588589885E+02  0.68588589932E+02  0.25500000000E-02 0. -1.
    5000001    1    1    2    0    0  0.37266698729E+02  0.14657822011E+03  0.27721835522E+03  0.36751598321E+03  0.18800000000E+03 0.  0.
   -5000001    1    1    2    0    0 -0.37266698729E+02 -0.14657822011E+03  0.59749173020E+03  0.64437128202E+03  0.18800000000E+03 0.  0.
<mgrwt>
<rscale>  0 0.50872203E+03</rscale>
<asrwt>0</asrwt>
<pdfrwt beam="1">  1        2 0.13475696E+00 0.50872203E+03</pdfrwt>
<pdfrwt beam="2">  1       -2 0.97983692E-02 0.50872203E+03</pdfrwt>
<totfact> 0.21660027E+03</totfact>
</mgrwt>
</event>
<event>
 4    1  0.2209668E-005  0.6113077E+03  0.7818608E-02  0.9882220E-01
         -2   -1    0    0    0  501 -0.00000000000E+00  0.00000000000E+00  0.10119558635E+03  0.10119558638E+03  0.25500000000E-02 0. -1.
          2   -1    0    0  501    0  0.00000000000E+00 -0.00000000000E+00 -0.92320497374E+03  0.92320497375E+03  0.25500000000E-02 0.  1.
    5000001    1    1    2    0    0  0.21586045403E+02 -0.23999727366E+03 -0.40438177228E+03  0.50688585152E+03  0.18800000000E+03 0.  0.
   -5000001    1    1    2    0    0 -0.21586045403E+02  0.23999727366E+03 -0.41762761511E+03  0.51751470861E+03  0.18800000000E+03 0.  0.
<mgrwt>
<rscale>  0 0.61130768E+03</rscale>
<asrwt>0</asrwt>
<pdfrwt beam="1">  1        2 0.13188642E+00 0.61130768E+03</pdfrwt>
<pdfrwt beam="2">  1       -2 0.14456513E-01 0.61130768E+03</pdfrwt>
<totfact> 0.11755008E+03</totfact>
</mgrwt>
</event>
<event>
 4    1  0.2209668E-005  0.8523576E+03  0.7818608E-02  0.9487178E-01
         -2   -1    0    0    0  501 -0.00000000000E+00  0.00000000000E+00  0.13730059183E+03  0.13730059185E+03  0.25500000000E-02 0. -1.
          2   -1    0    0  501    0  0.00000000000E+00 -0.00000000000E+00 -0.13228520035E+04  0.13228520035E+04  0.25500000000E-02 0.  1.
    5000001    1    1    2    0    0  0.27747184234E+03  0.40534379859E+02 -0.14720916146E+03  0.36830448879E+03  0.18800000000E+03 0.  0.
   -5000001    1    1    2    0    0 -0.27747184234E+03 -0.40534379859E+02 -0.10383422502E+04  0.10918481066E+04  0.18800000000E+03 0.  0.
<mgrwt>
<rscale>  0 0.85235758E+03</rscale>
<asrwt>0</asrwt>
<pdfrwt beam="1">  1        2 0.18897885E+00 0.85235758E+03</pdfrwt>
<pdfrwt beam="2">  1       -2 0.19614371E-01 0.85235758E+03</pdfrwt>
<totfact> 0.40375264E+02</totfact>
</mgrwt>
</event>
<event>
 4    1  0.2209668E-005  0.4701669E+03  0.7818608E-02  0.1021873E+00
          2   -1    0    0  501    0  0.00000000000E+00  0.00000000000E+00  0.55692164586E+02  0.55692164644E+02  0.25500000000E-02 0.  1.
         -2   -1    0    0    0  501 -0.00000000000E+00 -0.00000000000E+00 -0.99231587524E+03  0.99231587525E+03  0.25500000000E-02 0. -1.
    5000001    1    1    2    0    0  0.13539920032E+03  0.40951096429E+01 -0.37997694767E+03  0.44505751778E+03  0.18800000000E+03 0.  0.
   -5000001    1    1    2    0    0 -0.13539920032E+03 -0.40951096429E+01 -0.55664676299E+03  0.60295052212E+03  0.18800000000E+03 0.  0.
<mgrwt>
<rscale>  0 0.47016686E+03</rscale>
<asrwt>0</asrwt>
<pdfrwt beam="1">  1        2 0.79560241E-02 0.47016686E+03</pdfrwt>
<pdfrwt beam="2">  1       -2 0.14175940E+00 0.47016686E+03</pdfrwt>
<totfact> 0.31484360E+02</totfact>
</mgrwt>
</event>
<event>
 4    1  0.2209668E-005  0.7949784E+03  0.7818608E-02  0.9567314E-01
          2   -1    0    0  501    0  0.00000000000E+00  0.00000000000E+00  0.45788685268E+04  0.45788685269E+04  0.25500000000E-02 0.  1.
         -2   -1    0    0    0  501 -0.00000000000E+00 -0.00000000000E+00 -0.34505830370E+02  0.34505830464E+02  0.25500000000E-02 0. -1.
    5000001    1    1    2    0    0 -0.26263326217E+03 -0.14555801760E+03  0.33182018427E+04  0.33370602086E+04  0.18800000000E+03 0.  0.
   -5000001    1    1    2    0    0  0.26263326217E+03  0.14555801760E+03  0.12261608538E+04  0.12763141487E+04  0.18800000000E+03 0.  0.
<mgrwt>
<rscale>  0 0.79497839E+03</rscale>
<asrwt>0</asrwt>
<pdfrwt beam="1">  1        2 0.65412426E+00 0.79497839E+03</pdfrwt>
<pdfrwt beam="2">  1       -2 0.49294030E-02 0.79497839E+03</pdfrwt>
<totfact> 0.49001796E+01</totfact>
</mgrwt>
</event>
<event>
 4    1  0.2209668E-005  0.6271137E+03  0.7818608E-02  0.9850697E-01
          2   -1    0    0  501    0  0.00000000000E+00  0.00000000000E+00  0.17404698607E+04  0.17404698607E+04  0.25500000000E-02 0.  1.
         -2   -1    0    0    0  501 -0.00000000000E+00 -0.00000000000E+00 -0.56489280084E+02  0.56489280141E+02  0.25500000000E-02 0. -1.
    5000001    1    1    2    0    0  0.47826934789E+02  0.24602512692E+03  0.80595959867E+03  0.86471420334E+03  0.18800000000E+03 0.  0.
   -5000001    1    1    2    0    0 -0.47826934789E+02 -0.24602512692E+03  0.87802098198E+03  0.93224493753E+03  0.18800000000E+03 0.  0.
<mgrwt>
<rscale>  0 0.62711367E+03</rscale>
<asrwt>0</asrwt>
<pdfrwt beam="1">  1        2 0.24863855E+00 0.62711367E+03</pdfrwt>
<pdfrwt beam="2">  1       -2 0.80698972E-02 0.62711367E+03</pdfrwt>
<totfact> 0.10811719E+03</totfact>
</mgrwt>
</event>
<event>
 4    1  0.2209668E-005  0.5442553E+03  0.7818608E-02  0.1002832E+00
          2   -1    0    0  501    0  0.00000000000E+00  0.00000000000E+00  0.79040705922E+02  0.79040705963E+02  0.25500000000E-02 0.  1.
         -2   -1    0    0    0  501 -0.00000000000E+00 -0.00000000000E+00 -0.93690267235E+03  0.93690267235E+03  0.25500000000E-02 0. -1.
    5000001    1    1    2    0    0 -0.14354991354E+03 -0.24805441752E+02 -0.67578004766E+03  0.71641088799E+03  0.18800000000E+03 0.  0.
   -5000001    1    1    2    0    0  0.14354991354E+03  0.24805441752E+02 -0.18208191877E+03  0.29953249032E+03  0.18800000000E+03 0.  0.
<mgrwt>
<rscale>  0 0.54425527E+03</rscale>
<asrwt>0</asrwt>
<pdfrwt beam="1">  1        2 0.11291530E-01 0.54425527E+03</pdfrwt>
<pdfrwt beam="2">  1       -2 0.13384323E+00 0.54425527E+03</pdfrwt>
<totfact> 0.23323210E+02</totfact>
</mgrwt>
</event>
<event>
 4    1  0.2209668E-005  0.4553516E+03  0.7818608E-02  0.1026138E+00
         -2   -1    0    0    0  501 -0.00000000000E+00  0.00000000000E+00  0.23269157242E+02  0.23269157382E+02  0.25500000000E-02 0. -1.
          2   -1    0    0  501    0  0.00000000000E+00 -0.00000000000E+00 -0.22276818164E+04  0.22276818164E+04  0.25500000000E-02 0.  1.
    5000001    1    1    2    0    0 -0.67337481532E+02  0.97381491881E+02 -0.13481230551E+04  0.13663078947E+04  0.18800000000E+03 0.  0.
   -5000001    1    1    2    0    0  0.67337481532E+02 -0.97381491881E+02 -0.85628960399E+03  0.88464307903E+03  0.18800000000E+03 0.  0.
<mgrwt>
<rscale>  0 0.45535164E+03</rscale>
<asrwt>0</asrwt>
<pdfrwt beam="1">  1        2 0.31824012E+00 0.45535164E+03</pdfrwt>
<pdfrwt beam="2">  1       -2 0.33241667E-02 0.45535164E+03</pdfrwt>
<totfact> 0.24599452E+03</totfact>
</mgrwt>
</event>
<event>
 4    1  0.2209668E-005  0.6734580E+03  0.7818608E-02  0.9763731E-01
          2   -1    0    0  501    0  0.00000000000E+00  0.00000000000E+00  0.10843773888E+03  0.10843773891E+03  0.25500000000E-02 0.  1.
         -2   -1    0    0    0  501 -0.00000000000E+00 -0.00000000000E+00 -0.10456362605E+04  0.10456362605E+04  0.25500000000E-02 0. -1.
    5000001    1    1    2    0    0 -0.61826574152E+02  0.24442032412E+03 -0.26240025018E+03  0.40958724517E+03  0.18800000000E+03 0.  0.
   -5000001    1    1    2    0    0  0.61826574152E+02 -0.24442032412E+03 -0.67479827146E+03  0.74448675427E+03  0.18800000000E+03 0.  0.
<mgrwt>
<rscale>  0 0.67345804E+03</rscale>
<asrwt>0</asrwt>
<pdfrwt beam="1">  1        2 0.15491106E-01 0.67345804E+03</pdfrwt>
<pdfrwt beam="2">  1       -2 0.14937660E+00 0.67345804E+03</pdfrwt>
<totfact> 0.11847544E+02</totfact>
</mgrwt>
</event>
<event>
 4    1  0.2209668E-005  0.7406968E+03  0.7818608E-02  0.9650060E-01
         -2   -1    0    0    0  501 -0.00000000000E+00  0.00000000000E+00  0.33626316332E+03  0.33626316333E+03  0.25500000000E-02 0. -1.
          2   -1    0    0  501    0  0.00000000000E+00 -0.00000000000E+00 -0.40788863335E+03  0.40788863336E+03  0.25500000000E-02 0.  1.
    5000001    1    1    2    0    0 -0.99057376358E+02  0.19300358656E+03 -0.27089388578E+03  0.39470273066E+03  0.18800000000E+03 0.  0.
   -5000001    1    1    2    0    0  0.99057376358E+02 -0.19300358656E+03  0.19926841575E+03  0.34944906603E+03  0.18800000000E+03 0.  0.
<mgrwt>
<rscale>  0 0.74069676E+03</rscale>
<asrwt>0</asrwt>
<pdfrwt beam="1">  1        2 0.58269805E-01 0.74069676E+03</pdfrwt>
<pdfrwt beam="2">  1       -2 0.48037595E-01 0.74069676E+03</pdfrwt>
<totfact> 0.34990708E+02</totfact>
</mgrwt>
</event>
<event>
 4    1  0.2209668E-005  0.5990701E+03  0.7818608E-02  0.9907337E-01
         -2   -1    0    0    0  501 -0.00000000000E+00  0.00000000000E+00  0.10087661562E+03  0.10087661565E+03  0.25500000000E-02 0. -1.
          2   -1    0    0  501    0  0.00000000000E+00 -0.00000000000E+00 -0.88941579574E+03  0.88941579574E+03  0.25500000000E-02 0.  1.
    5000001    1    1    2    0    0 -0.22477828874E+03  0.57528286942E+02 -0.43277082337E+03  0.52580354549E+03  0.18800000000E+03 0.  0.
   -5000001    1    1    2    0    0  0.22477828874E+03 -0.57528286942E+02 -0.35576835675E+03  0.46448886590E+03  0.18800000000E+03 0.  0.
<mgrwt>
<rscale>  0 0.59907013E+03</rscale>
<asrwt>0</asrwt>
<pdfrwt beam="1">  1        2 0.12705940E+00 0.59907013E+03</pdfrwt>
<pdfrwt beam="2">  1       -2 0.14410946E-01 0.59907013E+03</pdfrwt>
<totfact> 0.12426875E+03</totfact>
</mgrwt>
</event>
<event>
 4    1  0.2209668E-005  0.9812913E+03  0.7818608E-02  0.9329305E-01
          2   -1    0    0  501    0  0.00000000000E+00  0.00000000000E+00  0.10672989457E+03  0.10672989460E+03  0.25500000000E-02 0.  1.
         -2   -1    0    0    0  501 -0.00000000000E+00 -0.00000000000E+00 -0.22555364793E+04  0.22555364793E+04  0.25500000000E-02 0. -1.
    5000001    1    1    2    0    0 -0.44235853763E+03 -0.63479710172E+02 -0.89300019078E+03  0.10161220843E+04  0.18800000000E+03 0.  0.
   -5000001    1    1    2    0    0  0.44235853763E+03  0.63479710172E+02 -0.12558063940E+04  0.13461442896E+04  0.18800000000E+03 0.  0.
<mgrwt>
<rscale>  0 0.98129133E+03</rscale>
<asrwt>0</asrwt>
<pdfrwt beam="1">  1        2 0.15247129E-01 0.98129133E+03</pdfrwt>
<pdfrwt beam="2">  1       -2 0.32221947E+00 0.98129133E+03</pdfrwt>
<totfact> 0.93257193E+00</totfact>
</mgrwt>
</event>
<event>
 4    1  0.2209668E-005  0.6837554E+03  0.7818608E-02  0.9745423E-01
          2   -1    0    0  501    0  0.00000000000E+00  0.00000000000E+00  0.81854695725E+03  0.81854695725E+03  0.25500000000E-02 0.  1.
         -2   -1    0    0    0  501 -0.00000000000E+00 -0.00000000000E+00 -0.14279004754E+03  0.14279004756E+03  0.25500000000E-02 0. -1.
    5000001    1    1    2    0    0  0.27720145405E+03  0.16106375944E+02  0.43152359113E+03  0.54649489584E+03  0.18800000000E+03 0.  0.
   -5000001    1    1    2    0    0 -0.27720145405E+03 -0.16106375944E+02  0.24423331858E+03  0.41484210898E+03  0.18800000000E+03 0.  0.
<mgrwt>
<rscale>  0 0.68375539E+03</rscale>
<asrwt>0</asrwt>
<pdfrwt beam="1">  1        2 0.11693528E+00 0.68375539E+03</pdfrwt>
<pdfrwt beam="2">  1       -2 0.20398578E-01 0.68375539E+03</pdfrwt>
<totfact> 0.76302024E+02</totfact>
</mgrwt>
</event>
<event>
 4    1  0.2209668E-005  0.6013117E+03  0.7818608E-02  0.9902688E-01
         -2   -1    0    0    0  501 -0.00000000000E+00  0.00000000000E+00  0.20508443949E+03  0.20508443950E+03  0.25500000000E-02 0. -1.
          2   -1    0    0  501    0  0.00000000000E+00 -0.00000000000E+00 -0.44076450891E+03  0.44076450892E+03  0.25500000000E-02 0.  1.
    5000001    1    1    2    0    0  0.52426421711E+02 -0.17899681876E+03  0.35045939786E+02  0.26713406506E+03  0.18800000000E+03 0.  0.
   -5000001    1    1    2    0    0 -0.52426421711E+02  0.17899681876E+03 -0.27072600921E+03  0.37871488336E+03  0.18800000000E+03 0.  0.
<mgrwt>
<rscale>  0 0.60131171E+03</rscale>
<asrwt>0</asrwt>
<pdfrwt beam="1">  1        2 0.62966358E-01 0.60131171E+03</pdfrwt>
<pdfrwt beam="2">  1       -2 0.29297777E-01 0.60131171E+03</pdfrwt>
<totfact> 0.83339027E+02</totfact>
</mgrwt>
</event>
<event>
 4    1  0.2209668E-005  0.2324954E+04  0.7818608E-02  0.8468146E-01
          2   -1    0    0  501    0  0.00000000000E+00  0.00000000000E+00  0.93891519909E+03  0.93891519909E+03  0.25500000000E-02 0.  1.
         -2   -1    0    0    0  501 -0.00000000000E+00 -0.00000000000E+00 -0.14392708396E+04  0.14392708396E+04  0.25500000000E-02 0. -1.
    5000001    1    1    2    0    0 -0.62403657881E+02  0.11304472538E+04 -0.61000011441E+02  0.11492911779E+04  0.18800000000E+03 0.  0.
   -5000001    1    1    2    0    0  0.62403657881E+02 -0.11304472538E+04 -0.43935562908E+03  0.12288948608E+04  0.18800000000E+03 0.  0.
<mgrwt>
<rscale>  0 0.23249544E+04</rscale>
<asrwt>0</asrwt>
<pdfrwt beam="1">  1        2 0.13413074E+00 0.23249544E+04</pdfrwt>
<pdfrwt beam="2">  1       -2 0.20561012E+00 0.23249544E+04</pdfrwt>
<totfact> 0.34089977E+00</totfact>
</mgrwt>
</event>
<event>
 4    1  0.2209668E-005  0.4268409E+03  0.7818608E-02  0.1034863E+00
         -2   -1    0    0    0  501 -0.00000000000E+00  0.00000000000E+00  0.13301582294E+04  0.13301582294E+04  0.25500000000E-02 0. -1.
          2   -1    0    0  501    0  0.00000000000E+00 -0.00000000000E+00 -0.34242762894E+02  0.34242762989E+02  0.25500000000E-02 0.  1.
    5000001    1    1    2    0    0  0.33233566844E+02  0.88498968886E+02  0.53414424749E+03  0.57409982981E+03  0.18800000000E+03 0.  0.
   -5000001    1    1    2    0    0 -0.33233566844E+02 -0.88498968886E+02  0.76177121902E+03  0.79030116259E+03  0.18800000000E+03 0.  0.
<mgrwt>
<rscale>  0 0.42684092E+03</rscale>
<asrwt>0</asrwt>
<pdfrwt beam="1">  1        2 0.48918229E-02 0.42684092E+03</pdfrwt>
<pdfrwt beam="2">  1       -2 0.19002262E+00 0.42684092E+03</pdfrwt>
<totfact> 0.27052288E+02</totfact>
</mgrwt>
</event>
<event>
 4    1  0.2209668E-005  0.4889147E+03  0.7818608E-02  0.1016714E+00
          2   -1    0    0  501    0  0.00000000000E+00  0.00000000000E+00  0.27135432133E+03  0.27135432134E+03  0.25500000000E-02 0.  1.
         -2   -1    0    0    0  501 -0.00000000000E+00 -0.00000000000E+00 -0.22022648018E+03  0.22022648019E+03  0.25500000000E-02 0. -1.
    5000001    1    1    2    0    0 -0.35208306985E+02  0.13817211589E+03  0.89820538227E+02  0.25247353837E+03  0.18800000000E+03 0.  0.
   -5000001    1    1    2    0    0  0.35208306985E+02 -0.13817211589E+03 -0.38692697074E+02  0.23910726316E+03  0.18800000000E+03 0.  0.
<mgrwt>
<rscale>  0 0.48891475E+03</rscale>
<asrwt>0</asrwt>
<pdfrwt beam="1">  1        2 0.38764903E-01 0.48891475E+03</pdfrwt>
<pdfrwt beam="2">  1       -2 0.31460926E-01 0.48891475E+03</pdfrwt>
<totfact> 0.12489606E+03</totfact>
</mgrwt>
</event>
<event>
 4    1  0.2209668E-005  0.7414366E+03  0.7818608E-02  0.9648882E-01
         -2   -1    0    0    0  501 -0.00000000000E+00  0.00000000000E+00  0.20731230475E+03  0.20731230476E+03  0.25500000000E-02 0. -1.
          2   -1    0    0  501    0  0.00000000000E+00 -0.00000000000E+00 -0.66292285998E+03  0.66292285998E+03  0.25500000000E-02 0.  1.
    5000001    1    1    2    0    0 -0.11240908939E+03 -0.11331453468E+03  0.97065926864E+02  0.26503166095E+03  0.18800000000E+03 0.  0.
   -5000001    1    1    2    0    0  0.11240908939E+03  0.11331453468E+03 -0.55267648210E+03  0.60520350380E+03  0.18800000000E+03 0.  0.
<mgrwt>
<rscale>  0 0.74143662E+03</rscale>
<asrwt>0</asrwt>
<pdfrwt beam="1">  1        2 0.94703265E-01 0.74143662E+03</pdfrwt>
<pdfrwt beam="2">  1       -2 0.29616044E-01 0.74143662E+03</pdfrwt>
<totfact> 0.50727974E+02</totfact>
</mgrwt>
</event>
<event>
 4    1  0.2209668E-005  0.5918741E+03  0.7818608E-02  0.9922410E-01
         -2   -1    0    0    0  501 -0.00000000000E+00  0.00000000000E+00  0.47801112689E+02  0.47801112757E+02  0.25500000000E-02 0. -1.
          2   -1    0    0  501    0  0.00000000000E+00 -0.00000000000E+00 -0.18321485309E+04  0.18321485309E+04  0.25500000000E-02 0.  1.
    5000001    1    1    2    0    0 -0.15938884546E+03 -0.51442745149E+02 -0.13861170780E+04  0.14087993874E+04  0.18800000000E+03 0.  0.
   -5000001    1    1    2    0    0  0.15938884546E+03  0.51442745149E+02 -0.39823034021E+03  0.47115025623E+03  0.18800000000E+03 0.  0.
<mgrwt>
<rscale>  0 0.59187410E+03</rscale>
<asrwt>0</asrwt>
<pdfrwt beam="1">  1        2 0.26173546E+00 0.59187410E+03</pdfrwt>
<pdfrwt beam="2">  1       -2 0.68287315E-02 0.59187410E+03</pdfrwt>
<totfact> 0.12686021E+03</totfact>
</mgrwt>
</event>
<event>
 4    1  0.2209668E-005  0.1081678E+04  0.7818608E-02  0.9223236E-01
         -2   -1    0    0    0  501 -0.00000000000E+00  0.00000000000E+00  0.40865671566E+03  0.40865671567E+03  0.25500000000E-02 0. -1.
          2   -1    0    0  501    0  0.00000000000E+00 -0.00000000000E+00 -0.71577631228E+03  0.71577631229E+03  0.25500000000E-02 0.  1.
    5000001    1    1    2    0    0  0.47854398947E+03  0.14465224808E+02  0.20228424236E+02  0.51474924160E+03  0.18800000000E+03 0.  0.
   -5000001    1    1    2    0    0 -0.47854398947E+03 -0.14465224808E+02 -0.32734802085E+03  0.60968378635E+03  0.18800000000E+03 0.  0.
<mgrwt>
<rscale>  0 0.10816780E+04</rscale>
<asrwt>0</asrwt>
<pdfrwt beam="1">  1        2 0.10225376E+00 0.10816780E+04</pdfrwt>
<pdfrwt beam="2">  1       -2 0.58379531E-01 0.10816780E+04</pdfrwt>
<totfact> 0.11946365E+02</totfact>
</mgrwt>
</event>
<event>
 4    1  0.2209668E-005  0.5751120E+03  0.7818608E-02  0.9958430E-01
         -2   -1    0    0    0  501 -0.00000000000E+00  0.00000000000E+00  0.10155895050E+03  0.10155895054E+03  0.25500000000E-02 0. -1.
          2   -1    0    0  501    0  0.00000000000E+00 -0.00000000000E+00 -0.81419174389E+03  0.81419174389E+03  0.25500000000E-02 0.  1.
    5000001    1    1    2    0    0  0.14727290403E+03 -0.13355132089E+03 -0.21551536192E+03  0.34830465802E+03  0.18800000000E+03 0.  0.
   -5000001    1    1    2    0    0 -0.14727290403E+03  0.13355132089E+03 -0.49711743146E+03  0.56744603641E+03  0.18800000000E+03 0.  0.
<mgrwt>
<rscale>  0 0.57511202E+03</rscale>
<asrwt>0</asrwt>
<pdfrwt beam="1">  1        2 0.11631310E+00 0.57511202E+03</pdfrwt>
<pdfrwt beam="2">  1       -2 0.14508422E-01 0.57511202E+03</pdfrwt>
<totfact> 0.13796372E+03</totfact>
</mgrwt>
</event>
<event>
 4    1  0.2209668E-005  0.4430550E+03  0.7818608E-02  0.1029814E+00
         -2   -1    0    0    0  501 -0.00000000000E+00  0.00000000000E+00  0.21137107864E+03  0.21137107866E+03  0.25500000000E-02 0. -1.
          2   -1    0    0  501    0  0.00000000000E+00 -0.00000000000E+00 -0.23217197363E+03  0.23217197365E+03  0.25500000000E-02 0.  1.
    5000001    1    1    2    0    0  0.44529158843E+02  0.83331472480E+02 -0.79783788013E+02  0.22502540551E+03  0.18800000000E+03 0.  0.
   -5000001    1    1    2    0    0 -0.44529158843E+02 -0.83331472480E+02  0.58982893025E+02  0.21851764680E+03  0.18800000000E+03 0.  0.
<mgrwt>
<rscale>  0 0.44305503E+03</rscale>
<asrwt>0</asrwt>
<pdfrwt beam="1">  1        2 0.33167425E-01 0.44305503E+03</pdfrwt>
<pdfrwt beam="2">  1       -2 0.30195868E-01 0.44305503E+03</pdfrwt>
<totfact> 0.15992108E+03</totfact>
</mgrwt>
</event>
<event>
 4    1  0.2209668E-005  0.4907617E+03  0.7818608E-02  0.1016219E+00
         -2   -1    0    0    0  501 -0.00000000000E+00  0.00000000000E+00  0.10757858762E+03  0.10757858765E+03  0.25500000000E-02 0. -1.
          2   -1    0    0  501    0  0.00000000000E+00 -0.00000000000E+00 -0.55970026893E+03  0.55970026893E+03  0.25500000000E-02 0.  1.
    5000001    1    1    2    0    0  0.11948777289E+03  0.10288872969E+03 -0.22889533076E+03  0.33555996634E+03  0.18800000000E+03 0.  0.
   -5000001    1    1    2    0    0 -0.11948777289E+03 -0.10288872969E+03 -0.22322635055E+03  0.33171889025E+03  0.18800000000E+03 0.  0.
<mgrwt>
<rscale>  0 0.49076171E+03</rscale>
<asrwt>0</asrwt>
<pdfrwt beam="1">  1        2 0.79957180E-01 0.49076171E+03</pdfrwt>
<pdfrwt beam="2">  1       -2 0.15368370E-01 0.49076171E+03</pdfrwt>
<totfact> 0.19716466E+03</totfact>
</mgrwt>
</event>
<event>
 4    1  0.2209668E-005  0.4524670E+03  0.7818608E-02  0.1026989E+00
         -2   -1    0    0    0  501 -0.00000000000E+00  0.00000000000E+00  0.25811993461E+03  0.25811993462E+03  0.25500000000E-02 0. -1.
          2   -1    0    0  501    0  0.00000000000E+00 -0.00000000000E+00 -0.19828611907E+03  0.19828611909E+03  0.25500000000E-02 0.  1.
    5000001    1    1    2    0    0  0.12420016718E+03  0.13034911775E+02  0.14224817186E+02  0.22614582878E+03  0.18800000000E+03 0.  0.
   -5000001    1    1    2    0    0 -0.12420016718E+03 -0.13034911775E+02  0.45608998357E+02  0.23026022493E+03  0.18800000000E+03 0.  0.
<mgrwt>
<rscale>  0 0.45246702E+03</rscale>
<asrwt>0</asrwt>
<pdfrwt beam="1">  1        2 0.28326588E-01 0.45246702E+03</pdfrwt>
<pdfrwt beam="2">  1       -2 0.36874277E-01 0.45246702E+03</pdfrwt>
<totfact> 0.13123259E+03</totfact>
</mgrwt>
</event>
<event>
 4    1  0.2209668E-005  0.6160713E+03  0.7818608E-02  0.9872613E-01
          2   -1    0    0  501    0  0.00000000000E+00  0.00000000000E+00  0.89021258738E+03  0.89021258738E+03  0.25500000000E-02 0.  1.
         -2   -1    0    0    0  501 -0.00000000000E+00 -0.00000000000E+00 -0.10658797467E+03  0.10658797470E+03  0.25500000000E-02 0. -1.
    5000001    1    1    2    0    0  0.14161556774E+03 -0.11543241982E+03  0.13010512787E+03  0.29266184731E+03  0.18800000000E+03 0.  0.
   -5000001    1    1    2    0    0 -0.14161556774E+03  0.11543241982E+03  0.65351948484E+03  0.70413871477E+03  0.18800000000E+03 0.  0.
<mgrwt>
<rscale>  0 0.61607128E+03</rscale>
<asrwt>0</asrwt>
<pdfrwt beam="1">  1        2 0.12717323E+00 0.61607128E+03</pdfrwt>
<pdfrwt beam="2">  1       -2 0.15226853E-01 0.61607128E+03</pdfrwt>
<totfact> 0.11310348E+03</totfact>
</mgrwt>
</event>
<event>
 4    1  0.2209668E-005  0.5490528E+03  0.7818608E-02  0.1001713E+00
          2   -1    0    0  501    0  0.00000000000E+00  0.00000000000E+00  0.13997921097E+04  0.13997921097E+04  0.25500000000E-02 0.  1.
         -2   -1    0    0    0  501 -0.00000000000E+00 -0.00000000000E+00 -0.53839954856E+02  0.53839954916E+02  0.25500000000E-02 0. -1.
    5000001    1    1    2    0    0  0.69306127292E+02  0.16796051285E+03  0.45136256175E+03  0.52161886019E+03  0.18800000000E+03 0.  0.
   -5000001    1    1    2    0    0 -0.69306127292E+02 -0.16796051285E+03  0.89458959307E+03  0.93201320441E+03  0.18800000000E+03 0.  0.
<mgrwt>
<rscale>  0 0.54905280E+03</rscale>
<asrwt>0</asrwt>
<pdfrwt beam="1">  1        2 0.19997031E+00 0.54905280E+03</pdfrwt>
<pdfrwt beam="2">  1       -2 0.76914218E-02 0.54905280E+03</pdfrwt>
<totfact> 0.17551499E+03</totfact>
</mgrwt>
</event>
<event>
 4    1  0.2209668E-005  0.4120518E+03  0.7818608E-02  0.1039685E+00
          2   -1    0    0  501    0  0.00000000000E+00  0.00000000000E+00  0.95310633530E+03  0.95310633530E+03  0.25500000000E-02 0.  1.
         -2   -1    0    0    0  501 -0.00000000000E+00 -0.00000000000E+00 -0.44535087199E+02  0.44535087272E+02  0.25500000000E-02 0. -1.
    5000001    1    1    2    0    0 -0.73951306782E+02 -0.35810673958E+02  0.40889469946E+03  0.45748232249E+03  0.18800000000E+03 0.  0.
   -5000001    1    1    2    0    0  0.73951306782E+02  0.35810673958E+02  0.49967654864E+03  0.54015910008E+03  0.18800000000E+03 0.  0.
<mgrwt>
<rscale>  0 0.41205181E+03</rscale>
<asrwt>0</asrwt>
<pdfrwt beam="1">  1        2 0.13615803E+00 0.41205181E+03</pdfrwt>
<pdfrwt beam="2">  1       -2 0.63621563E-02 0.41205181E+03</pdfrwt>
<totfact> 0.42267566E+03</totfact>
</mgrwt>
</event>
<event>
 4    1  0.2209668E-005  0.5438037E+03  0.7818608E-02  0.1002938E+00
         -2   -1    0    0    0  501 -0.00000000000E+00  0.00000000000E+00  0.14442744380E+03  0.14442744383E+03  0.25500000000E-02 0. -1.
          2   -1    0    0  501    0  0.00000000000E+00 -0.00000000000E+00 -0.51188768130E+03  0.51188768131E+03  0.25500000000E-02 0.  1.
    5000001    1    1    2    0    0 -0.78296328523E+02 -0.14108049284E+03 -0.48511276520E+02  0.25245071691E+03  0.18800000000E+03 0.  0.
   -5000001    1    1    2    0    0  0.78296328523E+02  0.14108049284E+03 -0.31894896098E+03  0.40386440822E+03  0.18800000000E+03 0.  0.
<mgrwt>
<rscale>  0 0.54380375E+03</rscale>
<asrwt>0</asrwt>
<pdfrwt beam="1">  1        2 0.73126811E-01 0.54380375E+03</pdfrwt>
<pdfrwt beam="2">  1       -2 0.20632492E-01 0.54380375E+03</pdfrwt>
<totfact> 0.13194008E+03</totfact>
</mgrwt>
</event>
<event>
 4    1  0.2209668E-005  0.4733679E+03  0.7818608E-02  0.1020974E+00
         -2   -1    0    0    0  501 -0.00000000000E+00  0.00000000000E+00  0.58808606538E+02  0.58808606593E+02  0.25500000000E-02 0. -1.
          2   -1    0    0  501    0  0.00000000000E+00 -0.00000000000E+00 -0.95256947901E+03  0.95256947902E+03  0.25500000000E-02 0.  1.
    5000001    1    1    2    0    0 -0.10011272989E+03  0.89867981667E+02 -0.33843097744E+03  0.40985160645E+03  0.18800000000E+03 0.  0.
   -5000001    1    1    2    0    0  0.10011272989E+03 -0.89867981667E+02 -0.55532989504E+03  0.60152647916E+03  0.18800000000E+03 0.  0.
<mgrwt>
<rscale>  0 0.47336786E+03</rscale>
<asrwt>0</asrwt>
<pdfrwt beam="1">  1        2 0.13608135E+00 0.47336786E+03</pdfrwt>
<pdfrwt beam="2">  1       -2 0.84012301E-02 0.47336786E+03</pdfrwt>
<totfact> 0.27342275E+03</totfact>
</mgrwt>
</event>
<event>
 4    1  0.2209668E-005  0.6862554E+03  0.7818608E-02  0.9741030E-01
          2   -1    0    0  501    0  0.00000000000E+00  0.00000000000E+00  0.45996972634E+03  0.45996972635E+03  0.25500000000E-02 0.  1.
         -2   -1    0    0    0  501 -0.00000000000E+00 -0.00000000000E+00 -0.25596598122E+03  0.25596598123E+03  0.25500000000E-02 0. -1.
    5000001    1    1    2    0    0 -0.12672786085E+03 -0.25634023546E+03  0.75976287591E+02  0.35055194095E+03  0.18800000000E+03 0.  0.
   -5000001    1    1    2    0    0  0.12672786085E+03  0.25634023546E+03  0.12802745753E+03  0.36538376662E+03  0.18800000000E+03 0.  0.
<mgrwt>
<rscale>  0 0.68625535E+03</rscale>
<asrwt>0</asrwt>
<pdfrwt beam="1">  1        2 0.65709960E-01 0.68625535E+03</pdfrwt>
<pdfrwt beam="2">  1       -2 0.36566569E-01 0.68625535E+03</pdfrwt>
<totfact> 0.52323099E+02</totfact>
</mgrwt>
</event>
<event>
 4    1  0.2209668E-005  0.8043038E+03  0.7818608E-02  0.9553808E-01
         -2   -1    0    0    0  501 -0.00000000000E+00  0.00000000000E+00  0.14713304895E+03  0.14713304897E+03  0.25500000000E-02 0. -1.
          2   -1    0    0  501    0  0.00000000000E+00 -0.00000000000E+00 -0.10991830303E+04  0.10991830303E+04  0.25500000000E-02 0.  1.
    5000001    1    1    2    0    0 -0.34074796328E+03 -0.39402546230E+02 -0.62072770126E+03  0.73369517801E+03  0.18800000000E+03 0.  0.
   -5000001    1    1    2    0    0  0.34074796328E+03  0.39402546230E+02 -0.33132228012E+03  0.51262090128E+03  0.18800000000E+03 0.  0.
<mgrwt>
<rscale>  0 0.80430380E+03</rscale>
<asrwt>0</asrwt>
<pdfrwt beam="1">  1        2 0.15702614E+00 0.80430380E+03</pdfrwt>
<pdfrwt beam="2">  1       -2 0.21019008E-01 0.80430380E+03</pdfrwt>
<totfact> 0.47953881E+02</totfact>
</mgrwt>
</event>
<event>
 4    1  0.2209668E-005  0.5602791E+03  0.7818608E-02  0.9991423E-01
         -2   -1    0    0    0  501 -0.00000000000E+00  0.00000000000E+00  0.14659918780E+03  0.14659918782E+03  0.25500000000E-02 0. -1.
          2   -1    0    0  501    0  0.00000000000E+00 -0.00000000000E+00 -0.53532462256E+03  0.53532462257E+03  0.25500000000E-02 0.  1.
    5000001    1    1    2    0    0 -0.39651563941E+02 -0.17620478757E+03 -0.31916166829E+03  0.41210258941E+03  0.18800000000E+03 0.  0.
   -5000001    1    1    2    0    0  0.39651563941E+02  0.17620478757E+03 -0.69563766469E+02  0.26982122098E+03  0.18800000000E+03 0.  0.
<mgrwt>
<rscale>  0 0.56027906E+03</rscale>
<asrwt>0</asrwt>
<pdfrwt beam="1">  1        2 0.76474945E-01 0.56027906E+03</pdfrwt>
<pdfrwt beam="2">  1       -2 0.20942741E-01 0.56027906E+03</pdfrwt>
<totfact> 0.12212223E+03</totfact>
</mgrwt>
</event>
<event>
 4    1  0.2209668E-005  0.4220013E+03  0.7818608E-02  0.1036417E+00
          2   -1    0    0  501    0  0.00000000000E+00  0.00000000000E+00  0.65788587771E+03  0.65788587772E+03  0.25500000000E-02 0. -1.
         -2   -1    0    0    0  501 -0.00000000000E+00 -0.00000000000E+00 -0.67673260347E+02  0.67673260395E+02  0.25500000000E-02 0.  1.
    5000001    1    1    2    0    0  0.33016301364E+02  0.61844429780E+02  0.18285541920E+03  0.27146807176E+03  0.18800000000E+03 0.  0.
   -5000001    1    1    2    0    0 -0.33016301364E+02 -0.61844429780E+02  0.40735719816E+03  0.45409106636E+03  0.18800000000E+03 0.  0.
<mgrwt>
<rscale>  0 0.42200134E+03</rscale>
<asrwt>0</asrwt>
<pdfrwt beam="1">  1        2 0.93983698E-01 0.42200134E+03</pdfrwt>
<pdfrwt beam="2">  1       -2 0.96676085E-02 0.42200134E+03</pdfrwt>
<totfact> 0.34850174E+03</totfact>
</mgrwt>
</event>
<event>
 4    1  0.2209668E-005  0.5525947E+03  0.7818608E-02  0.1000895E+00
         -2   -1    0    0    0  501 -0.00000000000E+00  0.00000000000E+00  0.62541200755E+02  0.62541200807E+02  0.25500000000E-02 0. -1.
          2   -1    0    0  501    0  0.00000000000E+00 -0.00000000000E+00 -0.12206388592E+04  0.12206388592E+04  0.25500000000E-02 0.  1.
    5000001    1    1    2    0    0  0.14308886432E+03  0.14168038086E+03 -0.62822400691E+03  0.68597168766E+03  0.18800000000E+03 0.  0.
   -5000001    1    1    2    0    0 -0.14308886432E+03 -0.14168038086E+03 -0.52987365152E+03  0.59720837233E+03  0.18800000000E+03 0.  0.
<mgrwt>
<rscale>  0 0.55259468E+03</rscale>
<asrwt>0</asrwt>
<pdfrwt beam="1">  1        2 0.17437697E+00 0.55259468E+03</pdfrwt>
<pdfrwt beam="2">  1       -2 0.89344580E-02 0.55259468E+03</pdfrwt>
<totfact> 0.17277028E+03</totfact>
</mgrwt>
</event>
<event>
 4    1  0.2209668E-005  0.5087764E+03  0.7818608E-02  0.1011513E+00
          2   -1    0    0  501    0  0.00000000000E+00  0.00000000000E+00  0.64860194852E+03  0.64860194853E+03  0.25500000000E-02 0.  1.
         -2   -1    0    0    0  501 -0.00000000000E+00 -0.00000000000E+00 -0.99773617311E+02  0.99773617343E+02  0.25500000000E-02 0. -1.
    5000001    1    1    2    0    0 -0.11816818538E+02  0.14260144711E+03  0.13568918379E+03  0.27245249956E+03  0.18800000000E+03 0.  0.
   -5000001    1    1    2    0    0  0.11816818538E+02 -0.14260144711E+03  0.41313914742E+03  0.47592306631E+03  0.18800000000E+03 0.  0.
<mgrwt>
<rscale>  0 0.50877642E+03</rscale>
<asrwt>0</asrwt>
<pdfrwt beam="1">  1        2 0.92657424E-01 0.50877642E+03</pdfrwt>
<pdfrwt beam="2">  1       -2 0.14253373E-01 0.50877642E+03</pdfrwt>
<totfact> 0.18822999E+03</totfact>
</mgrwt>
</event>
<event>
 4    1  0.2209668E-005  0.5378072E+03  0.7818608E-02  0.1004356E+00
         -2   -1    0    0    0  501 -0.00000000000E+00  0.00000000000E+00  0.97989845122E+02  0.97989845155E+02  0.25500000000E-02 0. -1.
          2   -1    0    0  501    0  0.00000000000E+00 -0.00000000000E+00 -0.73792497126E+03  0.73792497126E+03  0.25500000000E-02 0.  1.
    5000001    1    1    2    0    0 -0.17441597330E+03 -0.45234641005E+02 -0.42421070377E+03  0.49776081171E+03  0.18800000000E+03 0.  0.
   -5000001    1    1    2    0    0  0.17441597330E+03  0.45234641005E+02 -0.21572442237E+03  0.33815400470E+03  0.18800000000E+03 0.  0.
<mgrwt>
<rscale>  0 0.53780723E+03</rscale>
<asrwt>0</asrwt>
<pdfrwt beam="1">  1        2 0.10541785E+00 0.53780723E+03</pdfrwt>
<pdfrwt beam="2">  1       -2 0.13998550E-01 0.53780723E+03</pdfrwt>
<totfact> 0.16584850E+03</totfact>
</mgrwt>
</event>
<event>
 4    1  0.2209668E-005  0.5582844E+03  0.7818608E-02  0.9995944E-01
          2   -1    0    0  501    0  0.00000000000E+00  0.00000000000E+00  0.14563109079E+04  0.14563109079E+04  0.25500000000E-02 0.  1.
         -2   -1    0    0    0  501 -0.00000000000E+00 -0.00000000000E+00 -0.53505304795E+02  0.53505304856E+02  0.25500000000E-02 0. -1.
    5000001    1    1    2    0    0  0.47982515088E+02 -0.19807121519E+03  0.61411224622E+03  0.67380440708E+03  0.18800000000E+03 0.  0.
   -5000001    1    1    2    0    0 -0.47982515088E+02  0.19807121519E+03  0.78869335688E+03  0.83601180568E+03  0.18800000000E+03 0.  0.
<mgrwt>
<rscale>  0 0.55828437E+03</rscale>
<asrwt>0</asrwt>
<pdfrwt beam="1">  1        2 0.20804438E+00 0.55828437E+03</pdfrwt>
<pdfrwt beam="2">  1       -2 0.76436161E-02 0.55828437E+03</pdfrwt>
<totfact> 0.16547933E+03</totfact>
</mgrwt>
</event>
<event>
 4    1  0.2209668E-005  0.7604709E+03  0.7818608E-02  0.9619065E-01
         -2   -1    0    0    0  501 -0.00000000000E+00  0.00000000000E+00  0.73588939974E+02  0.73588940019E+02  0.25500000000E-02 0. -1.
          2   -1    0    0  501    0  0.00000000000E+00 -0.00000000000E+00 -0.19646839685E+04  0.19646839685E+04  0.25500000000E-02 0.  1.
    5000001    1    1    2    0    0 -0.25591545650E+00  0.25717675581E+03 -0.15019556407E+04  0.15353679350E+04  0.18800000000E+03 0.  0.
   -5000001    1    1    2    0    0  0.25591545650E+00 -0.25717675581E+03 -0.38913938782E+03  0.50290497350E+03  0.18800000000E+03 0.  0.
<mgrwt>
<rscale>  0 0.76047093E+03</rscale>
<asrwt>0</asrwt>
<pdfrwt beam="1">  1        2 0.28066911E+00 0.76047093E+03</pdfrwt>
<pdfrwt beam="2">  1       -2 0.10512707E-01 0.76047093E+03</pdfrwt>
<totfact> 0.53902714E+02</totfact>
</mgrwt>
</event>
<event>
 4    1  0.2209668E-005  0.4102671E+03  0.7818608E-02  0.1040281E+00
          2   -1    0    0  501    0  0.00000000000E+00  0.00000000000E+00  0.36233184221E+04  0.36233184221E+04  0.25500000000E-02 0.  1.
         -2   -1    0    0    0  501 -0.00000000000E+00 -0.00000000000E+00 -0.11613602668E+02  0.11613602948E+02  0.25500000000E-02 0. -1.
    5000001    1    1    2    0    0 -0.41676797953E+02  0.60669041798E+02  0.21275164927E+04  0.21370746629E+04  0.18800000000E+03 0.  0.
   -5000001    1    1    2    0    0  0.41676797953E+02 -0.60669041798E+02  0.14841883268E+04  0.14978573622E+04  0.18800000000E+03 0.  0.
<mgrwt>
<rscale>  0 0.41026714E+03</rscale>
<asrwt>0</asrwt>
<pdfrwt beam="1">  1        2 0.51761667E+00 0.41026714E+03</pdfrwt>
<pdfrwt beam="2">  1       -2 0.16590869E-02 0.41026714E+03</pdfrwt>
<totfact> 0.12380900E+03</totfact>
</mgrwt>
</event>
<event>
 4    1  0.2209668E-005  0.1054593E+04  0.7818608E-02  0.9250615E-01
          2   -1    0    0  501    0  0.00000000000E+00  0.00000000000E+00  0.17803173904E+03  0.17803173906E+03  0.25500000000E-02 0.  1.
         -2   -1    0    0    0  501 -0.00000000000E+00 -0.00000000000E+00 -0.15617518758E+04  0.15617518758E+04  0.25500000000E-02 0. -1.
    5000001    1    1    2    0    0  0.13396335328E+03 -0.46586900117E+03 -0.54693514186E+03  0.75462716336E+03  0.18800000000E+03 0.  0.
   -5000001    1    1    2    0    0 -0.13396335328E+03  0.46586900117E+03 -0.83678499494E+03  0.98515645155E+03  0.18800000000E+03 0.  0.
<mgrwt>
<rscale>  0 0.10545926E+04</rscale>
<asrwt>0</asrwt>
<pdfrwt beam="1">  1        2 0.25433106E-01 0.10545926E+04</pdfrwt>
<pdfrwt beam="2">  1       -2 0.22310740E+00 0.10545926E+04</pdfrwt>
<totfact> 0.20288590E+01</totfact>
</mgrwt>
</event>
<event>
 4    1  0.2209668E-005  0.9390820E+03  0.7818608E-02  0.9378004E-01
         -2   -1    0    0    0  501 -0.00000000000E+00  0.00000000000E+00  0.10878908766E+03  0.10878908769E+03  0.25500000000E-02 0. -1.
          2   -1    0    0  501    0  0.00000000000E+00 -0.00000000000E+00 -0.20265703697E+04  0.20265703697E+04  0.25500000000E-02 0.  1.
    5000001    1    1    2    0    0  0.41273938868E+03 -0.95934168721E+02 -0.78922242941E+03  0.91529951970E+03  0.18800000000E+03 0.  0.
   -5000001    1    1    2    0    0 -0.41273938868E+03  0.95934168721E+02 -0.11285588526E+04  0.12200599377E+04  0.18800000000E+03 0.  0.
<mgrwt>
<rscale>  0 0.93908198E+03</rscale>
<asrwt>0</asrwt>
<pdfrwt beam="1">  1        2 0.28951003E+00 0.93908198E+03</pdfrwt>
<pdfrwt beam="2">  1       -2 0.15541299E-01 0.93908198E+03</pdfrwt>
<totfact> 0.25824149E+02</totfact>
</mgrwt>
</event>
<event>
 4    1  0.2209668E-005  0.5472695E+03  0.7818608E-02  0.1002128E+00
          2   -1    0    0  501    0  0.00000000000E+00  0.00000000000E+00  0.28126390591E+04  0.28126390591E+04  0.25500000000E-02 0.  1.
         -2   -1    0    0    0  501 -0.00000000000E+00 -0.00000000000E+00 -0.26621257410E+02  0.26621257532E+02  0.25500000000E-02 0. -1.
    5000001    1    1    2    0    0 -0.14341819853E+03 -0.11528075477E+03  0.17837882663E+04  0.18030815320E+04  0.18800000000E+03 0.  0.
   -5000001    1    1    2    0    0  0.14341819853E+03  0.11528075477E+03  0.10022295354E+04  0.10361787846E+04  0.18800000000E+03 0.  0.
<mgrwt>
<rscale>  0 0.54726954E+03</rscale>
<asrwt>0</asrwt>
<pdfrwt beam="1">  1        2 0.40180531E+00 0.54726954E+03</pdfrwt>
<pdfrwt beam="2">  1       -2 0.38030393E-02 0.54726954E+03</pdfrwt>
<totfact> 0.99947434E+02</totfact>
</mgrwt>
</event>
<event>
 4    1  0.2209668E-005  0.6866425E+03  0.7818608E-02  0.9740352E-01
         -2   -1    0    0    0  501 -0.00000000000E+00  0.00000000000E+00  0.35360243491E+03  0.35360243492E+03  0.25500000000E-02 0. -1.
          2   -1    0    0  501    0  0.00000000000E+00 -0.00000000000E+00 -0.33333904050E+03  0.33333904051E+03  0.25500000000E-02 0.  1.
    5000001    1    1    2    0    0  0.84749049718E+01 -0.18859941060E+03 -0.20648955152E+03  0.33708084577E+03  0.18800000000E+03 0.  0.
   -5000001    1    1    2    0    0 -0.84749049718E+01  0.18859941060E+03  0.22675294594E+03  0.34986062966E+03  0.18800000000E+03 0.  0.
<mgrwt>
<rscale>  0 0.68664255E+03</rscale>
<asrwt>0</asrwt>
<pdfrwt beam="1">  1        2 0.47619863E-01 0.68664255E+03</pdfrwt>
<pdfrwt beam="2">  1       -2 0.50514634E-01 0.68664255E+03</pdfrwt>
<totfact> 0.39620908E+02</totfact>
</mgrwt>
</event>
<event>
 4    1  0.2209668E-005  0.4429136E+03  0.7818608E-02  0.1029857E+00
          2   -1    0    0  501    0  0.00000000000E+00  0.00000000000E+00  0.29089113955E+04  0.29089113955E+04  0.25500000000E-02 0.  1.
         -2   -1    0    0    0  501 -0.00000000000E+00 -0.00000000000E+00 -0.16859611587E+02  0.16859611779E+02  0.25500000000E-02 0. -1.
    5000001    1    1    2    0    0  0.10497417024E+03 -0.87440904796E+00  0.17879183091E+04  0.18008376442E+04  0.18800000000E+03 0.  0.
   -5000001    1    1    2    0    0 -0.10497417024E+03  0.87440904796E+00  0.11041334749E+04  0.11249333630E+04  0.18800000000E+03 0.  0.
<mgrwt>
<rscale>  0 0.44291361E+03</rscale>
<asrwt>0</asrwt>
<pdfrwt beam="1">  1        2 0.41555830E+00 0.44291361E+03</pdfrwt>
<pdfrwt beam="2">  1       -2 0.24085187E-02 0.44291361E+03</pdfrwt>
<totfact> 0.17899250E+03</totfact>
</mgrwt>
</event>
<event>
 4    1  0.2209668E-005  0.5016203E+03  0.7818608E-02  0.1013357E+00
          2   -1    0    0  501    0  0.00000000000E+00  0.00000000000E+00  0.31636743524E+03  0.31636743525E+03  0.25500000000E-02 0.  1.
         -2   -1    0    0    0  501 -0.00000000000E+00 -0.00000000000E+00 -0.19883755010E+03  0.19883755012E+03  0.25500000000E-02 0. -1.
    5000001    1    1    2    0    0  0.80831084726E+02  0.14380927450E+03  0.77896087757E+02  0.26196673869E+03  0.18800000000E+03 0.  0.
   -5000001    1    1    2    0    0 -0.80831084726E+02 -0.14380927450E+03  0.39633797385E+02  0.25323824669E+03  0.18800000000E+03 0.  0.
<mgrwt>
<rscale>  0 0.50162028E+03</rscale>
<asrwt>0</asrwt>
<pdfrwt beam="1">  1        2 0.45195348E-01 0.50162028E+03</pdfrwt>
<pdfrwt beam="2">  1       -2 0.28405365E-01 0.50162028E+03</pdfrwt>
<totfact> 0.12734429E+03</totfact>
</mgrwt>
</event>
<event>
 4    1  0.2209668E-005  0.6429523E+03  0.7818608E-02  0.9820094E-01
         -2   -1    0    0    0  501 -0.00000000000E+00  0.00000000000E+00  0.54123811118E+03  0.54123811119E+03  0.25500000000E-02 0. -1.
          2   -1    0    0  501    0  0.00000000000E+00 -0.00000000000E+00 -0.19094534842E+03  0.19094534844E+03  0.25500000000E-02 0.  1.
    5000001    1    1    2    0    0 -0.94507428695E+02 -0.24303945939E+03  0.17315210132E+03  0.36513762212E+03  0.18800000000E+03 0.  0.
   -5000001    1    1    2    0    0  0.94507428695E+02  0.24303945939E+03  0.17714066144E+03  0.36704583751E+03  0.18800000000E+03 0.  0.
<mgrwt>
<rscale>  0 0.64295225E+03</rscale>
<asrwt>0</asrwt>
<pdfrwt beam="1">  1        2 0.27277907E-01 0.64295225E+03</pdfrwt>
<pdfrwt beam="2">  1       -2 0.77319730E-01 0.64295225E+03</pdfrwt>
<totfact> 0.29883317E+02</totfact>
</mgrwt>
</event>
<event>
 4    1  0.2209668E-005  0.5543863E+03  0.7818608E-02  0.1000484E+00
          2   -1    0    0  501    0  0.00000000000E+00  0.00000000000E+00  0.29269819251E+03  0.29269819253E+03  0.25500000000E-02 0.  1.
         -2   -1    0    0    0  501 -0.00000000000E+00 -0.00000000000E+00 -0.26250941759E+03  0.26250941760E+03  0.25500000000E-02 0. -1.
    5000001    1    1    2    0    0  0.13466711697E+02 -0.20301110198E+03  0.52221868393E+01  0.27706701551E+03  0.18800000000E+03 0.  0.
   -5000001    1    1    2    0    0 -0.13466711697E+02  0.20301110198E+03  0.24966588087E+02  0.27814059461E+03  0.18800000000E+03 0.  0.
<mgrwt>
<rscale>  0 0.55438626E+03</rscale>
<asrwt>0</asrwt>
<pdfrwt beam="1">  1        2 0.41814028E-01 0.55438626E+03</pdfrwt>
<pdfrwt beam="2">  1       -2 0.37501345E-01 0.55438626E+03</pdfrwt>
<totfact> 0.82528468E+02</totfact>
</mgrwt>
</event>
<event>
 4    1  0.2209668E-005  0.7622467E+03  0.7818608E-02  0.9616331E-01
          2   -1    0    0  501    0  0.00000000000E+00  0.00000000000E+00  0.13298676968E+04  0.13298676968E+04  0.25500000000E-02 0.  1.
         -2   -1    0    0    0  501 -0.00000000000E+00 -0.00000000000E+00 -0.10922515545E+03  0.10922515548E+03  0.25500000000E-02 0. -1.
    5000001    1    1    2    0    0 -0.33447032690E+02  0.31405521634E+03  0.80063705367E+03  0.88097280015E+03  0.18800000000E+03 0.  0.
   -5000001    1    1    2    0    0  0.33447032690E+02 -0.31405521634E+03  0.42000548765E+03  0.55812005211E+03  0.18800000000E+03 0.  0.
<mgrwt>
<rscale>  0 0.76224669E+03</rscale>
<asrwt>0</asrwt>
<pdfrwt beam="1">  1        2 0.18998109E+00 0.76224669E+03</pdfrwt>
<pdfrwt beam="2">  1       -2 0.15603595E-01 0.76224669E+03</pdfrwt>
<totfact> 0.59598508E+02</totfact>
</mgrwt>
</event>
<event>
 4    1  0.2209668E-005  0.5446241E+03  0.7818608E-02  0.1002746E+00
         -2   -1    0    0    0  501 -0.00000000000E+00  0.00000000000E+00  0.98964293546E+02  0.98964293579E+02  0.25500000000E-02 0. -1.
          2   -1    0    0  501    0  0.00000000000E+00 -0.00000000000E+00 -0.74929911021E+03  0.74929911022E+03  0.25500000000E-02 0.  1.
    5000001    1    1    2    0    0 -0.18881928029E+03 -0.40541249254E+02 -0.26457316982E+03  0.37767615186E+03  0.18800000000E+03 0.  0.
   -5000001    1    1    2    0    0  0.18881928029E+03  0.40541249254E+02 -0.38576164685E+03  0.47058725193E+03  0.18800000000E+03 0.  0.
<mgrwt>
<rscale>  0 0.54462412E+03</rscale>
<asrwt>0</asrwt>
<pdfrwt beam="1">  1        2 0.10704273E+00 0.54462412E+03</pdfrwt>
<pdfrwt beam="2">  1       -2 0.14137757E-01 0.54462412E+03</pdfrwt>
<totfact> 0.16005777E+03</totfact>
</mgrwt>
</event>
<event>
 4    1  0.2209668E-005  0.6199712E+03  0.7818608E-02  0.9864817E-01
         -2   -1    0    0    0  501 -0.00000000000E+00  0.00000000000E+00  0.25028310985E+02  0.25028311115E+02  0.25500000000E-02 0.  1.
          2   -1    0    0  501    0  0.00000000000E+00 -0.00000000000E+00 -0.38392952098E+04  0.38392952098E+04  0.25500000000E-02 0. -1.
    5000001    1    1    2    0    0  0.38327624191E+02 -0.21759785234E+03 -0.12263509345E+04  0.12601977807E+04  0.18800000000E+03 0.  0.
   -5000001    1    1    2    0    0 -0.38327624191E+02  0.21759785234E+03 -0.25879159643E+04  0.26041257402E+04  0.18800000000E+03 0.  0.
<mgrwt>
<rscale>  0 0.61997121E+03</rscale>
<asrwt>0</asrwt>
<pdfrwt beam="1">  1        2 0.54847037E+00 0.61997121E+03</pdfrwt>
<pdfrwt beam="2">  1       -2 0.35754755E-02 0.61997121E+03</pdfrwt>
<totfact> 0.27828373E+02</totfact>
</mgrwt>
</event>
<event>
 4    1  0.2209668E-005  0.5906200E+03  0.7818608E-02  0.9925060E-01
         -2   -1    0    0    0  501 -0.00000000000E+00  0.00000000000E+00  0.36294394931E+03  0.36294394932E+03  0.25500000000E-02 0. -1.
          2   -1    0    0  501    0  0.00000000000E+00 -0.00000000000E+00 -0.24027952698E+03  0.24027952699E+03  0.25500000000E-02 0.  1.
    5000001    1    1    2    0    0 -0.15088720211E+03 -0.15711104827E+03 -0.65171032191E+01  0.28781470060E+03  0.18800000000E+03 0.  0.
   -5000001    1    1    2    0    0  0.15088720211E+03  0.15711104827E+03  0.12918152555E+03  0.31540877571E+03  0.18800000000E+03 0.  0.
<mgrwt>
<rscale>  0 0.59062001E+03</rscale>
<asrwt>0</asrwt>
<pdfrwt beam="1">  1        2 0.34325647E-01 0.59062001E+03</pdfrwt>
<pdfrwt beam="2">  1       -2 0.51849135E-01 0.59062001E+03</pdfrwt>
<totfact> 0.54111520E+02</totfact>
</mgrwt>
</event>
<event>
 4    1  0.2209668E-005  0.9635958E+03  0.7818608E-02  0.9349399E-01
         -2   -1    0    0    0  501 -0.00000000000E+00  0.00000000000E+00  0.10656378213E+03  0.10656378216E+03  0.25500000000E-02 0. -1.
          2   -1    0    0  501    0  0.00000000000E+00 -0.00000000000E+00 -0.21783124357E+04  0.21783124357E+04  0.25500000000E-02 0.  1.
    5000001    1    1    2    0    0 -0.10651525706E+03  0.23324801568E+03 -0.18942186992E+04  0.19207182556E+04  0.18800000000E+03 0.  0.
   -5000001    1    1    2    0    0  0.10651525706E+03 -0.23324801568E+03 -0.17752995433E+03  0.36415796228E+03  0.18800000000E+03 0.  0.
<mgrwt>
<rscale>  0 0.96359579E+03</rscale>
<asrwt>0</asrwt>
<pdfrwt beam="1">  1        2 0.31118746E+00 0.96359579E+03</pdfrwt>
<pdfrwt beam="2">  1       -2 0.15223399E-01 0.96359579E+03</pdfrwt>
<totfact> 0.22344927E+02</totfact>
</mgrwt>
</event>
<event>
 4    1  0.2209668E-005  0.5811385E+03  0.7818608E-02  0.9945329E-01
          2   -1    0    0  501    0  0.00000000000E+00  0.00000000000E+00  0.66177608361E+03  0.66177608362E+03  0.25500000000E-02 0.  1.
         -2   -1    0    0    0  501 -0.00000000000E+00 -0.00000000000E+00 -0.12758164441E+03  0.12758164443E+03  0.25500000000E-02 0. -1.
    5000001    1    1    2    0    0 -0.19906260851E+03 -0.24545517361E+02  0.13925804729E+03  0.30816425533E+03  0.18800000000E+03 0.  0.
   -5000001    1    1    2    0    0  0.19906260851E+03  0.24545517361E+02  0.39493639192E+03  0.48119347272E+03  0.18800000000E+03 0.  0.
<mgrwt>
<rscale>  0 0.58113847E+03</rscale>
<asrwt>0</asrwt>
<pdfrwt beam="1">  1        2 0.94539439E-01 0.58113847E+03</pdfrwt>
<pdfrwt beam="2">  1       -2 0.18225949E-01 0.58113847E+03</pdfrwt>
<totfact> 0.12114704E+03</totfact>
</mgrwt>
</event>
<event>
 4    1  0.2209668E-005  0.5427034E+03  0.7818608E-02  0.1003197E+00
          2   -1    0    0  501    0  0.00000000000E+00  0.00000000000E+00  0.14258296270E+04  0.14258296270E+04  0.25500000000E-02 0.  1.
         -2   -1    0    0    0  501 -0.00000000000E+00 -0.00000000000E+00 -0.51641327377E+02  0.51641327440E+02  0.25500000000E-02 0. -1.
    5000001    1    1    2    0    0  0.91209535393E+02  0.68046946687E+02  0.25373891347E+03  0.33567395268E+03  0.18800000000E+03 0.  0.
   -5000001    1    1    2    0    0 -0.91209535393E+02 -0.68046946687E+02  0.11204493862E+04  0.11417970018E+04  0.18800000000E+03 0.  0.
<mgrwt>
<rscale>  0 0.54270336E+03</rscale>
<asrwt>0</asrwt>
<pdfrwt beam="1">  1        2 0.20368995E+00 0.54270336E+03</pdfrwt>
<pdfrwt beam="2">  1       -2 0.73773323E-02 0.54270336E+03</pdfrwt>
<totfact> 0.18168852E+03</totfact>
</mgrwt>
</event>
<event>
 4    1  0.2209668E-005  0.5398697E+03  0.7818608E-02  0.1003866E+00
          2   -1    0    0  501    0  0.00000000000E+00  0.00000000000E+00  0.14468926141E+04  0.14468926141E+04  0.25500000000E-02 0.  1.
         -2   -1    0    0    0  501 -0.00000000000E+00 -0.00000000000E+00 -0.50359516912E+02  0.50359516976E+02  0.25500000000E-02 0. -1.
    5000001    1    1    2    0    0  0.68360617537E+02 -0.18118745421E+03  0.68625898636E+03  0.73742624306E+03  0.18800000000E+03 0.  0.
   -5000001    1    1    2    0    0 -0.68360617537E+02  0.18118745421E+03  0.71027411082E+03  0.75982588801E+03  0.18800000000E+03 0.  0.
<mgrwt>
<rscale>  0 0.53986966E+03</rscale>
<asrwt>0</asrwt>
<pdfrwt beam="1">  1        2 0.20669893E+00 0.53986966E+03</pdfrwt>
<pdfrwt beam="2">  1       -2 0.71942173E-02 0.53986966E+03</pdfrwt>
<totfact> 0.18431041E+03</totfact>
</mgrwt>
</event>
<event>
 4    1  0.2209668E-005  0.5811889E+03  0.7818608E-02  0.9945220E-01
          2   -1    0    0  501    0  0.00000000000E+00  0.00000000000E+00  0.21117241559E+04  0.21117241559E+04  0.25500000000E-02 0.  1.
         -2   -1    0    0    0  501 -0.00000000000E+00 -0.00000000000E+00 -0.39988713337E+02  0.39988713419E+02  0.25500000000E-02 0. -1.
    5000001    1    1    2    0    0  0.15979705206E+03  0.14974375357E+03  0.91070926729E+03  0.95535001916E+03  0.18800000000E+03 0.  0.
   -5000001    1    1    2    0    0 -0.15979705206E+03 -0.14974375357E+03  0.11610261753E+04  0.11963628502E+04  0.18800000000E+03 0.  0.
<mgrwt>
<rscale>  0 0.58118889E+03</rscale>
<asrwt>0</asrwt>
<pdfrwt beam="1">  1        2 0.30167494E+00 0.58118889E+03</pdfrwt>
<pdfrwt beam="2">  1       -2 0.57126723E-02 0.58118889E+03</pdfrwt>
<totfact> 0.12154729E+03</totfact>
</mgrwt>
</event>
<event>
 4    1  0.2209668E-005  0.8954720E+03  0.7818608E-02  0.9431259E-01
         -2   -1    0    0    0  501 -0.00000000000E+00  0.00000000000E+00  0.13467809763E+03  0.13467809766E+03  0.25500000000E-02 0. -1.
          2   -1    0    0  501    0  0.00000000000E+00 -0.00000000000E+00 -0.14884937958E+04  0.14884937958E+04  0.25500000000E-02 0.  1.
    5000001    1    1    2    0    0  0.35340105436E+03 -0.18207503628E+03 -0.52438822265E+03  0.68437608967E+03  0.18800000000E+03 0.  0.
   -5000001    1    1    2    0    0 -0.35340105436E+03  0.18207503628E+03 -0.82942747549E+03  0.93879580376E+03  0.18800000000E+03 0.  0.
<mgrwt>
<rscale>  0 0.89547197E+03</rscale>
<asrwt>0</asrwt>
<pdfrwt beam="1">  1        2 0.21264196E+00 0.89547197E+03</pdfrwt>
<pdfrwt beam="2">  1       -2 0.19239729E-01 0.89547197E+03</pdfrwt>
<totfact> 0.33942520E+02</totfact>
</mgrwt>
</event>
<event>
 4    1  0.2209668E-005  0.6601803E+03  0.7818608E-02  0.9787862E-01
         -2   -1    0    0    0  501 -0.00000000000E+00  0.00000000000E+00  0.75656424716E+02  0.75656424759E+02  0.25500000000E-02 0. -1.
          2   -1    0    0  501    0  0.00000000000E+00 -0.00000000000E+00 -0.14401886306E+04  0.14401886307E+04  0.25500000000E-02 0.  1.
    5000001    1    1    2    0    0 -0.20130505507E+02  0.25074632346E+03 -0.91570884548E+03  0.96806283147E+03  0.18800000000E+03 0.  0.
   -5000001    1    1    2    0    0  0.20130505507E+02 -0.25074632346E+03 -0.44882336045E+03  0.54778222394E+03  0.18800000000E+03 0.  0.
<mgrwt>
<rscale>  0 0.66018035E+03</rscale>
<asrwt>0</asrwt>
<pdfrwt beam="1">  1        2 0.20574122E+00 0.66018035E+03</pdfrwt>
<pdfrwt beam="2">  1       -2 0.10808062E-01 0.66018035E+03</pdfrwt>
<totfact> 0.96274457E+02</totfact>
</mgrwt>
</event>
<event>
 4    1  0.2209668E-005  0.1217680E+04  0.7818608E-02  0.9097520E-01
         -2   -1    0    0    0  501 -0.00000000000E+00  0.00000000000E+00  0.23511085193E+03  0.23511085195E+03  0.25500000000E-02 0. -1.
          2   -1    0    0  501    0  0.00000000000E+00 -0.00000000000E+00 -0.15766446487E+04  0.15766446487E+04  0.25500000000E-02 0.  1.
    5000001    1    1    2    0    0 -0.33655473956E+03 -0.10654098265E+03  0.12234327665E+02  0.40014216534E+03  0.18800000000E+03 0.  0.
   -5000001    1    1    2    0    0  0.33655473956E+03  0.10654098265E+03 -0.13537681244E+04  0.14116133353E+04  0.18800000000E+03 0.  0.
<mgrwt>
<rscale>  0 0.12176802E+04</rscale>
<asrwt>0</asrwt>
<pdfrwt beam="1">  1        2 0.22523494E+00 0.12176802E+04</pdfrwt>
<pdfrwt beam="2">  1       -2 0.33587265E-01 0.12176802E+04</pdfrwt>
<totfact> 0.10866031E+02</totfact>
</mgrwt>
</event>
<event>
 4    1  0.2209668E-005  0.1081058E+04  0.7818608E-02  0.9223854E-01
          2   -1    0    0  501    0  0.00000000000E+00  0.00000000000E+00  0.48107870739E+03  0.48107870740E+03  0.25500000000E-02 0.  1.
         -2   -1    0    0    0  501 -0.00000000000E+00 -0.00000000000E+00 -0.60732547105E+03  0.60732547106E+03  0.25500000000E-02 0. -1.
    5000001    1    1    2    0    0  0.37256754931E+03 -0.25145272549E+03 -0.29879167542E+03  0.57153785287E+03  0.18800000000E+03 0.  0.
   -5000001    1    1    2    0    0 -0.37256754931E+03  0.25145272549E+03  0.17254491176E+03  0.51686632559E+03  0.18800000000E+03 0.  0.
<mgrwt>
<rscale>  0 0.10810575E+04</rscale>
<asrwt>0</asrwt>
<pdfrwt beam="1">  1        2 0.68725530E-01 0.10810575E+04</pdfrwt>
<pdfrwt beam="2">  1       -2 0.86760782E-01 0.10810575E+04</pdfrwt>
<totfact> 0.80291093E+01</totfact>
</mgrwt>
</event>
<event>
 4    1  0.2209668E-005  0.4682463E+03  0.7818608E-02  0.1022416E+00
         -2   -1    0    0    0  501 -0.00000000000E+00  0.00000000000E+00  0.13339473669E+03  0.13339473672E+03  0.25500000000E-02 0. -1.
          2   -1    0    0  501    0  0.00000000000E+00 -0.00000000000E+00 -0.41091306187E+03  0.41091306188E+03  0.25500000000E-02 0.  1.
    5000001    1    1    2    0    0  0.60865301970E+02 -0.12555883144E+03 -0.13897527633E+03  0.27226408608E+03  0.18800000000E+03 0.  0.
   -5000001    1    1    2    0    0 -0.60865301970E+02  0.12555883144E+03 -0.13854304885E+03  0.27204371252E+03  0.18800000000E+03 0.  0.
<mgrwt>
<rscale>  0 0.46824626E+03</rscale>
<asrwt>0</asrwt>
<pdfrwt beam="1">  1        2 0.58701865E-01 0.46824626E+03</pdfrwt>
<pdfrwt beam="2">  1       -2 0.19056391E-01 0.46824626E+03</pdfrwt>
<totfact> 0.19356699E+03</totfact>
</mgrwt>
</event>
<event>
 4    1  0.2209668E-005  0.5259584E+03  0.7818608E-02  0.1007217E+00
         -2   -1    0    0    0  501 -0.00000000000E+00  0.00000000000E+00  0.39753173351E+02  0.39753173433E+02  0.25500000000E-02 0. -1.
          2   -1    0    0  501    0  0.00000000000E+00 -0.00000000000E+00 -0.17396866844E+04  0.17396866844E+04  0.25500000000E-02 0.  1.
    5000001    1    1    2    0    0  0.12535549938E+03  0.13246639193E+03 -0.77042694262E+03  0.81373399839E+03  0.18800000000E+03 0.  0.
   -5000001    1    1    2    0    0 -0.12535549938E+03 -0.13246639193E+03 -0.92950656843E+03  0.96570585945E+03  0.18800000000E+03 0.  0.
<mgrwt>
<rscale>  0 0.52595843E+03</rscale>
<asrwt>0</asrwt>
<pdfrwt beam="1">  1        2 0.24852662E+00 0.52595843E+03</pdfrwt>
<pdfrwt beam="2">  1       -2 0.56790259E-02 0.52595843E+03</pdfrwt>
<totfact> 0.18905303E+03</totfact>
</mgrwt>
</event>
<event>
 4    1  0.2209668E-005  0.4972486E+03  0.7818608E-02  0.1014500E+00
          2   -1    0    0  501    0  0.00000000000E+00  0.00000000000E+00  0.13906619562E+04  0.13906619562E+04  0.25500000000E-02 0.  1.
         -2   -1    0    0    0  501 -0.00000000000E+00 -0.00000000000E+00 -0.44449361395E+02  0.44449361468E+02  0.25500000000E-02 0. -1.
    5000001    1    1    2    0    0 -0.11179812005E+03 -0.71905082202E+02  0.94386035918E+03  0.97153771832E+03  0.18800000000E+03 0.  0.
   -5000001    1    1    2    0    0  0.11179812005E+03  0.71905082202E+02  0.40235223559E+03  0.46357359931E+03  0.18800000000E+03 0.  0.
<mgrwt>
<rscale>  0 0.49724857E+03</rscale>
<asrwt>0</asrwt>
<pdfrwt beam="1">  1        2 0.19866595E+00 0.49724857E+03</pdfrwt>
<pdfrwt beam="2">  1       -2 0.63499102E-02 0.49724857E+03</pdfrwt>
<totfact> 0.24028889E+03</totfact>
</mgrwt>
</event>
<event>
 4    1  0.2209668E-005  0.4935538E+03  0.7818608E-02  0.1015475E+00
         -2   -1    0    0    0  501 -0.00000000000E+00  0.00000000000E+00  0.20705611041E+02  0.20705611198E+02  0.25500000000E-02 0. -1.
          2   -1    0    0  501    0  0.00000000000E+00 -0.00000000000E+00 -0.29411761638E+04  0.29411761638E+04  0.25500000000E-02 0.  1.
    5000001    1    1    2    0    0 -0.86044030066E+02  0.13056609815E+03 -0.16596109801E+04  0.16775290418E+04  0.18800000000E+03 0.  0.
   -5000001    1    1    2    0    0  0.86044030066E+02 -0.13056609815E+03 -0.12608595728E+04  0.12843527332E+04  0.18800000000E+03 0.  0.
<mgrwt>
<rscale>  0 0.49355385E+03</rscale>
<asrwt>0</asrwt>
<pdfrwt beam="1">  1        2 0.42016776E+00 0.49355385E+03</pdfrwt>
<pdfrwt beam="2">  1       -2 0.29579463E-02 0.49355385E+03</pdfrwt>
<totfact> 0.12570237E+03</totfact>
</mgrwt>
</event>
<event>
 4    1  0.2209668E-005  0.4719826E+03  0.7818608E-02  0.1021362E+00
         -2   -1    0    0    0  501 -0.00000000000E+00  0.00000000000E+00  0.82952262460E+02  0.82952262499E+02  0.25500000000E-02 0. -1.
          2   -1    0    0  501    0  0.00000000000E+00 -0.00000000000E+00 -0.67137278645E+03  0.67137278645E+03  0.25500000000E-02 0.  1.
    5000001    1    1    2    0    0  0.13993802810E+03  0.13592212542E+02 -0.33271645117E+03  0.40719975053E+03  0.18800000000E+03 0.  0.
   -5000001    1    1    2    0    0 -0.13993802810E+03 -0.13592212542E+02 -0.25570407281E+03  0.34712529842E+03  0.18800000000E+03 0.  0.
<mgrwt>
<rscale>  0 0.47198259E+03</rscale>
<asrwt>0</asrwt>
<pdfrwt beam="1">  1        2 0.95910395E-01 0.47198259E+03</pdfrwt>
<pdfrwt beam="2">  1       -2 0.11850324E-01 0.47198259E+03</pdfrwt>
<totfact> 0.24493923E+03</totfact>
</mgrwt>
</event>
<event>
 4    1  0.2209668E-005  0.5040664E+03  0.7818608E-02  0.1012723E+00
         -2   -1    0    0    0  501 -0.00000000000E+00  0.00000000000E+00  0.17015722638E+03  0.17015722640E+03  0.25500000000E-02 0. -1.
          2   -1    0    0  501    0  0.00000000000E+00 -0.00000000000E+00 -0.37330604731E+03  0.37330604732E+03  0.25500000000E-02 0.  1.
    5000001    1    1    2    0    0 -0.11641232290E+03 -0.52256312091E+02 -0.21915877429E+03  0.31568515870E+03  0.18800000000E+03 0.  0.
   -5000001    1    1    2    0    0  0.11641232290E+03  0.52256312091E+02  0.16009953351E+02  0.22777811502E+03  0.18800000000E+03 0.  0.
<mgrwt>
<rscale>  0 0.50406635E+03</rscale>
<asrwt>0</asrwt>
<pdfrwt beam="1">  1        2 0.53329435E-01 0.50406635E+03</pdfrwt>
<pdfrwt beam="2">  1       -2 0.24308175E-01 0.50406635E+03</pdfrwt>
<totfact> 0.14057751E+03</totfact>
</mgrwt>
</event>
<event>
 4    1  0.2209668E-005  0.1225036E+04  0.7818608E-02  0.9091221E-01
         -2   -1    0    0    0  501 -0.00000000000E+00  0.00000000000E+00  0.60512834493E+03  0.60512834494E+03  0.25500000000E-02 0. -1.
          2   -1    0    0  501    0  0.00000000000E+00 -0.00000000000E+00 -0.61999782621E+03  0.61999782621E+03  0.25500000000E-02 0.  1.
    5000001    1    1    2    0    0  0.57131608102E+03  0.47396033448E+02  0.98336040030E+02  0.61127933483E+03  0.18800000000E+03 0.  0.
   -5000001    1    1    2    0    0 -0.57131608102E+03 -0.47396033448E+02 -0.11320552130E+03  0.61384683633E+03  0.18800000000E+03 0.  0.
<mgrwt>
<rscale>  0 0.12250359E+04</rscale>
<asrwt>0</asrwt>
<pdfrwt beam="1">  1        2 0.88571118E-01 0.12250359E+04</pdfrwt>
<pdfrwt beam="2">  1       -2 0.86446907E-01 0.12250359E+04</pdfrwt>
<totfact> 0.59679178E+01</totfact>
</mgrwt>
</event>
<event>
 4    1  0.2209668E-005  0.4360499E+03  0.7818608E-02  0.1031966E+00
          2   -1    0    0  501    0  0.00000000000E+00  0.00000000000E+00  0.74818117188E+03  0.74818117189E+03  0.25500000000E-02 0.  1.
         -2   -1    0    0    0  501 -0.00000000000E+00 -0.00000000000E+00 -0.63533927668E+02  0.63533927719E+02  0.25500000000E-02 0. -1.
    5000001    1    1    2    0    0  0.80407782735E+02 -0.46186175332E+02  0.45389544911E+03  0.49996365172E+03  0.18800000000E+03 0.  0.
   -5000001    1    1    2    0    0 -0.80407782735E+02  0.46186175332E+02  0.23075179510E+03  0.31175144789E+03  0.18800000000E+03 0.  0.
<mgrwt>
<rscale>  0 0.43604994E+03</rscale>
<asrwt>0</asrwt>
<pdfrwt beam="1">  1        2 0.10688302E+00 0.43604994E+03</pdfrwt>
<pdfrwt beam="2">  1       -2 0.90762756E-02 0.43604994E+03</pdfrwt>
<totfact> 0.33009627E+03</totfact>
</mgrwt>
</event>
<event>
 4    1  0.2209668E-005  0.3826473E+03  0.7818608E-02  0.1049960E+00
          2   -1    0    0  501    0  0.00000000000E+00  0.00000000000E+00  0.47299664210E+03  0.47299664210E+03  0.25500000000E-02 0.  1.
         -2   -1    0    0    0  501 -0.00000000000E+00 -0.00000000000E+00 -0.77389008895E+02  0.77389008937E+02  0.25500000000E-02 0. -1.
    5000001    1    1    2    0    0  0.33122743547E+02  0.97304354024E+01  0.18586074108E+03  0.26660835056E+03  0.18800000000E+03 0.  0.
   -5000001    1    1    2    0    0 -0.33122743547E+02 -0.97304354024E+01  0.20974689212E+03  0.28377730048E+03  0.18800000000E+03 0.  0.
<mgrwt>
<rscale>  0 0.38264731E+03</rscale>
<asrwt>0</asrwt>
<pdfrwt beam="1">  1        2 0.67570951E-01 0.38264731E+03</pdfrwt>
<pdfrwt beam="2">  1       -2 0.11055572E-01 0.38264731E+03</pdfrwt>
<totfact> 0.40903423E+03</totfact>
</mgrwt>
</event>
<event>
 4    1  0.2209668E-005  0.4805709E+03  0.7818608E-02  0.1018978E+00
          2   -1    0    0  501    0  0.00000000000E+00  0.00000000000E+00  0.40934041376E+03  0.40934041377E+03  0.25500000000E-02 0.  1.
         -2   -1    0    0    0  501 -0.00000000000E+00 -0.00000000000E+00 -0.14104912828E+03  0.14104912830E+03  0.25500000000E-02 0. -1.
    5000001    1    1    2    0    0 -0.11359403842E+03 -0.53890110465E+02  0.41205702506E+02  0.22989053806E+03  0.18800000000E+03 0.  0.
   -5000001    1    1    2    0    0  0.11359403842E+03  0.53890110465E+02  0.22708558298E+03  0.32049900401E+03  0.18800000000E+03 0.  0.
<mgrwt>
<rscale>  0 0.48057095E+03</rscale>
<asrwt>0</asrwt>
<pdfrwt beam="1">  1        2 0.58477202E-01 0.48057095E+03</pdfrwt>
<pdfrwt beam="2">  1       -2 0.20149875E-01 0.48057095E+03</pdfrwt>
<totfact> 0.17655294E+03</totfact>
</mgrwt>
</event>
<event>
 4    1  0.2209668E-005  0.5380049E+03  0.7818608E-02  0.1004309E+00
          2   -1    0    0  501    0  0.00000000000E+00  0.00000000000E+00  0.36629156436E+04  0.36629156436E+04  0.25500000000E-02 0.  1.
         -2   -1    0    0    0  501 -0.00000000000E+00 -0.00000000000E+00 -0.19755388021E+02  0.19755388185E+02  0.25500000000E-02 0. -1.
    5000001    1    1    2    0    0  0.17468378299E+03 -0.67750731463E+01  0.12715005482E+04  0.12971576503E+04  0.18800000000E+03 0.  0.
   -5000001    1    1    2    0    0 -0.17468378299E+03  0.67750731463E+01  0.23716597074E+04  0.23855133815E+04  0.18800000000E+03 0.  0.
<mgrwt>
<rscale>  0 0.53800491E+03</rscale>
<asrwt>0</asrwt>
<pdfrwt beam="1">  1        2 0.52327369E+00 0.53800491E+03</pdfrwt>
<pdfrwt beam="2">  1       -2 0.28221981E-02 0.53800491E+03</pdfrwt>
<totfact> 0.52013097E+02</totfact>
</mgrwt>
</event>
<event>
 4    1  0.2209668E-005  0.5713539E+03  0.7818608E-02  0.9966687E-01
         -2   -1    0    0    0  501 -0.00000000000E+00  0.00000000000E+00  0.17000209315E+03  0.17000209317E+03  0.25500000000E-02 0. -1.
          2   -1    0    0  501    0  0.00000000000E+00 -0.00000000000E+00 -0.48006068579E+03  0.48006068579E+03  0.25500000000E-02 0.  1.
    5000001    1    1    2    0    0  0.75899177309E+02 -0.19581882214E+03 -0.20792742367E+03  0.35026205866E+03  0.18800000000E+03 0.  0.
   -5000001    1    1    2    0    0 -0.75899177309E+02  0.19581882214E+03 -0.10213116897E+03  0.29980072030E+03  0.18800000000E+03 0.  0.
<mgrwt>
<rscale>  0 0.57135391E+03</rscale>
<asrwt>0</asrwt>
<pdfrwt beam="1">  1        2 0.68580097E-01 0.57135391E+03</pdfrwt>
<pdfrwt beam="2">  1       -2 0.24286013E-01 0.57135391E+03</pdfrwt>
<totfact> 0.10640046E+03</totfact>
</mgrwt>
</event>
<event>
 4    1  0.2209668E-005  0.5311293E+03  0.7818608E-02  0.1005959E+00
         -2   -1    0    0    0  501 -0.00000000000E+00  0.00000000000E+00  0.48893864611E+02  0.48893864677E+02  0.25500000000E-02 0. -1.
          2   -1    0    0  501    0  0.00000000000E+00 -0.00000000000E+00 -0.14424017389E+04  0.14424017389E+04  0.25500000000E-02 0.  1.
    5000001    1    1    2    0    0  0.12317349664E+03 -0.12899932803E+03 -0.85970351956E+03  0.89791240021E+03  0.18800000000E+03 0.  0.
   -5000001    1    1    2    0    0 -0.12317349664E+03  0.12899932803E+03 -0.53380435469E+03  0.59338320333E+03  0.18800000000E+03 0.  0.
<mgrwt>
<rscale>  0 0.53112935E+03</rscale>
<asrwt>0</asrwt>
<pdfrwt beam="1">  1        2 0.20605737E+00 0.53112935E+03</pdfrwt>
<pdfrwt beam="2">  1       -2 0.69848387E-02 0.53112935E+03</pdfrwt>
<totfact> 0.19419247E+03</totfact>
</mgrwt>
</event>
<event>
 4    1  0.2209668E-005  0.1048759E+04  0.7818608E-02  0.9256626E-01
          2   -1    0    0  501    0  0.00000000000E+00  0.00000000000E+00  0.22757759361E+04  0.22757759361E+04  0.25500000000E-02 0.  1.
         -2   -1    0    0    0  501 -0.00000000000E+00 -0.00000000000E+00 -0.12082647627E+03  0.12082647629E+03  0.25500000000E-02 0. -1.
    5000001    1    1    2    0    0 -0.18811237320E+03 -0.44540624645E+03  0.12523618084E+04  0.13555541629E+04  0.18800000000E+03 0.  0.
   -5000001    1    1    2    0    0  0.18811237320E+03  0.44540624645E+03  0.90258765142E+03  0.10410482495E+04  0.18800000000E+03 0.  0.
<mgrwt>
<rscale>  0 0.10487592E+04</rscale>
<asrwt>0</asrwt>
<pdfrwt beam="1">  1        2 0.32511085E+00 0.10487592E+04</pdfrwt>
<pdfrwt beam="2">  1       -2 0.17260925E-01 0.10487592E+04</pdfrwt>
<totfact> 0.15962761E+02</totfact>
</mgrwt>
</event>
<event>
 4    1  0.2209668E-005  0.8656709E+03  0.7818608E-02  0.9469542E-01
          2   -1    0    0  501    0  0.00000000000E+00  0.00000000000E+00  0.31726247158E+04  0.31726247158E+04  0.25500000000E-02 0.  1.
         -2   -1    0    0    0  501 -0.00000000000E+00 -0.00000000000E+00 -0.59050958782E+02  0.59050958837E+02  0.25500000000E-02 0. -1.
    5000001    1    1    2    0    0  0.86769536320E+02  0.33759929381E+03  0.90481784171E+03  0.98769507557E+03  0.18800000000E+03 0.  0.
   -5000001    1    1    2    0    0 -0.86769536320E+02 -0.33759929381E+03  0.22087559153E+04  0.22439805991E+04  0.18800000000E+03 0.  0.
<mgrwt>
<rscale>  0 0.86567091E+03</rscale>
<asrwt>0</asrwt>
<pdfrwt beam="1">  1        2 0.45323211E+00 0.86567091E+03</pdfrwt>
<pdfrwt beam="2">  1       -2 0.84358511E-02 0.86567091E+03</pdfrwt>
<totfact> 0.17691553E+02</totfact>
</mgrwt>
</event>
<event>
 4    1  0.2209668E-005  0.5540949E+03  0.7818608E-02  0.1000551E+00
          2   -1    0    0  501    0  0.00000000000E+00  0.00000000000E+00  0.24034301231E+04  0.24034301231E+04  0.25500000000E-02 0.  1.
         -2   -1    0    0    0  501 -0.00000000000E+00 -0.00000000000E+00 -0.31935725757E+02  0.31935725859E+02  0.25500000000E-02 0. -1.
    5000001    1    1    2    0    0 -0.99291323517E+02  0.10629288927E+03  0.18112642032E+04  0.18267947228E+04  0.18800000000E+03 0.  0.
   -5000001    1    1    2    0    0  0.99291323517E+02 -0.10629288927E+03  0.56023019410E+03  0.60857112618E+03  0.18800000000E+03 0.  0.
<mgrwt>
<rscale>  0 0.55409489E+03</rscale>
<asrwt>0</asrwt>
<pdfrwt beam="1">  1        2 0.34334721E+00 0.55409489E+03</pdfrwt>
<pdfrwt beam="2">  1       -2 0.45622458E-02 0.55409489E+03</pdfrwt>
<totfact> 0.12298192E+03</totfact>
</mgrwt>
</event>
<event>
 4    1  0.2209668E-005  0.6249876E+03  0.7818608E-02  0.9854879E-01
          2   -1    0    0  501    0  0.00000000000E+00  0.00000000000E+00  0.19748641616E+04  0.19748641616E+04  0.25500000000E-02 0.  1.
         -2   -1    0    0    0  501 -0.00000000000E+00 -0.00000000000E+00 -0.49447638361E+02  0.49447638427E+02  0.25500000000E-02 0. -1.
    5000001    1    1    2    0    0  0.77565962056E+02 -0.23157444517E+03  0.11299205607E+04  0.11711992467E+04  0.18800000000E+03 0.  0.
   -5000001    1    1    2    0    0 -0.77565962056E+02  0.23157444517E+03  0.79549596260E+03  0.85311255332E+03  0.18800000000E+03 0.  0.
<mgrwt>
<rscale>  0 0.62498758E+03</rscale>
<asrwt>0</asrwt>
<pdfrwt beam="1">  1        2 0.28212343E+00 0.62498758E+03</pdfrwt>
<pdfrwt beam="2">  1       -2 0.70639490E-02 0.62498758E+03</pdfrwt>
<totfact> 0.10174892E+03</totfact>
</mgrwt>
</event>
<event>
 4    1  0.2209668E-005  0.5118245E+03  0.7818608E-02  0.1010738E+00
         -2   -1    0    0    0  501 -0.00000000000E+00  0.00000000000E+00  0.27340757962E+03  0.27340757963E+03  0.25500000000E-02 0. -1.
          2   -1    0    0  501    0  0.00000000000E+00 -0.00000000000E+00 -0.23953643480E+03  0.23953643482E+03  0.25500000000E-02 0.  1.
    5000001    1    1    2    0    0 -0.12036414122E+03  0.57704685250E+02 -0.94346577259E+02  0.24912373197E+03  0.18800000000E+03 0.  0.
   -5000001    1    1    2    0    0  0.12036414122E+03 -0.57704685250E+02  0.12821772208E+03  0.26382028247E+03  0.18800000000E+03 0.  0.
<mgrwt>
<rscale>  0 0.51182449E+03</rscale>
<asrwt>0</asrwt>
<pdfrwt beam="1">  1        2 0.34219491E-01 0.51182449E+03</pdfrwt>
<pdfrwt beam="2">  1       -2 0.39058225E-01 0.51182449E+03</pdfrwt>
<totfact> 0.95264295E+02</totfact>
</mgrwt>
</event>
<event>
 4    1  0.2209668E-005  0.9075923E+03  0.7818608E-02  0.9416140E-01
         -2   -1    0    0    0  501 -0.00000000000E+00  0.00000000000E+00  0.26324999877E+03  0.26324999879E+03  0.25500000000E-02 0. -1.
          2   -1    0    0  501    0  0.00000000000E+00 -0.00000000000E+00 -0.78226377006E+03  0.78226377006E+03  0.25500000000E-02 0.  1.
    5000001    1    1    2    0    0  0.12717811758E+03 -0.29836876321E+03 -0.55407820615E+03  0.66898793037E+03  0.18800000000E+03 0.  0.
   -5000001    1    1    2    0    0 -0.12717811758E+03  0.29836876321E+03  0.35064434868E+02  0.37652583848E+03  0.18800000000E+03 0.  0.
<mgrwt>
<rscale>  0 0.90759228E+03</rscale>
<asrwt>0</asrwt>
<pdfrwt beam="1">  1        2 0.11175197E+00 0.90759228E+03</pdfrwt>
<pdfrwt beam="2">  1       -2 0.37607143E-01 0.90759228E+03</pdfrwt>
<totfact> 0.26113344E+02</totfact>
</mgrwt>
</event>
<event>
 4    1  0.2209668E-005  0.6330293E+03  0.7818608E-02  0.9839155E-01
          2   -1    0    0  501    0  0.00000000000E+00  0.00000000000E+00  0.73995043823E+03  0.73995043823E+03  0.25500000000E-02 0.  1.
         -2   -1    0    0    0  501 -0.00000000000E+00 -0.00000000000E+00 -0.13538949125E+03  0.13538949127E+03  0.25500000000E-02 0. -1.
    5000001    1    1    2    0    0  0.24383970569E+03 -0.24869113749E+01  0.40364421933E+03  0.50767769559E+03  0.18800000000E+03 0.  0.
   -5000001    1    1    2    0    0 -0.24383970569E+03  0.24869113749E+01  0.20091672765E+03  0.36766223392E+03  0.18800000000E+03 0.  0.
<mgrwt>
<rscale>  0 0.63302927E+03</rscale>
<asrwt>0</asrwt>
<pdfrwt beam="1">  1        2 0.10570720E+00 0.63302927E+03</pdfrwt>
<pdfrwt beam="2">  1       -2 0.19341356E-01 0.63302927E+03</pdfrwt>
<totfact> 0.95281425E+02</totfact>
</mgrwt>
</event>
<event>
 4    1  0.2209668E-005  0.5340736E+03  0.7818608E-02  0.1005249E+00
          2   -1    0    0  501    0  0.00000000000E+00  0.00000000000E+00  0.81611744174E+03  0.81611744175E+03  0.25500000000E-02 0.  1.
         -2   -1    0    0    0  501 -0.00000000000E+00 -0.00000000000E+00 -0.87375491536E+02  0.87375491573E+02  0.25500000000E-02 0. -1.
    5000001    1    1    2    0    0  0.11613918340E+03  0.14289518370E+02  0.61683808634E+03  0.65538212138E+03  0.18800000000E+03 0.  0.
   -5000001    1    1    2    0    0 -0.11613918340E+03 -0.14289518370E+02  0.11190386386E+03  0.24811081194E+03  0.18800000000E+03 0.  0.
<mgrwt>
<rscale>  0 0.53407364E+03</rscale>
<asrwt>0</asrwt>
<pdfrwt beam="1">  1        2 0.11658820E+00 0.53407364E+03</pdfrwt>
<pdfrwt beam="2">  1       -2 0.12482214E-01 0.53407364E+03</pdfrwt>
<totfact> 0.17667420E+03</totfact>
</mgrwt>
</event>
<event>
 4    1  0.2209668E-005  0.7524492E+03  0.7818608E-02  0.9631516E-01
         -2   -1    0    0    0  501 -0.00000000000E+00  0.00000000000E+00  0.55686666962E+02  0.55686667021E+02  0.25500000000E-02 0. -1.
          2   -1    0    0  501    0  0.00000000000E+00 -0.00000000000E+00 -0.25418103586E+04  0.25418103586E+04  0.25500000000E-02 0.  1.
    5000001    1    1    2    0    0  0.30733905118E+03  0.44330751674E+02 -0.15844218578E+04  0.16254719719E+04  0.18800000000E+03 0.  0.
   -5000001    1    1    2    0    0 -0.30733905118E+03 -0.44330751674E+02 -0.90170183375E+03  0.97202505365E+03  0.18800000000E+03 0.  0.
<mgrwt>
<rscale>  0 0.75244919E+03</rscale>
<asrwt>0</asrwt>
<pdfrwt beam="1">  1        2 0.36311569E+00 0.75244919E+03</pdfrwt>
<pdfrwt beam="2">  1       -2 0.79552398E-02 0.75244919E+03</pdfrwt>
<totfact> 0.42986281E+02</totfact>
</mgrwt>
</event>
<event>
 4    1  0.2209668E-005  0.5301211E+03  0.7818608E-02  0.1006203E+00
          2   -1    0    0  501    0  0.00000000000E+00  0.00000000000E+00  0.51128017285E+03  0.51128017286E+03  0.25500000000E-02 0.  1.
         -2   -1    0    0    0  501 -0.00000000000E+00 -0.00000000000E+00 -0.13741410595E+03  0.13741410598E+03  0.25500000000E-02 0. -1.
    5000001    1    1    2    0    0 -0.38770255662E+02  0.18252546823E+03  0.19882398645E+03  0.33120032739E+03  0.18800000000E+03 0.  0.
   -5000001    1    1    2    0    0  0.38770255662E+02 -0.18252546823E+03  0.17504208045E+03  0.31749395144E+03  0.18800000000E+03 0.  0.
<mgrwt>
<rscale>  0 0.53012115E+03</rscale>
<asrwt>0</asrwt>
<pdfrwt beam="1">  1        2 0.73040024E-01 0.53012115E+03</pdfrwt>
<pdfrwt beam="2">  1       -2 0.19630587E-01 0.53012115E+03</pdfrwt>
<totfact> 0.14406754E+03</totfact>
</mgrwt>
</event>
<event>
 4    1  0.2209668E-005  0.9911301E+03  0.7818608E-02  0.9318327E-01
         -2   -1    0    0    0  501 -0.00000000000E+00  0.00000000000E+00  0.16464236646E+03  0.16464236648E+03  0.25500000000E-02 0. -1.
          2   -1    0    0  501    0  0.00000000000E+00 -0.00000000000E+00 -0.14916252213E+04  0.14916252213E+04  0.25500000000E-02 0.  1.
    5000001    1    1    2    0    0  0.70759591707E+02 -0.41650455105E+03 -0.96129141839E+03  0.10667277778E+04  0.18800000000E+03 0.  0.
   -5000001    1    1    2    0    0 -0.70759591707E+02  0.41650455105E+03 -0.36569143648E+03  0.58953981000E+03  0.18800000000E+03 0.  0.
<mgrwt>
<rscale>  0 0.99113007E+03</rscale>
<asrwt>0</asrwt>
<pdfrwt beam="1">  1        2 0.21308931E+00 0.99113007E+03</pdfrwt>
<pdfrwt beam="2">  1       -2 0.23520339E-01 0.99113007E+03</pdfrwt>
<totfact> 0.23572711E+02</totfact>
</mgrwt>
</event>
<event>
 4    1  0.2209668E-005  0.5530426E+03  0.7818608E-02  0.1000792E+00
         -2   -1    0    0    0  501 -0.00000000000E+00  0.00000000000E+00  0.10888522593E+03  0.10888522596E+03  0.25500000000E-02 0. -1.
          2   -1    0    0  501    0  0.00000000000E+00 -0.00000000000E+00 -0.70224420296E+03  0.70224420296E+03  0.25500000000E-02 0.  1.
    5000001    1    1    2    0    0 -0.14771915389E+03  0.11741996277E+03 -0.40556531209E+03  0.48521708384E+03  0.18800000000E+03 0.  0.
   -5000001    1    1    2    0    0  0.14771915389E+03 -0.11741996277E+03 -0.18779366494E+03  0.32591234508E+03  0.18800000000E+03 0.  0.
<mgrwt>
<rscale>  0 0.55304256E+03</rscale>
<asrwt>0</asrwt>
<pdfrwt beam="1">  1        2 0.10032060E+00 0.55304256E+03</pdfrwt>
<pdfrwt beam="2">  1       -2 0.15555033E-01 0.55304256E+03</pdfrwt>
<totfact> 0.14769312E+03</totfact>
</mgrwt>
</event>
<event>
 4    1  0.2209668E-005  0.4732765E+03  0.7818608E-02  0.1021000E+00
          2   -1    0    0  501    0  0.00000000000E+00  0.00000000000E+00  0.74494610932E+03  0.74494610933E+03  0.25500000000E-02 0.  1.
         -2   -1    0    0    0  501 -0.00000000000E+00 -0.00000000000E+00 -0.75170070324E+02  0.75170070367E+02  0.25500000000E-02 0. -1.
    5000001    1    1    2    0    0  0.61037074706E+02 -0.58133276263E+02  0.13318682225E+03  0.24533188117E+03  0.18800000000E+03 0.  0.
   -5000001    1    1    2    0    0 -0.61037074706E+02  0.58133276263E+02  0.53658921675E+03  0.57478429852E+03  0.18800000000E+03 0.  0.
<mgrwt>
<rscale>  0 0.47327646E+03</rscale>
<asrwt>0</asrwt>
<pdfrwt beam="1">  1        2 0.10642087E+00 0.47327646E+03</pdfrwt>
<pdfrwt beam="2">  1       -2 0.10738582E-01 0.47327646E+03</pdfrwt>
<totfact> 0.25337146E+03</totfact>
</mgrwt>
</event>
<event>
 4    1  0.2209668E-005  0.7293177E+03  0.7818608E-02  0.9668368E-01
         -2   -1    0    0    0  501 -0.00000000000E+00  0.00000000000E+00  0.50508208168E+02  0.50508208233E+02  0.25500000000E-02 0. -1.
          2   -1    0    0  501    0  0.00000000000E+00 -0.00000000000E+00 -0.26327617345E+04  0.26327617345E+04  0.25500000000E-02 0.  1.
    5000001    1    1    2    0    0 -0.24348539427E+02  0.29315562630E+03 -0.90352152406E+03  0.96862181322E+03  0.18800000000E+03 0.  0.
   -5000001    1    1    2    0    0  0.24348539427E+02 -0.29315562630E+03 -0.16787320023E+04  0.17146481295E+04  0.18800000000E+03 0.  0.
<mgrwt>
<rscale>  0 0.72931770E+03</rscale>
<asrwt>0</asrwt>
<pdfrwt beam="1">  1        2 0.37610873E+00 0.72931770E+03</pdfrwt>
<pdfrwt beam="2">  1       -2 0.72154600E-02 0.72931770E+03</pdfrwt>
<totfact> 0.45122287E+02</totfact>
</mgrwt>
</event>
<event>
 4    1  0.2209668E-005  0.4212892E+03  0.7818608E-02  0.1036648E+00
         -2   -1    0    0    0  501 -0.00000000000E+00  0.00000000000E+00  0.41746181369E+02  0.41746181447E+02  0.25500000000E-02 0. -1.
          2   -1    0    0  501    0  0.00000000000E+00 -0.00000000000E+00 -0.10628791546E+04  0.10628791546E+04  0.25500000000E-02 0.  1.
    5000001    1    1    2    0    0 -0.72786925715E+02  0.48104139027E+02 -0.41192859408E+03  0.46113025423E+03  0.18800000000E+03 0.  0.
   -5000001    1    1    2    0    0  0.72786925715E+02 -0.48104139027E+02 -0.60920437912E+03  0.64349508178E+03  0.18800000000E+03 0.  0.
<mgrwt>
<rscale>  0 0.42128919E+03</rscale>
<asrwt>0</asrwt>
<pdfrwt beam="1">  1        2 0.15183986E+00 0.42128919E+03</pdfrwt>
<pdfrwt beam="2">  1       -2 0.59637408E-02 0.42128919E+03</pdfrwt>
<totfact> 0.40181284E+03</totfact>
</mgrwt>
</event>
<event>
 4    1  0.2209668E-005  0.8817272E+03  0.7818608E-02  0.9448716E-01
         -2   -1    0    0    0  501 -0.00000000000E+00  0.00000000000E+00  0.12640797433E+03  0.12640797436E+03  0.25500000000E-02 0. -1.
          2   -1    0    0  501    0  0.00000000000E+00 -0.00000000000E+00 -0.15375669603E+04  0.15375669603E+04  0.25500000000E-02 0.  1.
    5000001    1    1    2    0    0  0.14546968202E+03 -0.36056042743E+03 -0.87279946478E+03  0.97380088105E+03  0.18800000000E+03 0.  0.
   -5000001    1    1    2    0    0 -0.14546968202E+03  0.36056042743E+03 -0.53835952116E+03  0.69017405358E+03  0.18800000000E+03 0.  0.
<mgrwt>
<rscale>  0 0.88172723E+03</rscale>
<asrwt>0</asrwt>
<pdfrwt beam="1">  1        2 0.21965241E+00 0.88172723E+03</pdfrwt>
<pdfrwt beam="2">  1       -2 0.18058283E-01 0.88172723E+03</pdfrwt>
<totfact> 0.35730014E+02</totfact>
</mgrwt>
</event>
<event>
 4    1  0.2209668E-005  0.9198148E+03  0.7818608E-02  0.9401145E-01
         -2   -1    0    0    0  501 -0.00000000000E+00  0.00000000000E+00  0.12456444044E+03  0.12456444046E+03  0.25500000000E-02 0. -1.
          2   -1    0    0  501    0  0.00000000000E+00 -0.00000000000E+00 -0.16980352063E+04  0.16980352063E+04  0.25500000000E-02 0.  1.
    5000001    1    1    2    0    0  0.18796405163E+03  0.31768841659E+03 -0.39086259317E+03  0.56953839333E+03  0.18800000000E+03 0.  0.
   -5000001    1    1    2    0    0 -0.18796405163E+03 -0.31768841659E+03 -0.11826081726E+04  0.12530612534E+04  0.18800000000E+03 0.  0.
<mgrwt>
<rscale>  0 0.91981478E+03</rscale>
<asrwt>0</asrwt>
<pdfrwt beam="1">  1        2 0.24257644E+00 0.91981478E+03</pdfrwt>
<pdfrwt beam="2">  1       -2 0.17794921E-01 0.91981478E+03</pdfrwt>
<totfact> 0.30177073E+02</totfact>
</mgrwt>
</event>
<event>
 4    1  0.2209668E-005  0.1021631E+04  0.7818608E-02  0.9285134E-01
         -2   -1    0    0    0  501 -0.00000000000E+00  0.00000000000E+00  0.18187951053E+03  0.18187951055E+03  0.25500000000E-02 0. -1.
          2   -1    0    0  501    0  0.00000000000E+00 -0.00000000000E+00 -0.14346438157E+04  0.14346438157E+04  0.25500000000E-02 0.  1.
    5000001    1    1    2    0    0 -0.75898942032E+02  0.44056174576E+03 -0.37255774998E+03  0.61155423169E+03  0.18800000000E+03 0.  0.
   -5000001    1    1    2    0    0  0.75898942032E+02 -0.44056174576E+03 -0.88020655514E+03  0.10049690945E+04  0.18800000000E+03 0.  0.
<mgrwt>
<rscale>  0 0.10216307E+04</rscale>
<asrwt>0</asrwt>
<pdfrwt beam="1">  1        2 0.20494911E+00 0.10216307E+04</pdfrwt>
<pdfrwt beam="2">  1       -2 0.25982788E-01 0.10216307E+04</pdfrwt>
<totfact> 0.21081291E+02</totfact>
</mgrwt>
</event>
<event>
 4    1  0.2209668E-005  0.4297000E+03  0.7818608E-02  0.1033955E+00
         -2   -1    0    0    0  501 -0.00000000000E+00  0.00000000000E+00  0.42968159074E+03  0.42968159075E+03  0.25500000000E-02 0. -1.
          2   -1    0    0  501    0  0.00000000000E+00 -0.00000000000E+00 -0.10742961457E+03  0.10742961460E+03  0.25500000000E-02 0.  1.
    5000001    1    1    2    0    0  0.72072100143E+02  0.73947707998E+02  0.14562051349E+03  0.25925274365E+03  0.18800000000E+03 0.  0.
   -5000001    1    1    2    0    0 -0.72072100143E+02 -0.73947707998E+02  0.17663146267E+03  0.27785846171E+03  0.18800000000E+03 0.  0.
<mgrwt>
<rscale>  0 0.42970002E+03</rscale>
<asrwt>0</asrwt>
<pdfrwt beam="1">  1        2 0.15347088E-01 0.42970002E+03</pdfrwt>
<pdfrwt beam="2">  1       -2 0.61383084E-01 0.42970002E+03</pdfrwt>
<totfact> 0.96386796E+02</totfact>
</mgrwt>
</event>
<event>
 4    1  0.2209668E-005  0.4326448E+03  0.7818608E-02  0.1033028E+00
         -2   -1    0    0    0  501 -0.00000000000E+00  0.00000000000E+00  0.52743407475E+03  0.52743407476E+03  0.25500000000E-02 0. -1.
          2   -1    0    0  501    0  0.00000000000E+00 -0.00000000000E+00 -0.88722722536E+02  0.88722722573E+02  0.25500000000E-02 0.  1.
    5000001    1    1    2    0    0  0.96804055074E+02  0.41431039930E+02  0.19219068686E+03  0.28873658629E+03  0.18800000000E+03 0.  0.
   -5000001    1    1    2    0    0 -0.96804055074E+02 -0.41431039930E+02  0.24652066535E+03  0.32742021104E+03  0.18800000000E+03 0.  0.
<mgrwt>
<rscale>  0 0.43264483E+03</rscale>
<asrwt>0</asrwt>
<pdfrwt beam="1">  1        2 0.12674674E-01 0.43264483E+03</pdfrwt>
<pdfrwt beam="2">  1       -2 0.75347729E-01 0.43264483E+03</pdfrwt>
<totfact> 0.78267565E+02</totfact>
</mgrwt>
</event>
<event>
 4    1  0.2209668E-005  0.4555146E+03  0.7818608E-02  0.1026090E+00
         -2   -1    0    0    0  501 -0.00000000000E+00  0.00000000000E+00  0.11474615060E+03  0.11474615063E+03  0.25500000000E-02 0. -1.
          2   -1    0    0  501    0  0.00000000000E+00 -0.00000000000E+00 -0.45207083395E+03  0.45207083396E+03  0.25500000000E-02 0.  1.
    5000001    1    1    2    0    0  0.16723639691E+02 -0.11935553634E+03 -0.22436622740E+03  0.31655904375E+03  0.18800000000E+03 0.  0.
   -5000001    1    1    2    0    0 -0.16723639691E+02  0.11935553634E+03 -0.11295845595E+03  0.25025794084E+03  0.18800000000E+03 0.  0.
<mgrwt>
<rscale>  0 0.45551460E+03</rscale>
<asrwt>0</asrwt>
<pdfrwt beam="1">  1        2 0.64581547E-01 0.45551460E+03</pdfrwt>
<pdfrwt beam="2">  1       -2 0.16392307E-01 0.45551460E+03</pdfrwt>
<totfact> 0.22504613E+03</totfact>
</mgrwt>
</event>
<event>
 4    1  0.2209668E-005  0.7676469E+03  0.7818608E-02  0.9608065E-01
          2   -1    0    0  501    0  0.00000000000E+00  0.00000000000E+00  0.10176791721E+04  0.10176791721E+04  0.25500000000E-02 0.  1.
         -2   -1    0    0    0  501 -0.00000000000E+00 -0.00000000000E+00 -0.14476117710E+03  0.14476117712E+03  0.25500000000E-02 0. -1.
    5000001    1    1    2    0    0 -0.21535731090E+03  0.12354464714E+03  0.77619499198E+03  0.83634007244E+03  0.18800000000E+03 0.  0.
   -5000001    1    1    2    0    0  0.21535731090E+03 -0.12354464714E+03  0.96723002997E+02  0.32610027676E+03  0.18800000000E+03 0.  0.
<mgrwt>
<rscale>  0 0.76764688E+03</rscale>
<asrwt>0</asrwt>
<pdfrwt beam="1">  1        2 0.14538274E+00 0.76764688E+03</pdfrwt>
<pdfrwt beam="2">  1       -2 0.20680168E-01 0.76764688E+03</pdfrwt>
<totfact> 0.55286789E+02</totfact>
</mgrwt>
</event>
<event>
 4    1  0.2209668E-005  0.6486646E+03  0.7818608E-02  0.9809288E-01
          2   -1    0    0  501    0  0.00000000000E+00  0.00000000000E+00  0.10839586862E+04  0.10839586862E+04  0.25500000000E-02 0.  1.
         -2   -1    0    0    0  501 -0.00000000000E+00 -0.00000000000E+00 -0.97043776746E+02  0.97043776780E+02  0.25500000000E-02 0. -1.
    5000001    1    1    2    0    0  0.20596145312E+03  0.10566135380E+03  0.26127416112E+03  0.39647525664E+03  0.18800000000E+03 0.  0.
   -5000001    1    1    2    0    0 -0.20596145312E+03 -0.10566135380E+03  0.72564074833E+03  0.78452720634E+03  0.18800000000E+03 0.  0.
<mgrwt>
<rscale>  0 0.64866461E+03</rscale>
<asrwt>0</asrwt>
<pdfrwt beam="1">  1        2 0.15485125E+00 0.64866461E+03</pdfrwt>
<pdfrwt beam="2">  1       -2 0.13863396E-01 0.64866461E+03</pdfrwt>
<totfact> 0.10050609E+03</totfact>
</mgrwt>
</event>
<event>
 4    1  0.2209668E-005  0.4337486E+03  0.7818608E-02  0.1032682E+00
         -2   -1    0    0    0  501 -0.00000000000E+00  0.00000000000E+00  0.35237556655E+03  0.35237556656E+03  0.25500000000E-02 0. -1.
          2   -1    0    0  501    0  0.00000000000E+00 -0.00000000000E+00 -0.13347823506E+03  0.13347823508E+03  0.25500000000E-02 0.  1.
    5000001    1    1    2    0    0 -0.86402256648E+02 -0.62439455228E+02  0.89210803318E+02  0.23380890264E+03  0.18800000000E+03 0.  0.
   -5000001    1    1    2    0    0  0.86402256648E+02  0.62439455228E+02  0.12968652818E+03  0.25204489900E+03  0.18800000000E+03 0.  0.
<mgrwt>
<rscale>  0 0.43374863E+03</rscale>
<asrwt>0</asrwt>
<pdfrwt beam="1">  1        2 0.19068320E-01 0.43374863E+03</pdfrwt>
<pdfrwt beam="2">  1       -2 0.50339365E-01 0.43374863E+03</pdfrwt>
<totfact> 0.11214000E+03</totfact>
</mgrwt>
</event>
<event>
 4    1  0.2209668E-005  0.5905857E+03  0.7818608E-02  0.9925133E-01
         -2   -1    0    0    0  501 -0.00000000000E+00  0.00000000000E+00  0.80544510366E+02  0.80544510407E+02  0.25500000000E-02 0. -1.
          2   -1    0    0  501    0  0.00000000000E+00 -0.00000000000E+00 -0.10826046907E+04  0.10826046907E+04  0.25500000000E-02 0.  1.
    5000001    1    1    2    0    0  0.20883739431E+03 -0.80562513204E+02 -0.58343103555E+03  0.65256352107E+03  0.18800000000E+03 0.  0.
   -5000001    1    1    2    0    0 -0.20883739431E+03  0.80562513204E+02 -0.41862914481E+03  0.51058568006E+03  0.18800000000E+03 0.  0.
<mgrwt>
<rscale>  0 0.59058569E+03</rscale>
<asrwt>0</asrwt>
<pdfrwt beam="1">  1        2 0.15465780E+00 0.59058569E+03</pdfrwt>
<pdfrwt beam="2">  1       -2 0.11506359E-01 0.59058569E+03</pdfrwt>
<totfact> 0.13728379E+03</totfact>
</mgrwt>
</event>
<event>
 4    1  0.2209668E-005  0.6775031E+03  0.7818608E-02  0.9756498E-01
          2   -1    0    0  501    0  0.00000000000E+00  0.00000000000E+00  0.20251283991E+04  0.20251283991E+04  0.25500000000E-02 0.  1.
         -2   -1    0    0    0  501 -0.00000000000E+00 -0.00000000000E+00 -0.56664357666E+02  0.56664357723E+02  0.25500000000E-02 0. -1.
    5000001    1    1    2    0    0  0.21917008798E+03  0.17389881296E+03  0.88083637228E+03  0.94312938633E+03  0.18800000000E+03 0.  0.
   -5000001    1    1    2    0    0 -0.21917008798E+03 -0.17389881296E+03  0.10876276692E+04  0.11386633705E+04  0.18800000000E+03 0.  0.
<mgrwt>
<rscale>  0 0.67750306E+03</rscale>
<asrwt>0</asrwt>
<pdfrwt beam="1">  1        2 0.28930398E+00 0.67750306E+03</pdfrwt>
<pdfrwt beam="2">  1       -2 0.80949105E-02 0.67750306E+03</pdfrwt>
<totfact> 0.77051638E+02</totfact>
</mgrwt>
</event>
<event>
 4    1  0.2209668E-005  0.7415635E+03  0.7818608E-02  0.9648680E-01
          2   -1    0    0  501    0  0.00000000000E+00  0.00000000000E+00  0.10449547336E+04  0.10449547336E+04  0.25500000000E-02 0.  1.
         -2   -1    0    0    0  501 -0.00000000000E+00 -0.00000000000E+00 -0.13156466347E+03  0.13156466349E+03  0.25500000000E-02 0. -1.
    5000001    1    1    2    0    0  0.23154452449E+03 -0.20241652153E+03  0.59454876880E+03  0.69528235523E+03  0.18800000000E+03 0.  0.
   -5000001    1    1    2    0    0 -0.23154452449E+03  0.20241652153E+03  0.31884130129E+03  0.48123704182E+03  0.18800000000E+03 0.  0.
<mgrwt>
<rscale>  0 0.74156353E+03</rscale>
<asrwt>0</asrwt>
<pdfrwt beam="1">  1        2 0.14927925E+00 0.74156353E+03</pdfrwt>
<pdfrwt beam="2">  1       -2 0.18794952E-01 0.74156353E+03</pdfrwt>
<totfact> 0.62955706E+02</totfact>
</mgrwt>
</event>
<event>
 4    1  0.2209668E-005  0.1004504E+04  0.7818608E-02  0.9303619E-01
         -2   -1    0    0    0  501 -0.00000000000E+00  0.00000000000E+00  0.18931152743E+03  0.18931152745E+03  0.25500000000E-02 0. -1.
          2   -1    0    0  501    0  0.00000000000E+00 -0.00000000000E+00 -0.13324975011E+04  0.13324975011E+04  0.25500000000E-02 0.  1.
    5000001    1    1    2    0    0 -0.45079357213E+03  0.23059843867E+02 -0.74543077898E+03  0.89149181002E+03  0.18800000000E+03 0.  0.
   -5000001    1    1    2    0    0  0.45079357213E+03 -0.23059843867E+02 -0.39775519470E+03  0.63031721854E+03  0.18800000000E+03 0.  0.
<mgrwt>
<rscale>  0 0.10045041E+04</rscale>
<asrwt>0</asrwt>
<pdfrwt beam="1">  1        2 0.19035678E+00 0.10045041E+04</pdfrwt>
<pdfrwt beam="2">  1       -2 0.27044505E-01 0.10045041E+04</pdfrwt>
<totfact> 0.22280546E+02</totfact>
</mgrwt>
</event>
<event>
 4    1  0.2209668E-005  0.4116684E+03  0.7818608E-02  0.1039813E+00
          2   -1    0    0  501    0  0.00000000000E+00  0.00000000000E+00  0.36452040062E+03  0.36452040063E+03  0.25500000000E-02 0.  1.
         -2   -1    0    0    0  501 -0.00000000000E+00 -0.00000000000E+00 -0.11622865473E+03  0.11622865476E+03  0.25500000000E-02 0. -1.
    5000001    1    1    2    0    0  0.99870993261E+01 -0.82592484709E+02  0.11232532155E+03  0.23426958519E+03  0.18800000000E+03 0.  0.
   -5000001    1    1    2    0    0 -0.99870993261E+01  0.82592484709E+02  0.13596642434E+03  0.24647947020E+03  0.18800000000E+03 0.  0.
<mgrwt>
<rscale>  0 0.41166839E+03</rscale>
<asrwt>0</asrwt>
<pdfrwt beam="1">  1        2 0.52074343E-01 0.41166839E+03</pdfrwt>
<pdfrwt beam="2">  1       -2 0.16604093E-01 0.41166839E+03</pdfrwt>
<totfact> 0.27882235E+03</totfact>
</mgrwt>
</event>
<event>
 4    1  0.2209668E-005  0.4649965E+03  0.7818608E-02  0.1023342E+00
         -2   -1    0    0    0  501 -0.00000000000E+00  0.00000000000E+00  0.18943780671E+03  0.18943780672E+03  0.25500000000E-02 0. -1.
          2   -1    0    0  501    0  0.00000000000E+00 -0.00000000000E+00 -0.28534665291E+03  0.28534665292E+03  0.25500000000E-02 0.  1.
    5000001    1    1    2    0    0 -0.43655456119E+02 -0.12553169211E+03 -0.14909004591E+02  0.23071688926E+03  0.18800000000E+03 0.  0.
   -5000001    1    1    2    0    0  0.43655456119E+02  0.12553169211E+03 -0.80999841614E+02  0.24406757038E+03  0.18800000000E+03 0.  0.
<mgrwt>
<rscale>  0 0.46499653E+03</rscale>
<asrwt>0</asrwt>
<pdfrwt beam="1">  1        2 0.40763807E-01 0.46499653E+03</pdfrwt>
<pdfrwt beam="2">  1       -2 0.27062544E-01 0.46499653E+03</pdfrwt>
<totfact> 0.15565459E+03</totfact>
</mgrwt>
</event>
<event>
 4    1  0.2209668E-005  0.7780304E+03  0.7818608E-02  0.9592373E-01
         -2   -1    0    0    0  501 -0.00000000000E+00  0.00000000000E+00  0.30102458355E+03  0.30102458356E+03  0.25500000000E-02 0. -1.
          2   -1    0    0  501    0  0.00000000000E+00 -0.00000000000E+00 -0.50272574930E+03  0.50272574930E+03  0.25500000000E-02 0.  1.
    5000001    1    1    2    0    0  0.15022334486E+02 -0.30061373458E+03 -0.26547514729E+03  0.44318770491E+03  0.18800000000E+03 0.  0.
   -5000001    1    1    2    0    0 -0.15022334486E+02  0.30061373458E+03  0.63773981540E+02  0.36056262795E+03  0.18800000000E+03 0.  0.
<mgrwt>
<rscale>  0 0.77803036E+03</rscale>
<asrwt>0</asrwt>
<pdfrwt beam="1">  1        2 0.71817964E-01 0.77803036E+03</pdfrwt>
<pdfrwt beam="2">  1       -2 0.43003512E-01 0.77803036E+03</pdfrwt>
<totfact> 0.34409628E+02</totfact>
</mgrwt>
</event>
<event>
 4    1  0.2209668E-005  0.4497358E+03  0.7818608E-02  0.1027801E+00
         -2   -1    0    0    0  501 -0.00000000000E+00  0.00000000000E+00  0.22195055142E+03  0.22195055143E+03  0.25500000000E-02 0. -1.
          2   -1    0    0  501    0  0.00000000000E+00 -0.00000000000E+00 -0.22782364052E+03  0.22782364053E+03  0.25500000000E-02 0.  1.
    5000001    1    1    2    0    0 -0.25474175188E+02 -0.11738192851E+03  0.25246204310E+02  0.22451908955E+03  0.18800000000E+03 0.  0.
   -5000001    1    1    2    0    0  0.25474175188E+02  0.11738192851E+03 -0.31119293410E+02  0.22525510241E+03  0.18800000000E+03 0.  0.
<mgrwt>
<rscale>  0 0.44973585E+03</rscale>
<asrwt>0</asrwt>
<pdfrwt beam="1">  1        2 0.32546234E-01 0.44973585E+03</pdfrwt>
<pdfrwt beam="2">  1       -2 0.31707222E-01 0.44973585E+03</pdfrwt>
<totfact> 0.14924902E+03</totfact>
</mgrwt>
</event>
<event>
 4    1  0.2209668E-005  0.6614026E+03  0.7818608E-02  0.9785615E-01
         -2   -1    0    0    0  501 -0.00000000000E+00  0.00000000000E+00  0.39895071447E+02  0.39895071529E+02  0.25500000000E-02 0. -1.
          2   -1    0    0  501    0  0.00000000000E+00 -0.00000000000E+00 -0.27412746681E+04  0.27412746681E+04  0.25500000000E-02 0.  1.
    5000001    1    1    2    0    0 -0.31684913406E+02 -0.19627429653E+03 -0.21316333218E+04  0.21491235777E+04  0.18800000000E+03 0.  0.
   -5000001    1    1    2    0    0  0.31684913406E+02  0.19627429653E+03 -0.56974627480E+03  0.63204616197E+03  0.18800000000E+03 0.  0.
<mgrwt>
<rscale>  0 0.66140260E+03</rscale>
<asrwt>0</asrwt>
<pdfrwt beam="1">  1        2 0.39161055E+00 0.66140260E+03</pdfrwt>
<pdfrwt beam="2">  1       -2 0.56992977E-02 0.66140260E+03</pdfrwt>
<totfact> 0.57739173E+02</totfact>
</mgrwt>
</event>
<event>
 4    1  0.2209668E-005  0.5116409E+03  0.7818608E-02  0.1010784E+00
          2   -1    0    0  501    0  0.00000000000E+00  0.00000000000E+00  0.32507639056E+03  0.32507639057E+03  0.25500000000E-02 0.  1.
         -2   -1    0    0    0  501 -0.00000000000E+00 -0.00000000000E+00 -0.20131912809E+03  0.20131912811E+03  0.25500000000E-02 0. -1.
    5000001    1    1    2    0    0 -0.10685584219E+03 -0.63881915386E+02 -0.62440690184E+02  0.23396989104E+03  0.18800000000E+03 0.  0.
   -5000001    1    1    2    0    0  0.10685584219E+03  0.63881915386E+02  0.18619795265E+03  0.29242562763E+03  0.18800000000E+03 0.  0.
<mgrwt>
<rscale>  0 0.51164087E+03</rscale>
<asrwt>0</asrwt>
<pdfrwt beam="1">  1        2 0.46439484E-01 0.51164087E+03</pdfrwt>
<pdfrwt beam="2">  1       -2 0.28759876E-01 0.51164087E+03</pdfrwt>
<totfact> 0.12083740E+03</totfact>
</mgrwt>
</event>
<event>
 4    1  0.2209668E-005  0.5083006E+03  0.7818608E-02  0.1011635E+00
          2   -1    0    0  501    0  0.00000000000E+00  0.00000000000E+00  0.11025344110E+04  0.11025344110E+04  0.25500000000E-02 0.  1.
         -2   -1    0    0    0  501 -0.00000000000E+00 -0.00000000000E+00 -0.58585357524E+02  0.58585357579E+02  0.25500000000E-02 0. -1.
    5000001    1    1    2    0    0 -0.56170444951E+02  0.15977305811E+03  0.57631169121E+03  0.62941378632E+03  0.18800000000E+03 0.  0.
   -5000001    1    1    2    0    0  0.56170444951E+02 -0.15977305811E+03  0.46763736225E+03  0.53170598224E+03  0.18800000000E+03 0.  0.
<mgrwt>
<rscale>  0 0.50830059E+03</rscale>
<asrwt>0</asrwt>
<pdfrwt beam="1">  1        2 0.15750492E+00 0.50830059E+03</pdfrwt>
<pdfrwt beam="2">  1       -2 0.83693367E-02 0.50830059E+03</pdfrwt>
<totfact> 0.22381823E+03</totfact>
</mgrwt>
</event>
<event>
 4    1  0.2209668E-005  0.2370610E+04  0.7818608E-02  0.8450589E-01
         -2   -1    0    0    0  501 -0.00000000000E+00  0.00000000000E+00  0.10137219935E+04  0.10137219935E+04  0.25500000000E-02 0.  1.
          2   -1    0    0  501    0  0.00000000000E+00 -0.00000000000E+00 -0.13859302268E+04  0.13859302269E+04  0.25500000000E-02 0. -1.
    5000001    1    1    2    0    0 -0.76412995627E+03  0.41013770266E+02 -0.10824048770E+04  0.13388506404E+04  0.18800000000E+03 0.  0.
   -5000001    1    1    2    0    0  0.76412995627E+03 -0.41013770266E+02  0.71019664362E+03  0.10608015800E+04  0.18800000000E+03 0.  0.
<mgrwt>
<rscale>  0 0.23706100E+04</rscale>
<asrwt>0</asrwt>
<pdfrwt beam="1">  1        2 0.19799003E+00 0.23706100E+04</pdfrwt>
<pdfrwt beam="2">  1       -2 0.14481743E+00 0.23706100E+04</pdfrwt>
<totfact> 0.50183636E+00</totfact>
</mgrwt>
</event>
<event>
 4    1  0.2209668E-005  0.4712512E+03  0.7818608E-02  0.1021568E+00
          2   -1    0    0  501    0  0.00000000000E+00  0.00000000000E+00  0.59890306568E+03  0.59890306568E+03  0.25500000000E-02 0.  1.
         -2   -1    0    0    0  501 -0.00000000000E+00 -0.00000000000E+00 -0.92701869829E+02  0.92701869864E+02  0.25500000000E-02 0. -1.
    5000001    1    1    2    0    0  0.10324905986E+03 -0.96829429344E+02  0.23579001270E+03  0.33313246140E+03  0.18800000000E+03 0.  0.
   -5000001    1    1    2    0    0 -0.10324905986E+03  0.96829429344E+02  0.27041118315E+03  0.35847247415E+03  0.18800000000E+03 0.  0.
<mgrwt>
<rscale>  0 0.47125125E+03</rscale>
<asrwt>0</asrwt>
<pdfrwt beam="1">  1        2 0.85557581E-01 0.47125125E+03</pdfrwt>
<pdfrwt beam="2">  1       -2 0.13243124E-01 0.47125125E+03</pdfrwt>
<totfact> 0.23353562E+03</totfact>
</mgrwt>
</event>
<event>
 4    1  0.2209668E-005  0.4528046E+03  0.7818608E-02  0.1026889E+00
         -2   -1    0    0    0  501 -0.00000000000E+00  0.00000000000E+00  0.72105548024E+02  0.72105548069E+02  0.25500000000E-02 0. -1.
          2   -1    0    0  501    0  0.00000000000E+00 -0.00000000000E+00 -0.71087444340E+03  0.71087444340E+03  0.25500000000E-02 0.  1.
    5000001    1    1    2    0    0  0.11649408137E+03 -0.29884563673E+01 -0.40292703663E+03  0.45964551419E+03  0.18800000000E+03 0.  0.
   -5000001    1    1    2    0    0 -0.11649408137E+03  0.29884563673E+01 -0.23584185875E+03  0.32333447729E+03  0.18800000000E+03 0.  0.
<mgrwt>
<rscale>  0 0.45280456E+03</rscale>
<asrwt>0</asrwt>
<pdfrwt beam="1">  1        2 0.10155349E+00 0.45280456E+03</pdfrwt>
<pdfrwt beam="2">  1       -2 0.10300793E-01 0.45280456E+03</pdfrwt>
<totfact> 0.28694056E+03</totfact>
</mgrwt>
</event>
<event>
 4    1  0.2209668E-005  0.5372673E+03  0.7818608E-02  0.1004485E+00
         -2   -1    0    0    0  501 -0.00000000000E+00  0.00000000000E+00  0.40381209042E+02  0.40381209122E+02  0.25500000000E-02 0. -1.
          2   -1    0    0  501    0  0.00000000000E+00 -0.00000000000E+00 -0.17870696875E+04  0.17870696875E+04  0.25500000000E-02 0.  1.
    5000001    1    1    2    0    0  0.17988014232E+03 -0.54864810205E+02 -0.74368861289E+03  0.78979982650E+03  0.18800000000E+03 0.  0.
   -5000001    1    1    2    0    0 -0.17988014232E+03  0.54864810205E+02 -0.10029998656E+04  0.10376510701E+04  0.18800000000E+03 0.  0.
<mgrwt>
<rscale>  0 0.53726729E+03</rscale>
<asrwt>0</asrwt>
<pdfrwt beam="1">  1        2 0.25529562E+00 0.53726729E+03</pdfrwt>
<pdfrwt beam="2">  1       -2 0.57687453E-02 0.53726729E+03</pdfrwt>
<totfact> 0.17455049E+03</totfact>
</mgrwt>
</event>
<event>
 4    1  0.2209668E-005  0.1248232E+04  0.7818608E-02  0.9071656E-01
         -2   -1    0    0    0  501 -0.00000000000E+00  0.00000000000E+00  0.16218143264E+03  0.16218143266E+03  0.25500000000E-02 0. -1.
          2   -1    0    0  501    0  0.00000000000E+00 -0.00000000000E+00 -0.24017580956E+04  0.24017580956E+04  0.25500000000E-02 0.  1.
    5000001    1    1    2    0    0 -0.45902078561E+03 -0.34757434162E+03 -0.14290489296E+04  0.15521059396E+04  0.18800000000E+03 0.  0.
   -5000001    1    1    2    0    0  0.45902078561E+03  0.34757434162E+03 -0.81052773337E+03  0.10118335887E+04  0.18800000000E+03 0.  0.
<mgrwt>
<rscale>  0 0.12482317E+04</rscale>
<asrwt>0</asrwt>
<pdfrwt beam="1">  1        2 0.34310828E+00 0.12482317E+04</pdfrwt>
<pdfrwt beam="2">  1       -2 0.23168777E-01 0.12482317E+04</pdfrwt>
<totfact> 0.80644534E+01</totfact>
</mgrwt>
</event>
<event>
 4    1  0.2209668E-005  0.6540384E+03  0.7818608E-02  0.9799231E-01
         -2   -1    0    0    0  501 -0.00000000000E+00  0.00000000000E+00  0.47826776234E+02  0.47826776302E+02  0.25500000000E-02 0. -1.
          2   -1    0    0  501    0  0.00000000000E+00 -0.00000000000E+00 -0.22360183511E+04  0.22360183511E+04  0.25500000000E-02 0.  1.
    5000001    1    1    2    0    0 -0.24685495722E+03 -0.73278435150E+02 -0.13480817673E+04  0.13852709303E+04  0.18800000000E+03 0.  0.
   -5000001    1    1    2    0    0  0.24685495722E+03  0.73278435150E+02 -0.84010980757E+03  0.89857419712E+03  0.18800000000E+03 0.  0.
<mgrwt>
<rscale>  0 0.65403838E+03</rscale>
<asrwt>0</asrwt>
<pdfrwt beam="1">  1        2 0.31943113E+00 0.65403838E+03</pdfrwt>
<pdfrwt beam="2">  1       -2 0.68323980E-02 0.65403838E+03</pdfrwt>
<totfact> 0.79080297E+02</totfact>
</mgrwt>
</event>
<event>
 4    1  0.2209668E-005  0.6658349E+03  0.7818608E-02  0.9777512E-01
         -2   -1    0    0    0  501 -0.00000000000E+00  0.00000000000E+00  0.14374575963E+03  0.14374575965E+03  0.25500000000E-02 0. -1.
          2   -1    0    0  501    0  0.00000000000E+00 -0.00000000000E+00 -0.77104206526E+03  0.77104206526E+03  0.25500000000E-02 0.  1.
    5000001    1    1    2    0    0 -0.19441066461E+03 -0.19409390524E+03 -0.32010353744E+03  0.46182055524E+03  0.18800000000E+03 0.  0.
   -5000001    1    1    2    0    0  0.19441066461E+03  0.19409390524E+03 -0.30719276819E+03  0.45296726967E+03  0.18800000000E+03 0.  0.
<mgrwt>
<rscale>  0 0.66583490E+03</rscale>
<asrwt>0</asrwt>
<pdfrwt beam="1">  1        2 0.11014886E+00 0.66583490E+03</pdfrwt>
<pdfrwt beam="2">  1       -2 0.20535109E-01 0.66583490E+03</pdfrwt>
<totfact> 0.81449002E+02</totfact>
</mgrwt>
</event>
<event>
 4    1  0.2209668E-005  0.4498951E+03  0.7818608E-02  0.1027753E+00
         -2   -1    0    0    0  501 -0.00000000000E+00  0.00000000000E+00  0.17361466494E+02  0.17361466681E+02  0.25500000000E-02 0. -1.
          2   -1    0    0  501    0  0.00000000000E+00 -0.00000000000E+00 -0.29145815418E+04  0.29145815418E+04  0.25500000000E-02 0.  1.
    5000001    1    1    2    0    0 -0.11450765135E+03 -0.46250874726E+02 -0.14649212005E+04  0.14820894944E+04  0.18800000000E+03 0.  0.
   -5000001    1    1    2    0    0  0.11450765135E+03  0.46250874726E+02 -0.14322988748E+04  0.14498535141E+04  0.18800000000E+03 0.  0.
<mgrwt>
<rscale>  0 0.44989514E+03</rscale>
<asrwt>0</asrwt>
<pdfrwt beam="1">  1        2 0.41636848E+00 0.44989514E+03</pdfrwt>
<pdfrwt beam="2">  1       -2 0.24802114E-02 0.44989514E+03</pdfrwt>
<totfact> 0.17000487E+03</totfact>
</mgrwt>
</event>
<event>
 4    1  0.2209668E-005  0.9099796E+03  0.7818608E-02  0.9413192E-01
          2   -1    0    0  501    0  0.00000000000E+00  0.00000000000E+00  0.22469215007E+04  0.22469215007E+04  0.25500000000E-02 0.  1.
         -2   -1    0    0    0  501 -0.00000000000E+00 -0.00000000000E+00 -0.92133045944E+02  0.92133045980E+02  0.25500000000E-02 0. -1.
    5000001    1    1    2    0    0 -0.34301460781E+03  0.13174088575E+03  0.15695327765E+04  0.16228961207E+04  0.18800000000E+03 0.  0.
   -5000001    1    1    2    0    0  0.34301460781E+03 -0.13174088575E+03  0.58525567828E+03  0.71615842599E+03  0.18800000000E+03 0.  0.
<mgrwt>
<rscale>  0 0.90997961E+03</rscale>
<asrwt>0</asrwt>
<pdfrwt beam="1">  1        2 0.32098875E+00 0.90997961E+03</pdfrwt>
<pdfrwt beam="2">  1       -2 0.13161865E-01 0.90997961E+03</pdfrwt>
<totfact> 0.26446435E+02</totfact>
</mgrwt>
</event>
<event>
 4    1  0.2209668E-005  0.9017346E+03  0.7818608E-02  0.9423416E-01
         -2   -1    0    0    0  501 -0.00000000000E+00  0.00000000000E+00  0.41361072047E+03  0.41361072048E+03  0.25500000000E-02 0. -1.
          2   -1    0    0  501    0  0.00000000000E+00 -0.00000000000E+00 -0.49147986120E+03  0.49147986120E+03  0.25500000000E-02 0.  1.
    5000001    1    1    2    0    0 -0.10568053023E+03  0.30542747324E+03 -0.29183064874E+03  0.47430311345E+03  0.18800000000E+03 0.  0.
   -5000001    1    1    2    0    0  0.10568053023E+03 -0.30542747324E+03  0.21396150802E+03  0.43078746824E+03  0.18800000000E+03 0.  0.
<mgrwt>
<rscale>  0 0.90173464E+03</rscale>
<asrwt>0</asrwt>
<pdfrwt beam="1">  1        2 0.70211409E-01 0.90173464E+03</pdfrwt>
<pdfrwt beam="2">  1       -2 0.59087246E-01 0.90173464E+03</pdfrwt>
<totfact> 0.18383418E+02</totfact>
</mgrwt>
</event>
<event>
 4    1  0.2209668E-005  0.4568187E+03  0.7818608E-02  0.1025708E+00
         -2   -1    0    0    0  501 -0.00000000000E+00  0.00000000000E+00  0.13941919801E+03  0.13941919803E+03  0.25500000000E-02 0. -1.
          2   -1    0    0  501    0  0.00000000000E+00 -0.00000000000E+00 -0.37420112121E+03  0.37420112122E+03  0.25500000000E-02 0.  1.
    5000001    1    1    2    0    0  0.50370176321E+02  0.11038762396E+03 -0.16896674125E+03  0.28038605856E+03  0.18800000000E+03 0.  0.
   -5000001    1    1    2    0    0 -0.50370176321E+02 -0.11038762396E+03 -0.65815181946E+02  0.23323426069E+03  0.18800000000E+03 0.  0.
<mgrwt>
<rscale>  0 0.45681865E+03</rscale>
<asrwt>0</asrwt>
<pdfrwt beam="1">  1        2 0.53457303E-01 0.45681865E+03</pdfrwt>
<pdfrwt beam="2">  1       -2 0.19917028E-01 0.45681865E+03</pdfrwt>
<totfact> 0.19879467E+03</totfact>
</mgrwt>
</event>
<event>
 4    1  0.2209668E-005  0.6044990E+03  0.7818608E-02  0.9896116E-01
          2   -1    0    0  501    0  0.00000000000E+00  0.00000000000E+00  0.97514364151E+03  0.97514364151E+03  0.25500000000E-02 0.  1.
         -2   -1    0    0    0  501 -0.00000000000E+00 -0.00000000000E+00 -0.93683396665E+02  0.93683396700E+02  0.25500000000E-02 0. -1.
    5000001    1    1    2    0    0  0.12611450261E+03  0.20008457418E+03  0.45573978792E+03  0.54679197039E+03  0.18800000000E+03 0.  0.
   -5000001    1    1    2    0    0 -0.12611450261E+03 -0.20008457418E+03  0.42572045692E+03  0.52203506782E+03  0.18800000000E+03 0.  0.
<mgrwt>
<rscale>  0 0.60449903E+03</rscale>
<asrwt>0</asrwt>
<pdfrwt beam="1">  1        2 0.13930624E+00 0.60449903E+03</pdfrwt>
<pdfrwt beam="2">  1       -2 0.13383342E-01 0.60449903E+03</pdfrwt>
<totfact> 0.12407823E+03</totfact>
</mgrwt>
</event>
<event>
 4    1  0.2209668E-005  0.4299997E+03  0.7818608E-02  0.1033860E+00
          2   -1    0    0  501    0  0.00000000000E+00  0.00000000000E+00  0.29688886697E+04  0.29688886697E+04  0.25500000000E-02 0. -1.
         -2   -1    0    0    0  501 -0.00000000000E+00 -0.00000000000E+00 -0.15569773784E+02  0.15569773993E+02  0.25500000000E-02 0.  1.
    5000001    1    1    2    0    0  0.62258434166E+02 -0.77787792522E+02  0.16910188227E+04  0.17043519918E+04  0.18800000000E+03 0.  0.
   -5000001    1    1    2    0    0 -0.62258434166E+02  0.77787792522E+02  0.12623000732E+04  0.12801064518E+04  0.18800000000E+03 0.  0.
<mgrwt>
<rscale>  0 0.42999965E+03</rscale>
<asrwt>0</asrwt>
<pdfrwt beam="1">  1        2 0.42412676E+00 0.42999965E+03</pdfrwt>
<pdfrwt beam="2">  1       -2 0.22242544E-02 0.42999965E+03</pdfrwt>
<totfact> 0.18750470E+03</totfact>
</mgrwt>
</event>
<event>
 4    1  0.2209668E-005  0.5718070E+03  0.7818608E-02  0.9965688E-01
         -2   -1    0    0    0  501 -0.00000000000E+00  0.00000000000E+00  0.49492460250E+03  0.49492460251E+03  0.25500000000E-02 0. -1.
          2   -1    0    0  501    0  0.00000000000E+00 -0.00000000000E+00 -0.16515811845E+03  0.16515811847E+03  0.25500000000E-02 0.  1.
    5000001    1    1    2    0    0 -0.45713043460E+00 -0.19947117435E+03  0.25872134664E+03  0.37692133605E+03  0.18800000000E+03 0.  0.
   -5000001    1    1    2    0    0  0.45713043460E+00  0.19947117435E+03  0.71045137415E+02  0.28316138493E+03  0.18800000000E+03 0.  0.
<mgrwt>
<rscale>  0 0.57180702E+03</rscale>
<asrwt>0</asrwt>
<pdfrwt beam="1">  1        2 0.23594017E-01 0.57180702E+03</pdfrwt>
<pdfrwt beam="2">  1       -2 0.70703514E-01 0.57180702E+03</pdfrwt>
<totfact> 0.43006163E+02</totfact>
</mgrwt>
</event>
<event>
 4    1  0.2209668E-005  0.5311104E+03  0.7818608E-02  0.1005963E+00
          2   -1    0    0  501    0  0.00000000000E+00  0.00000000000E+00  0.59411752762E+03  0.59411752762E+03  0.25500000000E-02 0.  1.
         -2   -1    0    0    0  501 -0.00000000000E+00 -0.00000000000E+00 -0.11869634015E+03  0.11869634018E+03  0.25500000000E-02 0. -1.
    5000001    1    1    2    0    0 -0.14431934347E+03 -0.10243829833E+02  0.77539022189E+02  0.24957826210E+03  0.18800000000E+03 0.  0.
   -5000001    1    1    2    0    0  0.14431934347E+03  0.10243829833E+02  0.39788216528E+03  0.46323560571E+03  0.18800000000E+03 0.  0.
<mgrwt>
<rscale>  0 0.53111044E+03</rscale>
<asrwt>0</asrwt>
<pdfrwt beam="1">  1        2 0.84873934E-01 0.53111044E+03</pdfrwt>
<pdfrwt beam="2">  1       -2 0.16956620E-01 0.53111044E+03</pdfrwt>
<totfact> 0.15581134E+03</totfact>
</mgrwt>
</event>
<event>
 4    1  0.2209668E-005  0.5622525E+03  0.7818608E-02  0.9986971E-01
          2   -1    0    0  501    0  0.00000000000E+00  0.00000000000E+00  0.17902721208E+04  0.17902721208E+04  0.25500000000E-02 0.  1.
         -2   -1    0    0    0  501 -0.00000000000E+00 -0.00000000000E+00 -0.44145221865E+02  0.44145221939E+02  0.25500000000E-02 0. -1.
    5000001    1    1    2    0    0 -0.16768809065E+03 -0.76772466635E+02  0.55215255096E+03  0.61174320340E+03  0.18800000000E+03 0.  0.
   -5000001    1    1    2    0    0  0.16768809065E+03  0.76772466635E+02  0.11939743479E+04  0.12226741393E+04  0.18800000000E+03 0.  0.
<mgrwt>
<rscale>  0 0.56225247E+03</rscale>
<asrwt>0</asrwt>
<pdfrwt beam="1">  1        2 0.25575311E+00 0.56225247E+03</pdfrwt>
<pdfrwt beam="2">  1       -2 0.63064616E-02 0.56225247E+03</pdfrwt>
<totfact> 0.15113375E+03</totfact>
</mgrwt>
</event>
<event>
 4    1  0.2209668E-005  0.4554740E+03  0.7818608E-02  0.1026102E+00
         -2   -1    0    0    0  501 -0.00000000000E+00  0.00000000000E+00  0.28127169527E+03  0.28127169528E+03  0.25500000000E-02 0. -1.
          2   -1    0    0  501    0  0.00000000000E+00 -0.00000000000E+00 -0.18439161130E+03  0.18439161131E+03  0.25500000000E-02 0.  1.
    5000001    1    1    2    0    0 -0.77965640187E+02 -0.70591082070E+02  0.12397379676E+03  0.24854626169E+03  0.18800000000E+03 0.  0.
   -5000001    1    1    2    0    0  0.77965640187E+02  0.70591082070E+02 -0.27093712782E+02  0.21711704491E+03  0.18800000000E+03 0.  0.
<mgrwt>
<rscale>  0 0.45547400E+03</rscale>
<asrwt>0</asrwt>
<pdfrwt beam="1">  1        2 0.26341659E-01 0.45547400E+03</pdfrwt>
<pdfrwt beam="2">  1       -2 0.40181671E-01 0.45547400E+03</pdfrwt>
<totfact> 0.12079032E+03</totfact>
</mgrwt>
</event>
<event>
 4    1  0.2209668E-005  0.5907184E+03  0.7818608E-02  0.9924852E-01
         -2   -1    0    0    0  501 -0.00000000000E+00  0.00000000000E+00  0.32766752892E+02  0.32766752991E+02  0.25500000000E-02 0. -1.
          2   -1    0    0  501    0  0.00000000000E+00 -0.00000000000E+00 -0.26623647742E+04  0.26623647742E+04  0.25500000000E-02 0.  1.
    5000001    1    1    2    0    0 -0.14351284859E+03  0.62818663081E+02 -0.20693446414E+04  0.20837642302E+04  0.18800000000E+03 0.  0.
   -5000001    1    1    2    0    0  0.14351284859E+03 -0.62818663081E+02 -0.56025337992E+03  0.61136729701E+03  0.18800000000E+03 0.  0.
<mgrwt>
<rscale>  0 0.59071837E+03</rscale>
<asrwt>0</asrwt>
<pdfrwt beam="1">  1        2 0.38033769E+00 0.59071837E+03</pdfrwt>
<pdfrwt beam="2">  1       -2 0.46809664E-02 0.59071837E+03</pdfrwt>
<totfact> 0.86760775E+02</totfact>
</mgrwt>
</event>
<event>
 4    1  0.2209668E-005  0.4381626E+03  0.7818608E-02  0.1031312E+00
          2   -1    0    0  501    0  0.00000000000E+00  0.00000000000E+00  0.59383468584E+03  0.59383468585E+03  0.25500000000E-02 0.  1.
         -2   -1    0    0    0  501 -0.00000000000E+00 -0.00000000000E+00 -0.80824871682E+02  0.80824871723E+02  0.25500000000E-02 0. -1.
    5000001    1    1    2    0    0 -0.28657530925E+02 -0.85460287980E+02  0.36011395374E+03  0.41611389616E+03  0.18800000000E+03 0.  0.
   -5000001    1    1    2    0    0  0.28657530925E+02  0.85460287980E+02  0.15289586042E+03  0.25854566141E+03  0.18800000000E+03 0.  0.
<mgrwt>
<rscale>  0 0.43816258E+03</rscale>
<asrwt>0</asrwt>
<pdfrwt beam="1">  1        2 0.84833529E-01 0.43816258E+03</pdfrwt>
<pdfrwt beam="2">  1       -2 0.11546410E-01 0.43816258E+03</pdfrwt>
<totfact> 0.29513233E+03</totfact>
</mgrwt>
</event>
<event>
 4    1  0.2209668E-005  0.6818171E+03  0.7818608E-02  0.9748843E-01
          2   -1    0    0  501    0  0.00000000000E+00  0.00000000000E+00  0.59351514264E+03  0.59351514265E+03  0.25500000000E-02 0.  1.
         -2   -1    0    0    0  501 -0.00000000000E+00 -0.00000000000E+00 -0.19581411506E+03  0.19581411507E+03  0.25500000000E-02 0. -1.
    5000001    1    1    2    0    0 -0.25119561934E+03  0.78089438921E+02  0.32395249292E+03  0.45769686182E+03  0.18800000000E+03 0.  0.
   -5000001    1    1    2    0    0  0.25119561934E+03 -0.78089438921E+02  0.73748534668E+02  0.33163239590E+03  0.18800000000E+03 0.  0.
<mgrwt>
<rscale>  0 0.68181711E+03</rscale>
<asrwt>0</asrwt>
<pdfrwt beam="1">  1        2 0.84787878E-01 0.68181711E+03</pdfrwt>
<pdfrwt beam="2">  1       -2 0.27973445E-01 0.68181711E+03</pdfrwt>
<totfact> 0.64413366E+02</totfact>
</mgrwt>
</event>
<event>
 4    1  0.2209668E-005  0.9573829E+03  0.7818608E-02  0.9356562E-01
         -2   -1    0    0    0  501 -0.00000000000E+00  0.00000000000E+00  0.11472771146E+03  0.11472771149E+03  0.25500000000E-02 0. -1.
          2   -1    0    0  501    0  0.00000000000E+00 -0.00000000000E+00 -0.19972987404E+04  0.19972987404E+04  0.25500000000E-02 0.  1.
    5000001    1    1    2    0    0  0.18672853095E+03 -0.39306256316E+03 -0.79435932834E+03  0.92504943941E+03  0.18800000000E+03 0.  0.
   -5000001    1    1    2    0    0 -0.18672853095E+03  0.39306256316E+03 -0.10882117006E+04  0.11869770125E+04  0.18800000000E+03 0.  0.
<mgrwt>
<rscale>  0 0.95738292E+03</rscale>
<asrwt>0</asrwt>
<pdfrwt beam="1">  1        2 0.28532837E+00 0.95738292E+03</pdfrwt>
<pdfrwt beam="2">  1       -2 0.16389674E-01 0.95738292E+03</pdfrwt>
<totfact> 0.24376675E+02</totfact>
</mgrwt>
</event>
<event>
 4    1  0.2209668E-005  0.1048043E+04  0.7818608E-02  0.9257367E-01
          2   -1    0    0  501    0  0.00000000000E+00  0.00000000000E+00  0.12463145914E+04  0.12463145914E+04  0.25500000000E-02 0.  1.
         -2   -1    0    0    0  501 -0.00000000000E+00 -0.00000000000E+00 -0.22032827795E+03  0.22032827796E+03  0.25500000000E-02 0. -1.
    5000001    1    1    2    0    0 -0.42564158851E+02  0.45864612897E+03  0.28267890604E+03  0.57220568256E+03  0.18800000000E+03 0.  0.
   -5000001    1    1    2    0    0  0.42564158851E+02 -0.45864612897E+03  0.74330740745E+03  0.89443718684E+03  0.18800000000E+03 0.  0.
<mgrwt>
<rscale>  0 0.10480426E+04</rscale>
<asrwt>0</asrwt>
<pdfrwt beam="1">  1        2 0.17804494E+00 0.10480426E+04</pdfrwt>
<pdfrwt beam="2">  1       -2 0.31475469E-01 0.10480426E+04</pdfrwt>
<totfact> 0.18730174E+02</totfact>
</mgrwt>
</event>
<event>
 4    1  0.2209668E-005  0.4977961E+03  0.7818608E-02  0.1014356E+00
          2   -1    0    0  501    0  0.00000000000E+00  0.00000000000E+00  0.21578471764E+04  0.21578471764E+04  0.25500000000E-02 0.  1.
         -2   -1    0    0    0  501 -0.00000000000E+00 -0.00000000000E+00 -0.28709284013E+02  0.28709284126E+02  0.25500000000E-02 0. -1.
    5000001    1    1    2    0    0 -0.13281613810E+03 -0.74361865409E+02  0.13220606145E+04  0.13440082150E+04  0.18800000000E+03 0.  0.
   -5000001    1    1    2    0    0  0.13281613810E+03  0.74361865409E+02  0.80707727787E+03  0.84254824552E+03  0.18800000000E+03 0.  0.
<mgrwt>
<rscale>  0 0.49779613E+03</rscale>
<asrwt>0</asrwt>
<pdfrwt beam="1">  1        2 0.30826387E+00 0.49779613E+03</pdfrwt>
<pdfrwt beam="2">  1       -2 0.41013264E-02 0.49779613E+03</pdfrwt>
<totfact> 0.19318780E+03</totfact>
</mgrwt>
</event>
<event>
 4    1  0.2209668E-005  0.5164625E+03  0.7818608E-02  0.1009569E+00
          2   -1    0    0  501    0  0.00000000000E+00  0.00000000000E+00  0.82324938800E+03  0.82324938800E+03  0.25500000000E-02 0. -1.
         -2   -1    0    0    0  501 -0.00000000000E+00 -0.00000000000E+00 -0.81000221017E+02  0.81000221057E+02  0.25500000000E-02 0.  1.
    5000001    1    1    2    0    0 -0.11747973730E+03  0.27535001202E+02  0.59792395425E+03  0.63829203350E+03  0.18800000000E+03 0.  0.
   -5000001    1    1    2    0    0  0.11747973730E+03 -0.27535001202E+02  0.14432521273E+03  0.26595757556E+03  0.18800000000E+03 0.  0.
<mgrwt>
<rscale>  0 0.51646252E+03</rscale>
<asrwt>0</asrwt>
<pdfrwt beam="1">  1        2 0.11760706E+00 0.51646252E+03</pdfrwt>
<pdfrwt beam="2">  1       -2 0.11571460E-01 0.51646252E+03</pdfrwt>
<totfact> 0.19786293E+03</totfact>
</mgrwt>
</event>
<event>
 4    1  0.2209668E-005  0.4985091E+03  0.7818608E-02  0.1014169E+00
          2   -1    0    0  501    0  0.00000000000E+00  0.00000000000E+00  0.16445768313E+04  0.16445768313E+04  0.25500000000E-02 0. -1.
         -2   -1    0    0    0  501 -0.00000000000E+00 -0.00000000000E+00 -0.37777400168E+02  0.37777400254E+02  0.25500000000E-02 0.  1.
    5000001    1    1    2    0    0 -0.40954877687E+02 -0.15708046109E+03  0.87356443650E+03  0.90819072775E+03  0.18800000000E+03 0.  0.
   -5000001    1    1    2    0    0  0.40954877687E+02  0.15708046109E+03  0.73323499459E+03  0.77416350376E+03  0.18800000000E+03 0.  0.
<mgrwt>
<rscale>  0 0.49850913E+03</rscale>
<asrwt>0</asrwt>
<pdfrwt beam="1">  1        2 0.23493954E+00 0.49850913E+03</pdfrwt>
<pdfrwt beam="2">  1       -2 0.53967716E-02 0.49850913E+03</pdfrwt>
<totfact> 0.22881030E+03</totfact>
</mgrwt>
</event>
<event>
 4    1  0.2209668E-005  0.6253376E+03  0.7818608E-02  0.9854190E-01
          2   -1    0    0  501    0  0.00000000000E+00  0.00000000000E+00  0.14298812805E+04  0.14298812805E+04  0.25500000000E-02 0.  1.
         -2   -1    0    0    0  501 -0.00000000000E+00 -0.00000000000E+00 -0.68370564881E+02  0.68370564929E+02  0.25500000000E-02 0. -1.
    5000001    1    1    2    0    0 -0.23396827491E+03  0.74616745714E+02  0.57072657048E+03  0.64913914584E+03  0.18800000000E+03 0.  0.
   -5000001    1    1    2    0    0  0.23396827491E+03 -0.74616745714E+02  0.79078414512E+03  0.84911269957E+03  0.18800000000E+03 0.  0.
<mgrwt>
<rscale>  0 0.62533764E+03</rscale>
<asrwt>0</asrwt>
<pdfrwt beam="1">  1        2 0.20426876E+00 0.62533764E+03</pdfrwt>
<pdfrwt beam="2">  1       -2 0.97672232E-02 0.62533764E+03</pdfrwt>
<totfact> 0.11510211E+03</totfact>
</mgrwt>
</event>
<event>
 4    1  0.2209668E-005  0.1434328E+04  0.7818608E-02  0.8929338E-01
          2   -1    0    0  501    0  0.00000000000E+00  0.00000000000E+00  0.37433066365E+04  0.37433066365E+04  0.25500000000E-02 0.  1.
         -2   -1    0    0    0  501 -0.00000000000E+00 -0.00000000000E+00 -0.13739841921E+03  0.13739841923E+03  0.25500000000E-02 0. -1.
    5000001    1    1    2    0    0 -0.65905717122E+03 -0.20419281612E+03  0.16565180749E+04  0.18042857849E+04  0.18800000000E+03 0.  0.
   -5000001    1    1    2    0    0  0.65905717122E+03  0.20419281612E+03  0.19493901425E+04  0.20764192709E+04  0.18800000000E+03 0.  0.
<mgrwt>
<rscale>  0 0.14343283E+04</rscale>
<asrwt>0</asrwt>
<pdfrwt beam="1">  1        2 0.53475813E+00 0.14343283E+04</pdfrwt>
<pdfrwt beam="2">  1       -2 0.19628344E-01 0.14343283E+04</pdfrwt>
<totfact> 0.18436408E+01</totfact>
</mgrwt>
</event>
<event>
 4    1  0.2209668E-005  0.5643651E+03  0.7818608E-02  0.9982226E-01
         -2   -1    0    0    0  501 -0.00000000000E+00  0.00000000000E+00  0.57129295040E+03  0.57129295041E+03  0.25500000000E-02 0.  1.
          2   -1    0    0  501    0  0.00000000000E+00 -0.00000000000E+00 -0.13938030022E+03  0.13938030024E+03  0.25500000000E-02 0. -1.
    5000001    1    1    2    0    0  0.10464959132E+03 -0.18066918854E+03  0.18287653046E+03  0.33523233442E+03  0.18800000000E+03 0.  0.
   -5000001    1    1    2    0    0 -0.10464959132E+03  0.18066918854E+03  0.24903611973E+03  0.37544091623E+03  0.18800000000E+03 0.  0.
<mgrwt>
<rscale>  0 0.56436507E+03</rscale>
<asrwt>0</asrwt>
<pdfrwt beam="1">  1        2 0.19911472E-01 0.56436507E+03</pdfrwt>
<pdfrwt beam="2">  1       -2 0.81613278E-01 0.56436507E+03</pdfrwt>
<totfact> 0.38125984E+02</totfact>
</mgrwt>
</event>
<event>
 4    1  0.2209668E-005  0.4660680E+03  0.7818608E-02  0.1023036E+00
          2   -1    0    0  501    0  0.00000000000E+00  0.00000000000E+00  0.26110440655E+04  0.26110440655E+04  0.25500000000E-02 0.  1.
         -2   -1    0    0    0  501 -0.00000000000E+00 -0.00000000000E+00 -0.20798136791E+02  0.20798136947E+02  0.25500000000E-02 0. -1.
    5000001    1    1    2    0    0  0.11181680205E+03 -0.61308507332E+02  0.10017488738E+04  0.10271837890E+04  0.18800000000E+03 0.  0.
   -5000001    1    1    2    0    0 -0.11181680205E+03  0.61308507332E+02  0.15884970550E+04  0.16046584135E+04  0.18800000000E+03 0.  0.
<mgrwt>
<rscale>  0 0.46606803E+03</rscale>
<asrwt>0</asrwt>
<pdfrwt beam="1">  1        2 0.37300587E+00 0.46606803E+03</pdfrwt>
<pdfrwt beam="2">  1       -2 0.29711658E-02 0.46606803E+03</pdfrwt>
<totfact> 0.18643192E+03</totfact>
</mgrwt>
</event>
<event>
 4    1  0.2209668E-005  0.1221883E+04  0.7818608E-02  0.9093915E-01
         -2   -1    0    0    0  501 -0.00000000000E+00  0.00000000000E+00  0.22756937589E+03  0.22756937591E+03  0.25500000000E-02 0. -1.
          2   -1    0    0  501    0  0.00000000000E+00 -0.00000000000E+00 -0.16401577327E+04  0.16401577327E+04  0.25500000000E-02 0.  1.
    5000001    1    1    2    0    0  0.66145876564E+02  0.56432319075E+03 -0.51864941048E+03  0.79194516956E+03  0.18800000000E+03 0.  0.
   -5000001    1    1    2    0    0 -0.66145876564E+02 -0.56432319075E+03 -0.89393894629E+03  0.10757819390E+04  0.18800000000E+03 0.  0.
<mgrwt>
<rscale>  0 0.12218833E+04</rscale>
<asrwt>0</asrwt>
<pdfrwt beam="1">  1        2 0.23430824E+00 0.12218833E+04</pdfrwt>
<pdfrwt beam="2">  1       -2 0.32509912E-01 0.12218833E+04</pdfrwt>
<totfact> 0.10702022E+02</totfact>
</mgrwt>
</event>
<event>
 4    1  0.2209668E-005  0.8894633E+03  0.7818608E-02  0.9438849E-01
          2   -1    0    0  501    0  0.00000000000E+00  0.00000000000E+00  0.21199639597E+04  0.21199639597E+04  0.25500000000E-02 0.  1.
         -2   -1    0    0    0  501 -0.00000000000E+00 -0.00000000000E+00 -0.93296988219E+02  0.93296988254E+02  0.25500000000E-02 0. -1.
    5000001    1    1    2    0    0  0.22756692211E+03 -0.82847173287E+02  0.18149862490E+04  0.18406980856E+04  0.18800000000E+03 0.  0.
   -5000001    1    1    2    0    0 -0.22756692211E+03  0.82847173287E+02  0.21168072248E+03  0.37256286238E+03  0.18800000000E+03 0.  0.
<mgrwt>
<rscale>  0 0.88946333E+03</rscale>
<asrwt>0</asrwt>
<pdfrwt beam="1">  1        2 0.30285194E+00 0.88946333E+03</pdfrwt>
<pdfrwt beam="2">  1       -2 0.13328144E-01 0.88946333E+03</pdfrwt>
<totfact> 0.30104004E+02</totfact>
</mgrwt>
</event>
<event>
 4    1  0.2209668E-005  0.8901296E+03  0.7818608E-02  0.9438005E-01
          2   -1    0    0  501    0  0.00000000000E+00  0.00000000000E+00  0.15682480757E+04  0.15682480757E+04  0.25500000000E-02 0.  1.
         -2   -1    0    0    0  501 -0.00000000000E+00 -0.00000000000E+00 -0.12630825120E+03  0.12630825122E+03  0.25500000000E-02 0. -1.
    5000001    1    1    2    0    0  0.33449932469E+03  0.21995233970E+03  0.81557997981E+03  0.92778420628E+03  0.18800000000E+03 0.  0.
   -5000001    1    1    2    0    0 -0.33449932469E+03 -0.21995233970E+03  0.62635984471E+03  0.76677212066E+03  0.18800000000E+03 0.  0.
<mgrwt>
<rscale>  0 0.89012959E+03</rscale>
<asrwt>0</asrwt>
<pdfrwt beam="1">  1        2 0.22403541E+00 0.89012959E+03</pdfrwt>
<pdfrwt beam="2">  1       -2 0.18044038E-01 0.89012959E+03</pdfrwt>
<totfact> 0.34462842E+02</totfact>
</mgrwt>
</event>
<event>
 4    1  0.2209668E-005  0.4527689E+03  0.7818608E-02  0.1026900E+00
         -2   -1    0    0    0  501 -0.00000000000E+00  0.00000000000E+00  0.18760367247E+02  0.18760367421E+02  0.25500000000E-02 0. -1.
          2   -1    0    0  501    0  0.00000000000E+00 -0.00000000000E+00 -0.27318188950E+04  0.27318188950E+04  0.25500000000E-02 0.  1.
    5000001    1    1    2    0    0 -0.40019900725E+02  0.11956208092E+03 -0.13380604947E+04  0.13570727950E+04  0.18800000000E+03 0.  0.
   -5000001    1    1    2    0    0  0.40019900725E+02 -0.11956208092E+03 -0.13749980331E+04  0.13935064674E+04  0.18800000000E+03 0.  0.
<mgrwt>
<rscale>  0 0.45276893E+03</rscale>
<asrwt>0</asrwt>
<pdfrwt beam="1">  1        2 0.39025959E+00 0.45276893E+03</pdfrwt>
<pdfrwt beam="2">  1       -2 0.26800542E-02 0.45276893E+03</pdfrwt>
<totfact> 0.18878797E+03</totfact>
</mgrwt>
</event>
<event>
 4    1  0.2209668E-005  0.5314577E+03  0.7818608E-02  0.1005879E+00
          2   -1    0    0  501    0  0.00000000000E+00  0.00000000000E+00  0.14645621683E+04  0.14645621683E+04  0.25500000000E-02 0.  1.
         -2   -1    0    0    0  501 -0.00000000000E+00 -0.00000000000E+00 -0.48213599755E+02  0.48213599823E+02  0.25500000000E-02 0. -1.
    5000001    1    1    2    0    0  0.34132417141E+02 -0.16209523373E+03  0.96001693243E+03  0.99217760368E+03  0.18800000000E+03 0.  0.
   -5000001    1    1    2    0    0 -0.34132417141E+02  0.16209523373E+03  0.45633163608E+03  0.52059816441E+03  0.18800000000E+03 0.  0.
<mgrwt>
<rscale>  0 0.53145767E+03</rscale>
<asrwt>0</asrwt>
<pdfrwt beam="1">  1        2 0.20922318E+00 0.53145767E+03</pdfrwt>
<pdfrwt beam="2">  1       -2 0.68876568E-02 0.53145767E+03</pdfrwt>
<totfact> 0.19329470E+03</totfact>
</mgrwt>
</event>
<event>
 4    1  0.2209668E-005  0.5260816E+03  0.7818608E-02  0.1007187E+00
          2   -1    0    0  501    0  0.00000000000E+00  0.00000000000E+00  0.13470037818E+04  0.13470037818E+04  0.25500000000E-02 0.  1.
         -2   -1    0    0    0  501 -0.00000000000E+00 -0.00000000000E+00 -0.51366187920E+02  0.51366187983E+02  0.25500000000E-02 0. -1.
    5000001    1    1    2    0    0  0.17672206702E+03 -0.38981294076E+02  0.55981169629E+03  0.61764339676E+03  0.18800000000E+03 0.  0.
   -5000001    1    1    2    0    0 -0.17672206702E+03  0.38981294076E+02  0.73582589760E+03  0.78072657303E+03  0.18800000000E+03 0.  0.
<mgrwt>
<rscale>  0 0.52608155E+03</rscale>
<asrwt>0</asrwt>
<pdfrwt beam="1">  1        2 0.19242909E+00 0.52608155E+03</pdfrwt>
<pdfrwt beam="2">  1       -2 0.73380277E-02 0.52608155E+03</pdfrwt>
<totfact> 0.20182079E+03</totfact>
</mgrwt>
</event>
<event>
 4    1  0.2209668E-005  0.6042109E+03  0.7818608E-02  0.9896708E-01
         -2   -1    0    0    0  501 -0.00000000000E+00  0.00000000000E+00  0.65919150199E+02  0.65919150248E+02  0.25500000000E-02 0. -1.
          2   -1    0    0  501    0  0.00000000000E+00 -0.00000000000E+00 -0.13845402498E+04  0.13845402498E+04  0.25500000000E-02 0.  1.
    5000001    1    1    2    0    0 -0.45440890611E+02 -0.22286285631E+03 -0.50390186952E+03  0.58394676245E+03  0.18800000000E+03 0.  0.
   -5000001    1    1    2    0    0  0.45440890611E+02  0.22286285631E+03 -0.81471923005E+03  0.86651263758E+03  0.18800000000E+03 0.  0.
<mgrwt>
<rscale>  0 0.60421095E+03</rscale>
<asrwt>0</asrwt>
<pdfrwt beam="1">  1        2 0.19779145E+00 0.60421095E+03</pdfrwt>
<pdfrwt beam="2">  1       -2 0.94170223E-02 0.60421095E+03</pdfrwt>
<totfact> 0.12915174E+03</totfact>
</mgrwt>
</event>
<event>
 4    1  0.2209668E-005  0.6624291E+03  0.7818608E-02  0.9783732E-01
          2   -1    0    0  501    0  0.00000000000E+00  0.00000000000E+00  0.12234474176E+04  0.12234474176E+04  0.25500000000E-02 0.  1.
         -2   -1    0    0    0  501 -0.00000000000E+00 -0.00000000000E+00 -0.89667184275E+02  0.89667184311E+02  0.25500000000E-02 0. -1.
    5000001    1    1    2    0    0 -0.15012877932E+03 -0.19803914300E+03  0.78940781429E+03  0.84868536561E+03  0.18800000000E+03 0.  0.
   -5000001    1    1    2    0    0  0.15012877932E+03  0.19803914300E+03  0.34437241904E+03  0.46442923631E+03  0.18800000000E+03 0.  0.
<mgrwt>
<rscale>  0 0.66242912E+03</rscale>
<asrwt>0</asrwt>
<pdfrwt beam="1">  1        2 0.17477819E+00 0.66242912E+03</pdfrwt>
<pdfrwt beam="2">  1       -2 0.12809598E-01 0.66242912E+03</pdfrwt>
<totfact> 0.95376437E+02</totfact>
</mgrwt>
</event>
<event>
 4    1  0.2209668E-005  0.7271287E+03  0.7818608E-02  0.9671931E-01
          2   -1    0    0  501    0  0.00000000000E+00  0.00000000000E+00  0.33638764340E+03  0.33638764341E+03  0.25500000000E-02 0.  1.
         -2   -1    0    0    0  501 -0.00000000000E+00 -0.00000000000E+00 -0.39293667867E+03  0.39293667868E+03  0.25500000000E-02 0. -1.
    5000001    1    1    2    0    0  0.23623994559E+03  0.18576979143E+03  0.52686720860E+02  0.35838473440E+03  0.18800000000E+03 0.  0.
   -5000001    1    1    2    0    0 -0.23623994559E+03 -0.18576979143E+03 -0.10923575613E+03  0.37093958769E+03  0.18800000000E+03 0.  0.
<mgrwt>
<rscale>  0 0.72712872E+03</rscale>
<asrwt>0</asrwt>
<pdfrwt beam="1">  1        2 0.48055378E-01 0.72712872E+03</pdfrwt>
<pdfrwt beam="2">  1       -2 0.56133811E-01 0.72712872E+03</pdfrwt>
<totfact> 0.31536455E+02</totfact>
</mgrwt>
</event>
<event>
 4    1  0.2209668E-005  0.5672498E+03  0.7818608E-02  0.9975783E-01
         -2   -1    0    0    0  501 -0.00000000000E+00  0.00000000000E+00  0.69726815581E+03  0.69726815581E+03  0.25500000000E-02 0. -1.
          2   -1    0    0  501    0  0.00000000000E+00 -0.00000000000E+00 -0.11536891961E+03  0.11536891964E+03  0.25500000000E-02 0.  1.
    5000001    1    1    2    0    0 -0.24802313946E+02 -0.20614711498E+03  0.22708615005E+03  0.36058827953E+03  0.18800000000E+03 0.  0.
   -5000001    1    1    2    0    0  0.24802313946E+02  0.20614711498E+03  0.35481308615E+03  0.45204879592E+03  0.18800000000E+03 0.  0.
<mgrwt>
<rscale>  0 0.56724976E+03</rscale>
<asrwt>0</asrwt>
<pdfrwt beam="1">  1        2 0.16481274E-01 0.56724976E+03</pdfrwt>
<pdfrwt beam="2">  1       -2 0.99609741E-01 0.56724976E+03</pdfrwt>
<totfact> 0.30173828E+02</totfact>
</mgrwt>
</event>
<event>
 4    1  0.2209668E-005  0.4452322E+03  0.7818608E-02  0.1029153E+00
         -2   -1    0    0    0  501 -0.00000000000E+00  0.00000000000E+00  0.20404064518E+02  0.20404064677E+02  0.25500000000E-02 0.  1.
          2   -1    0    0  501    0  0.00000000000E+00 -0.00000000000E+00 -0.24288265806E+04  0.24288265806E+04  0.25500000000E-02 0. -1.
    5000001    1    1    2    0    0  0.10020855619E+03  0.63648435014E+02 -0.12647365694E+04  0.12841321848E+04  0.18800000000E+03 0.  0.
   -5000001    1    1    2    0    0 -0.10020855619E+03 -0.63648435014E+02 -0.11436859466E+04  0.11650984604E+04  0.18800000000E+03 0.  0.
<mgrwt>
<rscale>  0 0.44523223E+03</rscale>
<asrwt>0</asrwt>
<pdfrwt beam="1">  1        2 0.34697504E+00 0.44523223E+03</pdfrwt>
<pdfrwt beam="2">  1       -2 0.29148679E-02 0.44523223E+03</pdfrwt>
<totfact> 0.23791926E+03</totfact>
</mgrwt>
</event>
<event>
 4    1  0.2209668E-005  0.4443483E+03  0.7818608E-02  0.1029421E+00
         -2   -1    0    0    0  501 -0.00000000000E+00  0.00000000000E+00  0.34051231267E+02  0.34051231362E+02  0.25500000000E-02 0. -1.
          2   -1    0    0  501    0  0.00000000000E+00 -0.00000000000E+00 -0.14496203388E+04  0.14496203388E+04  0.25500000000E-02 0.  1.
    5000001    1    1    2    0    0 -0.98983429964E+02  0.63364560277E+02 -0.66002768866E+03  0.69627102245E+03  0.18800000000E+03 0.  0.
   -5000001    1    1    2    0    0  0.98983429964E+02 -0.63364560277E+02 -0.75554141887E+03  0.78740054771E+03  0.18800000000E+03 0.  0.
<mgrwt>
<rscale>  0 0.44434832E+03</rscale>
<asrwt>0</asrwt>
<pdfrwt beam="1">  1        2 0.20708858E+00 0.44434832E+03</pdfrwt>
<pdfrwt beam="2">  1       -2 0.48644625E-02 0.44434832E+03</pdfrwt>
<totfact> 0.33847694E+03</totfact>
</mgrwt>
</event>
<event>
 4    1  0.2209668E-005  0.9031304E+03  0.7818608E-02  0.9421677E-01
          2   -1    0    0  501    0  0.00000000000E+00  0.00000000000E+00  0.57615830197E+03  0.57615830198E+03  0.25500000000E-02 0.  1.
         -2   -1    0    0    0  501 -0.00000000000E+00 -0.00000000000E+00 -0.35391507949E+03  0.35391507950E+03  0.25500000000E-02 0. -1.
    5000001    1    1    2    0    0  0.24917965466E+03 -0.12893802636E+03  0.41981666612E+03  0.53880010030E+03  0.18800000000E+03 0.  0.
   -5000001    1    1    2    0    0 -0.24917965466E+03  0.12893802636E+03 -0.19757344363E+03  0.39127328118E+03  0.18800000000E+03 0.  0.
<mgrwt>
<rscale>  0 0.90313036E+03</rscale>
<asrwt>0</asrwt>
<pdfrwt beam="1">  1        2 0.82308328E-01 0.90313036E+03</pdfrwt>
<pdfrwt beam="2">  1       -2 0.50559298E-01 0.90313036E+03</pdfrwt>
<totfact> 0.21116266E+02</totfact>
</mgrwt>
</event>
<event>
 4    1  0.2209668E-005  0.9017294E+03  0.7818608E-02  0.9423422E-01
          2   -1    0    0  501    0  0.00000000000E+00  0.00000000000E+00  0.91654395184E+03  0.91654395184E+03  0.25500000000E-02 0.  1.
         -2   -1    0    0    0  501 -0.00000000000E+00 -0.00000000000E+00 -0.22178856883E+03  0.22178856884E+03  0.25500000000E-02 0. -1.
    5000001    1    1    2    0    0  0.31446219845E+03  0.25063399217E+03  0.24772816293E+03  0.50834743532E+03  0.18800000000E+03 0.  0.
   -5000001    1    1    2    0    0 -0.31446219845E+03 -0.25063399217E+03  0.44702722008E+03  0.62998508536E+03  0.18800000000E+03 0.  0.
<mgrwt>
<rscale>  0 0.90172939E+03</rscale>
<asrwt>0</asrwt>
<pdfrwt beam="1">  1        2 0.13093485E+00 0.90172939E+03</pdfrwt>
<pdfrwt beam="2">  1       -2 0.31684081E-01 0.90172939E+03</pdfrwt>
<totfact> 0.29351675E+02</totfact>
</mgrwt>
</event>
<event>
 4    1  0.2209668E-005  0.6648403E+03  0.7818608E-02  0.9779324E-01
         -2   -1    0    0    0  501 -0.00000000000E+00  0.00000000000E+00  0.38109841720E+02  0.38109841806E+02  0.25500000000E-02 0. -1.
          2   -1    0    0  501    0  0.00000000000E+00 -0.00000000000E+00 -0.28995965758E+04  0.28995965758E+04  0.25500000000E-02 0.  1.
    5000001    1    1    2    0    0  0.12525165911E+03  0.24367358613E+03 -0.13878181393E+04  0.14270416891E+04  0.18800000000E+03 0.  0.
   -5000001    1    1    2    0    0 -0.12525165911E+03 -0.24367358613E+03 -0.14736685947E+04  0.15106647285E+04  0.18800000000E+03 0.  0.
<mgrwt>
<rscale>  0 0.66484033E+03</rscale>
<asrwt>0</asrwt>
<pdfrwt beam="1">  1        2 0.41422794E+00 0.66484033E+03</pdfrwt>
<pdfrwt beam="2">  1       -2 0.54442650E-02 0.66484033E+03</pdfrwt>
<totfact> 0.51062164E+02</totfact>
</mgrwt>
</event>
<event>
 4    1  0.2209668E-005  0.7782715E+03  0.7818608E-02  0.9592012E-01
          2   -1    0    0  501    0  0.00000000000E+00  0.00000000000E+00  0.13989981358E+04  0.13989981358E+04  0.25500000000E-02 0.  1.
         -2   -1    0    0    0  501 -0.00000000000E+00 -0.00000000000E+00 -0.10823933731E+03  0.10823933734E+03  0.25500000000E-02 0. -1.
    5000001    1    1    2    0    0  0.22695204571E+03 -0.24374309947E+03  0.78455822631E+03  0.87280784831E+03  0.18800000000E+03 0.  0.
   -5000001    1    1    2    0    0 -0.22695204571E+03  0.24374309947E+03  0.50620057222E+03  0.63442962487E+03  0.18800000000E+03 0.  0.
<mgrwt>
<rscale>  0 0.77827150E+03</rscale>
<asrwt>0</asrwt>
<pdfrwt beam="1">  1        2 0.19985686E+00 0.77827150E+03</pdfrwt>
<pdfrwt beam="2">  1       -2 0.15462764E-01 0.77827150E+03</pdfrwt>
<totfact> 0.55497543E+02</totfact>
</mgrwt>
</event>
<event>
 4    1  0.2209668E-005  0.6584768E+03  0.7818608E-02  0.9791002E-01
         -2   -1    0    0    0  501 -0.00000000000E+00  0.00000000000E+00  0.12664475579E+03  0.12664475582E+03  0.25500000000E-02 0. -1.
          2   -1    0    0  501    0  0.00000000000E+00 -0.00000000000E+00 -0.85592125489E+03  0.85592125489E+03  0.25500000000E-02 0.  1.
    5000001    1    1    2    0    0 -0.10602563247E+03 -0.12209720040E+03 -0.41469194124E+02  0.25142166802E+03  0.18800000000E+03 0.  0.
   -5000001    1    1    2    0    0  0.10602563247E+03  0.12209720040E+03 -0.68780730497E+03  0.73114434270E+03  0.18800000000E+03 0.  0.
<mgrwt>
<rscale>  0 0.65847684E+03</rscale>
<asrwt>0</asrwt>
<pdfrwt beam="1">  1        2 0.12227446E+00 0.65847684E+03</pdfrwt>
<pdfrwt beam="2">  1       -2 0.18092108E-01 0.65847684E+03</pdfrwt>
<totfact> 0.88719062E+02</totfact>
</mgrwt>
</event>
<event>
 4    1  0.2209668E-005  0.6725613E+03  0.7818608E-02  0.9765342E-01
         -2   -1    0    0    0  501 -0.00000000000E+00  0.00000000000E+00  0.86891637509E+03  0.86891637510E+03  0.25500000000E-02 0. -1.
          2   -1    0    0  501    0  0.00000000000E+00 -0.00000000000E+00 -0.13014450587E+03  0.13014450590E+03  0.25500000000E-02 0.  1.
    5000001    1    1    2    0    0 -0.22095630307E+03 -0.50160752421E+02  0.61075738001E+03  0.67801649404E+03  0.18800000000E+03 0.  0.
   -5000001    1    1    2    0    0  0.22095630307E+03  0.50160752421E+02  0.12801448921E+03  0.32104438696E+03  0.18800000000E+03 0.  0.
<mgrwt>
<rscale>  0 0.67256135E+03</rscale>
<asrwt>0</asrwt>
<pdfrwt beam="1">  1        2 0.18592072E-01 0.67256135E+03</pdfrwt>
<pdfrwt beam="2">  1       -2 0.12413091E+00 0.67256135E+03</pdfrwt>
<totfact> 0.15296144E+02</totfact>
</mgrwt>
</event>
<event>
 4    1  0.2209668E-005  0.5405001E+03  0.7818608E-02  0.1003717E+00
         -2   -1    0    0    0  501 -0.00000000000E+00  0.00000000000E+00  0.33100762589E+02  0.33100762687E+02  0.25500000000E-02 0. -1.
          2   -1    0    0  501    0  0.00000000000E+00 -0.00000000000E+00 -0.22064474321E+04  0.22064474321E+04  0.25500000000E-02 0.  1.
    5000001    1    1    2    0    0  0.15567386358E+03  0.90915040277E+02 -0.78813620453E+03  0.83006178881E+03  0.18800000000E+03 0.  0.
   -5000001    1    1    2    0    0 -0.15567386358E+03 -0.90915040277E+02 -0.13852104650E+04  0.14094864060E+04  0.18800000000E+03 0.  0.
<mgrwt>
<rscale>  0 0.54050011E+03</rscale>
<asrwt>0</asrwt>
<pdfrwt beam="1">  1        2 0.31520668E+00 0.54050011E+03</pdfrwt>
<pdfrwt beam="2">  1       -2 0.47286818E-02 0.54050011E+03</pdfrwt>
<totfact> 0.14642882E+03</totfact>
</mgrwt>
</event>
<event>
 4    1  0.2209668E-005  0.5703730E+03  0.7818608E-02  0.9968854E-01
         -2   -1    0    0    0  501 -0.00000000000E+00  0.00000000000E+00  0.79424569425E+02  0.79424569466E+02  0.25500000000E-02 0. -1.
          2   -1    0    0  501    0  0.00000000000E+00 -0.00000000000E+00 -0.10240072833E+04  0.10240072833E+04  0.25500000000E-02 0.  1.
    5000001    1    1    2    0    0  0.10028970932E+03 -0.18919734726E+03 -0.44992410630E+03  0.53256864668E+03  0.18800000000E+03 0.  0.
   -5000001    1    1    2    0    0 -0.10028970932E+03  0.18919734726E+03 -0.49465860756E+03  0.57086320606E+03  0.18800000000E+03 0.  0.
<mgrwt>
<rscale>  0 0.57037299E+03</rscale>
<asrwt>0</asrwt>
<pdfrwt beam="1">  1        2 0.14628675E+00 0.57037299E+03</pdfrwt>
<pdfrwt beam="2">  1       -2 0.11346368E-01 0.57037299E+03</pdfrwt>
<totfact> 0.15223053E+03</totfact>
</mgrwt>
</event>
<event>
 4    1  0.2209668E-005  0.5280782E+03  0.7818608E-02  0.1006699E+00
         -2   -1    0    0    0  501 -0.00000000000E+00  0.00000000000E+00  0.56755787034E+02  0.56755787091E+02  0.25500000000E-02 0. -1.
          2   -1    0    0  501    0  0.00000000000E+00 -0.00000000000E+00 -0.12283620447E+04  0.12283620447E+04  0.25500000000E-02 0.  1.
    5000001    1    1    2    0    0  0.17976502748E+03 -0.42746175508E+02 -0.62270642758E+03  0.67620262908E+03  0.18800000000E+03 0.  0.
   -5000001    1    1    2    0    0 -0.17976502748E+03  0.42746175508E+02 -0.54889983005E+03  0.60891520267E+03  0.18800000000E+03 0.  0.
<mgrwt>
<rscale>  0 0.52807823E+03</rscale>
<asrwt>0</asrwt>
<pdfrwt beam="1">  1        2 0.17548028E+00 0.52807823E+03</pdfrwt>
<pdfrwt beam="2">  1       -2 0.81079703E-02 0.52807823E+03</pdfrwt>
<totfact> 0.19985067E+03</totfact>
</mgrwt>
</event>
<event>
 4    1  0.2209668E-005  0.5602877E+03  0.7818608E-02  0.9991404E-01
         -2   -1    0    0    0  501 -0.00000000000E+00  0.00000000000E+00  0.23369657152E+03  0.23369657153E+03  0.25500000000E-02 0. -1.
          2   -1    0    0  501    0  0.00000000000E+00 -0.00000000000E+00 -0.33582258959E+03  0.33582258960E+03  0.25500000000E-02 0.  1.
    5000001    1    1    2    0    0 -0.37709297352E+02 -0.11119788999E+03  0.12307697750E+03  0.25353284646E+03  0.18800000000E+03 0.  0.
   -5000001    1    1    2    0    0  0.37709297352E+02  0.11119788999E+03 -0.22520299556E+03  0.31598631467E+03  0.18800000000E+03 0.  0.
<mgrwt>
<rscale>  0 0.56028774E+03</rscale>
<asrwt>0</asrwt>
<pdfrwt beam="1">  1        2 0.47974655E-01 0.56028774E+03</pdfrwt>
<pdfrwt beam="2">  1       -2 0.33385225E-01 0.56028774E+03</pdfrwt>
<totfact> 0.88429511E+02</totfact>
</mgrwt>
</event>
<event>
 4    1  0.2209668E-005  0.1631540E+04  0.7818608E-02  0.8801403E-01
         -2   -1    0    0    0  501 -0.00000000000E+00  0.00000000000E+00  0.26852813916E+04  0.26852813916E+04  0.25500000000E-02 0. -1.
          2   -1    0    0  501    0  0.00000000000E+00 -0.00000000000E+00 -0.24782528585E+03  0.24782528586E+03  0.25500000000E-02 0.  1.
    5000001    1    1    2    0    0  0.45706918068E+03 -0.22644821665E+03  0.23121784477E+04  0.23752271901E+04  0.18800000000E+03 0.  0.
   -5000001    1    1    2    0    0 -0.45706918068E+03  0.22644821665E+03  0.12527765803E+03  0.55787948730E+03  0.18800000000E+03 0.  0.
<mgrwt>
<rscale>  0 0.16315399E+04</rscale>
<asrwt>0</asrwt>
<pdfrwt beam="1">  1        2 0.35403613E-01 0.16315399E+04</pdfrwt>
<pdfrwt beam="2">  1       -2 0.38361162E+00 0.16315399E+04</pdfrwt>
<totfact> 0.13527361E+00</totfact>
</mgrwt>
</event>
<event>
 4    1  0.2209668E-005  0.4984904E+03  0.7818608E-02  0.1014174E+00
          2   -1    0    0  501    0  0.00000000000E+00  0.00000000000E+00  0.27532490486E+04  0.27532490486E+04  0.25500000000E-02 0.  1.
         -2   -1    0    0    0  501 -0.00000000000E+00 -0.00000000000E+00 -0.22563585927E+02  0.22563586071E+02  0.25500000000E-02 0. -1.
    5000001    1    1    2    0    0 -0.11947144961E+03 -0.93060293179E+02  0.10200310799E+04  0.10482084952E+04  0.18800000000E+03 0.  0.
   -5000001    1    1    2    0    0  0.11947144961E+03  0.93060293179E+02  0.17106543828E+04  0.17276041395E+04  0.18800000000E+03 0.  0.
<mgrwt>
<rscale>  0 0.49849041E+03</rscale>
<asrwt>0</asrwt>
<pdfrwt beam="1">  1        2 0.39332100E+00 0.49849041E+03</pdfrwt>
<pdfrwt beam="2">  1       -2 0.32233718E-02 0.49849041E+03</pdfrwt>
<totfact> 0.13872342E+03</totfact>
</mgrwt>
</event>
<event>
 4    1  0.2209668E-005  0.9091983E+03  0.7818608E-02  0.9414156E-01
         -2   -1    0    0    0  501 -0.00000000000E+00  0.00000000000E+00  0.23067624047E+03  0.23067624048E+03  0.25500000000E-02 0. -1.
          2   -1    0    0  501    0  0.00000000000E+00 -0.00000000000E+00 -0.89588941858E+03  0.89588941859E+03  0.25500000000E-02 0.  1.
    5000001    1    1    2    0    0  0.37473644573E+03 -0.12332763478E+03 -0.48775992744E+03  0.65489759206E+03  0.18800000000E+03 0.  0.
   -5000001    1    1    2    0    0 -0.37473644573E+03  0.12332763478E+03 -0.17745325067E+03  0.47166806701E+03  0.18800000000E+03 0.  0.
<mgrwt>
<rscale>  0 0.90919833E+03</rscale>
<asrwt>0</asrwt>
<pdfrwt beam="1">  1        2 0.12798420E+00 0.90919833E+03</pdfrwt>
<pdfrwt beam="2">  1       -2 0.32953749E-01 0.90919833E+03</pdfrwt>
<totfact> 0.28107910E+02</totfact>
</mgrwt>
</event>
<event>
 4    1  0.2209668E-005  0.5225717E+03  0.7818608E-02  0.1008050E+00
          2   -1    0    0  501    0  0.00000000000E+00  0.00000000000E+00  0.75290898100E+03  0.75290898100E+03  0.25500000000E-02 0.  1.
         -2   -1    0    0    0  501 -0.00000000000E+00 -0.00000000000E+00 -0.90675376561E+02  0.90675376597E+02  0.25500000000E-02 0. -1.
    5000001    1    1    2    0    0 -0.98877747627E+02 -0.13622340416E+03  0.22171720580E+03  0.33591091701E+03  0.18800000000E+03 0.  0.
   -5000001    1    1    2    0    0  0.98877747627E+02  0.13622340416E+03  0.44051639864E+03  0.50767344059E+03  0.18800000000E+03 0.  0.
<mgrwt>
<rscale>  0 0.52257174E+03</rscale>
<asrwt>0</asrwt>
<pdfrwt beam="1">  1        2 0.10755843E+00 0.52257174E+03</pdfrwt>
<pdfrwt beam="2">  1       -2 0.12953624E-01 0.52257174E+03</pdfrwt>
<totfact> 0.18400575E+03</totfact>
</mgrwt>
</event>
<event>
 4    1  0.2209668E-005  0.4342383E+03  0.7818608E-02  0.1032529E+00
         -2   -1    0    0    0  501 -0.00000000000E+00  0.00000000000E+00  0.62591031396E+02  0.62591031448E+02  0.25500000000E-02 0. -1.
          2   -1    0    0  501    0  0.00000000000E+00 -0.00000000000E+00 -0.75315450403E+03  0.75315450404E+03  0.25500000000E-02 0.  1.
    5000001    1    1    2    0    0 -0.89742491516E+02 -0.52852481129E+00 -0.23035516076E+03  0.31058250789E+03  0.18800000000E+03 0.  0.
   -5000001    1    1    2    0    0  0.89742491516E+02  0.52852481129E+00 -0.46020831188E+03  0.50516302759E+03  0.18800000000E+03 0.  0.
<mgrwt>
<rscale>  0 0.43423826E+03</rscale>
<asrwt>0</asrwt>
<pdfrwt beam="1">  1        2 0.10759350E+00 0.43423826E+03</pdfrwt>
<pdfrwt beam="2">  1       -2 0.89415763E-02 0.43423826E+03</pdfrwt>
<totfact> 0.33529585E+03</totfact>
</mgrwt>
</event>
<event>
 4    1  0.2209668E-005  0.4778325E+03  0.7818608E-02  0.1019733E+00
         -2   -1    0    0    0  501 -0.00000000000E+00  0.00000000000E+00  0.24900700400E+02  0.24900700531E+02  0.25500000000E-02 0. -1.
          2   -1    0    0  501    0  0.00000000000E+00 -0.00000000000E+00 -0.22923436851E+04  0.22923436851E+04  0.25500000000E-02 0.  1.
    5000001    1    1    2    0    0  0.95687168663E+02 -0.63026478732E+02 -0.15836694275E+04  0.15989000053E+04  0.18800000000E+03 0.  0.
   -5000001    1    1    2    0    0 -0.95687168663E+02  0.63026478732E+02 -0.68377355722E+03  0.71834438038E+03  0.18800000000E+03 0.  0.
<mgrwt>
<rscale>  0 0.47783245E+03</rscale>
<asrwt>0</asrwt>
<pdfrwt beam="1">  1        2 0.32747754E+00 0.47783245E+03</pdfrwt>
<pdfrwt beam="2">  1       -2 0.35572444E-02 0.47783245E+03</pdfrwt>
<totfact> 0.20577367E+03</totfact>
</mgrwt>
</event>
<event>
 4    1  0.2209668E-005  0.5429745E+03  0.7818608E-02  0.1003133E+00
          2   -1    0    0  501    0  0.00000000000E+00  0.00000000000E+00  0.55297438404E+03  0.55297438405E+03  0.25500000000E-02 0.  1.
         -2   -1    0    0    0  501 -0.00000000000E+00 -0.00000000000E+00 -0.13328888569E+03  0.13328888571E+03  0.25500000000E-02 0. -1.
    5000001    1    1    2    0    0  0.13433166685E+03  0.11529526333E+03  0.31576404507E+03  0.40790798794E+03  0.18800000000E+03 0.  0.
   -5000001    1    1    2    0    0 -0.13433166685E+03 -0.11529526333E+03  0.10392145328E+03  0.27835528182E+03  0.18800000000E+03 0.  0.
<mgrwt>
<rscale>  0 0.54297455E+03</rscale>
<asrwt>0</asrwt>
<pdfrwt beam="1">  1        2 0.78996341E-01 0.54297455E+03</pdfrwt>
<pdfrwt beam="2">  1       -2 0.19041269E-01 0.54297455E+03</pdfrwt>
<totfact> 0.13882607E+03</totfact>
</mgrwt>
</event>
<event>
 4    1  0.2209668E-005  0.5469610E+03  0.7818608E-02  0.1002200E+00
          2   -1    0    0  501    0  0.00000000000E+00  0.00000000000E+00  0.10004576890E+04  0.10004576890E+04  0.25500000000E-02 0.  1.
         -2   -1    0    0    0  501 -0.00000000000E+00 -0.00000000000E+00 -0.74757362094E+02  0.74757362138E+02  0.25500000000E-02 0. -1.
    5000001    1    1    2    0    0 -0.18857736683E+02  0.19571403788E+03  0.51803201666E+03  0.58511603050E+03  0.18800000000E+03 0.  0.
   -5000001    1    1    2    0    0  0.18857736683E+02 -0.19571403788E+03  0.40766831021E+03  0.49009902061E+03  0.18800000000E+03 0.  0.
<mgrwt>
<rscale>  0 0.54696098E+03</rscale>
<asrwt>0</asrwt>
<pdfrwt beam="1">  1        2 0.14292252E+00 0.54696098E+03</pdfrwt>
<pdfrwt beam="2">  1       -2 0.10679624E-01 0.54696098E+03</pdfrwt>
<totfact> 0.17368949E+03</totfact>
</mgrwt>
</event>
<event>
 4    1  0.2209668E-005  0.5366674E+03  0.7818608E-02  0.1004628E+00
         -2   -1    0    0    0  501 -0.00000000000E+00  0.00000000000E+00  0.10456690192E+03  0.10456690195E+03  0.25500000000E-02 0. -1.
          2   -1    0    0  501    0  0.00000000000E+00 -0.00000000000E+00 -0.68858282248E+03  0.68858282249E+03  0.25500000000E-02 0.  1.
    5000001    1    1    2    0    0  0.17098848967E+03  0.52328975576E+02 -0.39315176213E+03  0.47104956570E+03  0.18800000000E+03 0.  0.
   -5000001    1    1    2    0    0 -0.17098848967E+03 -0.52328975576E+02 -0.19086415843E+03  0.32210015874E+03  0.18800000000E+03 0.  0.
<mgrwt>
<rscale>  0 0.53666739E+03</rscale>
<asrwt>0</asrwt>
<pdfrwt beam="1">  1        2 0.98368972E-01 0.53666739E+03</pdfrwt>
<pdfrwt beam="2">  1       -2 0.14938129E-01 0.53666739E+03</pdfrwt>
<totfact> 0.16193982E+03</totfact>
</mgrwt>
</event>
<event>
 4    1  0.2209668E-005  0.9670244E+03  0.7818608E-02  0.9345470E-01
         -2   -1    0    0    0  501 -0.00000000000E+00  0.00000000000E+00  0.35654764606E+03  0.35654764607E+03  0.25500000000E-02 0. -1.
          2   -1    0    0  501    0  0.00000000000E+00 -0.00000000000E+00 -0.65568805940E+03  0.65568805940E+03  0.25500000000E-02 0.  1.
    5000001    1    1    2    0    0 -0.13271762452E+03  0.41540467697E+03 -0.24473278573E+03  0.53424072282E+03  0.18800000000E+03 0.  0.
   -5000001    1    1    2    0    0  0.13271762452E+03 -0.41540467697E+03 -0.54407627604E+02  0.47799498266E+03  0.18800000000E+03 0.  0.
<mgrwt>
<rscale>  0 0.96702437E+03</rscale>
<asrwt>0</asrwt>
<pdfrwt beam="1">  1        2 0.93669722E-01 0.96702437E+03</pdfrwt>
<pdfrwt beam="2">  1       -2 0.50935378E-01 0.96702437E+03</pdfrwt>
<totfact> 0.17765868E+02</totfact>
</mgrwt>
</event>
<event>
 4    1  0.2209668E-005  0.6463718E+03  0.7818608E-02  0.9813611E-01
          2   -1    0    0  501    0  0.00000000000E+00  0.00000000000E+00  0.37197690454E+03  0.37197690455E+03  0.25500000000E-02 0.  1.
         -2   -1    0    0    0  501 -0.00000000000E+00 -0.00000000000E+00 -0.28079468990E+03  0.28079468991E+03  0.25500000000E-02 0. -1.
    5000001    1    1    2    0    0 -0.16921202122E+03 -0.15119360070E+03  0.17961881219E+03  0.34510741909E+03  0.18800000000E+03 0.  0.
   -5000001    1    1    2    0    0  0.16921202122E+03  0.15119360070E+03 -0.88436597549E+02  0.30766417537E+03  0.18800000000E+03 0.  0.
<mgrwt>
<rscale>  0 0.64637184E+03</rscale>
<asrwt>0</asrwt>
<pdfrwt beam="1">  1        2 0.53139558E-01 0.64637184E+03</pdfrwt>
<pdfrwt beam="2">  1       -2 0.40113527E-01 0.64637184E+03</pdfrwt>
<totfact> 0.55543266E+02</totfact>
</mgrwt>
</event>
<event>
 4    1  0.2209668E-005  0.6012758E+03  0.7818608E-02  0.9902763E-01
          2   -1    0    0  501    0  0.00000000000E+00  0.00000000000E+00  0.44757774439E+03  0.44757774440E+03  0.25500000000E-02 0.  1.
         -2   -1    0    0    0  501 -0.00000000000E+00 -0.00000000000E+00 -0.20193845096E+03  0.20193845098E+03  0.25500000000E-02 0. -1.
    5000001    1    1    2    0    0  0.22425115151E+03 -0.65221607822E+02  0.98744343770E+02  0.31565310470E+03  0.18800000000E+03 0.  0.
   -5000001    1    1    2    0    0 -0.22425115151E+03  0.65221607822E+02  0.14689494966E+03  0.33386309068E+03  0.18800000000E+03 0.  0.
<mgrwt>
<rscale>  0 0.60127583E+03</rscale>
<asrwt>0</asrwt>
<pdfrwt beam="1">  1        2 0.63939678E-01 0.60127583E+03</pdfrwt>
<pdfrwt beam="2">  1       -2 0.28848350E-01 0.60127583E+03</pdfrwt>
<totfact> 0.84279080E+02</totfact>
</mgrwt>
</event>
<event>
 4    1  0.2209668E-005  0.5020321E+03  0.7818608E-02  0.1013250E+00
          2   -1    0    0  501    0  0.00000000000E+00  0.00000000000E+00  0.33832696566E+04  0.33832696566E+04  0.25500000000E-02 0.  1.
         -2   -1    0    0    0  501 -0.00000000000E+00 -0.00000000000E+00 -0.18623714158E+02  0.18623714332E+02  0.25500000000E-02 0. -1.
    5000001    1    1    2    0    0  0.12681974362E+02 -0.14989223739E+03  0.12014226763E+04  0.12253117817E+04  0.18800000000E+03 0.  0.
   -5000001    1    1    2    0    0 -0.12681974362E+02  0.14989223739E+03  0.21632232662E+04  0.21765815893E+04  0.18800000000E+03 0.  0.
<mgrwt>
<rscale>  0 0.50203206E+03</rscale>
<asrwt>0</asrwt>
<pdfrwt beam="1">  1        2 0.48332406E+00 0.50203206E+03</pdfrwt>
<pdfrwt beam="2">  1       -2 0.26605316E-02 0.50203206E+03</pdfrwt>
<totfact> 0.83736319E+02</totfact>
</mgrwt>
</event>
<event>
 4    1  0.2209668E-005  0.7361926E+03  0.7818608E-02  0.9657264E-01
          2   -1    0    0  501    0  0.00000000000E+00  0.00000000000E+00  0.80732249403E+02  0.80732249444E+02  0.25500000000E-02 0.  1.
         -2   -1    0    0    0  501 -0.00000000000E+00 -0.00000000000E+00 -0.16783241544E+04  0.16783241544E+04  0.25500000000E-02 0. -1.
    5000001    1    1    2    0    0  0.19565733463E+03 -0.23853866073E+03 -0.96721707315E+03  0.10324898798E+04  0.18800000000E+03 0.  0.
   -5000001    1    1    2    0    0 -0.19565733463E+03  0.23853866073E+03 -0.63037483182E+03  0.72656652403E+03  0.18800000000E+03 0.  0.
<mgrwt>
<rscale>  0 0.73619260E+03</rscale>
<asrwt>0</asrwt>
<pdfrwt beam="1">  1        2 0.11533179E-01 0.73619260E+03</pdfrwt>
<pdfrwt beam="2">  1       -2 0.23976057E+00 0.73619260E+03</pdfrwt>
<totfact> 0.42357825E+01</totfact>
</mgrwt>
</event>
<event>
 4    1  0.2209668E-005  0.7764341E+03  0.7818608E-02  0.9594768E-01
          2   -1    0    0  501    0  0.00000000000E+00  0.00000000000E+00  0.25353283523E+03  0.25353283524E+03  0.25500000000E-02 0. -1.
         -2   -1    0    0    0  501 -0.00000000000E+00 -0.00000000000E+00 -0.59444960300E+03  0.59444960301E+03  0.25500000000E-02 0.  1.
    5000001    1    1    2    0    0  0.43206059008E+02  0.12755695098E+03  0.17009445786E+03  0.28707780108E+03  0.18800000000E+03 0.  0.
   -5000001    1    1    2    0    0 -0.43206059008E+02 -0.12755695098E+03 -0.51101122563E+03  0.56090463717E+03  0.18800000000E+03 0.  0.
<mgrwt>
<rscale>  0 0.77643414E+03</rscale>
<asrwt>0</asrwt>
<pdfrwt beam="1">  1        2 0.36218977E-01 0.77643414E+03</pdfrwt>
<pdfrwt beam="2">  1       -2 0.84921371E-01 0.77643414E+03</pdfrwt>
<totfact> 0.17517527E+02</totfact>
</mgrwt>
</event>
<event>
 4    1  0.2209668E-005  0.7442255E+03  0.7818608E-02  0.9644453E-01
         -2   -1    0    0    0  501 -0.00000000000E+00  0.00000000000E+00  0.38398552396E+03  0.38398552397E+03  0.25500000000E-02 0. -1.
          2   -1    0    0  501    0  0.00000000000E+00 -0.00000000000E+00 -0.36060711663E+03  0.36060711664E+03  0.25500000000E-02 0.  1.
    5000001    1    1    2    0    0 -0.14498621554E+03  0.49008275638E+02 -0.27076388336E+03  0.36342797679E+03  0.18800000000E+03 0.  0.
   -5000001    1    1    2    0    0  0.14498621554E+03 -0.49008275638E+02  0.29414229069E+03  0.38116466383E+03  0.18800000000E+03 0.  0.
<mgrwt>
<rscale>  0 0.74422554E+03</rscale>
<asrwt>0</asrwt>
<pdfrwt beam="1">  1        2 0.51515303E-01 0.74422554E+03</pdfrwt>
<pdfrwt beam="2">  1       -2 0.54855075E-01 0.74422554E+03</pdfrwt>
<totfact> 0.30606659E+02</totfact>
</mgrwt>
</event>
<event>
 4    1  0.2209668E-005  0.4635876E+03  0.7818608E-02  0.1023746E+00
          2   -1    0    0  501    0  0.00000000000E+00  0.00000000000E+00  0.12031766865E+04  0.12031766865E+04  0.25500000000E-02 0. -1.
         -2   -1    0    0    0  501 -0.00000000000E+00 -0.00000000000E+00 -0.44655416350E+02  0.44655416422E+02  0.25500000000E-02 0.  1.
    5000001    1    1    2    0    0 -0.10281802148E+03  0.73184429304E+02  0.44584286524E+03  0.50004736448E+03  0.18800000000E+03 0.  0.
   -5000001    1    1    2    0    0  0.10281802148E+03 -0.73184429304E+02  0.71267840490E+03  0.74778473844E+03  0.18800000000E+03 0.  0.
<mgrwt>
<rscale>  0 0.46358756E+03</rscale>
<asrwt>0</asrwt>
<pdfrwt beam="1">  1        2 0.17188240E+00 0.46358756E+03</pdfrwt>
<pdfrwt beam="2">  1       -2 0.63793446E-02 0.46358756E+03</pdfrwt>
<totfact> 0.30129395E+03</totfact>
</mgrwt>
</event>
<event>
 4    1  0.2209668E-005  0.6316874E+03  0.7818608E-02  0.9841761E-01
         -2   -1    0    0    0  501 -0.00000000000E+00  0.00000000000E+00  0.30672886811E+02  0.30672886917E+02  0.25500000000E-02 0. -1.
          2   -1    0    0  501    0  0.00000000000E+00 -0.00000000000E+00 -0.32522938863E+04  0.32522938863E+04  0.25500000000E-02 0.  1.
    5000001    1    1    2    0    0  0.87181959264E+02  0.18213292097E+03 -0.81173214845E+03  0.85733667585E+03  0.18800000000E+03 0.  0.
   -5000001    1    1    2    0    0 -0.87181959264E+02 -0.18213292097E+03 -0.24098888511E+04  0.24256300974E+04  0.18800000000E+03 0.  0.
<mgrwt>
<rscale>  0 0.63168740E+03</rscale>
<asrwt>0</asrwt>
<pdfrwt beam="1">  1        2 0.46461319E+00 0.63168740E+03</pdfrwt>
<pdfrwt beam="2">  1       -2 0.43818430E-02 0.63168740E+03</pdfrwt>
<totfact> 0.45836131E+02</totfact>
</mgrwt>
</event>
<event>
 4    1  0.2209668E-005  0.8142058E+03  0.7818608E-02  0.9539679E-01
         -2   -1    0    0    0  501 -0.00000000000E+00  0.00000000000E+00  0.16655720472E+03  0.16655720474E+03  0.25500000000E-02 0.  1.
          2   -1    0    0  501    0  0.00000000000E+00 -0.00000000000E+00 -0.99505004254E+03  0.99505004255E+03  0.25500000000E-02 0. -1.
    5000001    1    1    2    0    0 -0.36210689534E+02 -0.23101502489E+03 -0.21691327999E+02  0.30082165725E+03  0.18800000000E+03 0.  0.
   -5000001    1    1    2    0    0  0.36210689534E+02  0.23101502489E+03 -0.80680150982E+03  0.86078559004E+03  0.18800000000E+03 0.  0.
<mgrwt>
<rscale>  0 0.81420576E+03</rscale>
<asrwt>0</asrwt>
<pdfrwt beam="1">  1        2 0.14215000E+00 0.81420576E+03</pdfrwt>
<pdfrwt beam="2">  1       -2 0.23793887E-01 0.81420576E+03</pdfrwt>
<totfact> 0.44423455E+02</totfact>
</mgrwt>
</event>
<event>
 4    1  0.2209668E-005  0.4536532E+03  0.7818608E-02  0.1026638E+00
         -2   -1    0    0    0  501 -0.00000000000E+00  0.00000000000E+00  0.24761844132E+02  0.24761844263E+02  0.25500000000E-02 0. -1.
          2   -1    0    0  501    0  0.00000000000E+00 -0.00000000000E+00 -0.20778057057E+04  0.20778057057E+04  0.25500000000E-02 0.  1.
    5000001    1    1    2    0    0 -0.14671243542E+02  0.12554439504E+03 -0.10792971554E+04  0.11028159366E+04  0.18800000000E+03 0.  0.
   -5000001    1    1    2    0    0  0.14671243542E+02 -0.12554439504E+03 -0.97374670617E+03  0.99975161330E+03  0.18800000000E+03 0.  0.
<mgrwt>
<rscale>  0 0.45365318E+03</rscale>
<asrwt>0</asrwt>
<pdfrwt beam="1">  1        2 0.29682928E+00 0.45365318E+03</pdfrwt>
<pdfrwt beam="2">  1       -2 0.35374076E-02 0.45365318E+03</pdfrwt>
<totfact> 0.26586543E+03</totfact>
</mgrwt>
</event>
<event>
 4    1  0.2209668E-005  0.8426364E+03  0.7818608E-02  0.9500274E-01
          2   -1    0    0  501    0  0.00000000000E+00  0.00000000000E+00  0.10224975388E+04  0.10224975388E+04  0.25500000000E-02 0.  1.
         -2   -1    0    0    0  501 -0.00000000000E+00 -0.00000000000E+00 -0.17360338423E+03  0.17360338425E+03  0.25500000000E-02 0. -1.
    5000001    1    1    2    0    0  0.34797873068E+03  0.40600796870E+02  0.22659752619E+03  0.45763310696E+03  0.18800000000E+03 0.  0.
   -5000001    1    1    2    0    0 -0.34797873068E+03 -0.40600796870E+02  0.62229662838E+03  0.73846781609E+03  0.18800000000E+03 0.  0.
<mgrwt>
<rscale>  0 0.84263642E+03</rscale>
<asrwt>0</asrwt>
<pdfrwt beam="1">  1        2 0.14607107E+00 0.84263642E+03</pdfrwt>
<pdfrwt beam="2">  1       -2 0.24800485E-01 0.84263642E+03</pdfrwt>
<totfact> 0.39619858E+02</totfact>
</mgrwt>
</event>
<event>
 4    1  0.2209668E-005  0.4348716E+03  0.7818608E-02  0.1032332E+00
          2   -1    0    0  501    0  0.00000000000E+00  0.00000000000E+00  0.58313546397E+03  0.58313546398E+03  0.25500000000E-02 0.  1.
         -2   -1    0    0    0  501 -0.00000000000E+00 -0.00000000000E+00 -0.81076046860E+02  0.81076046900E+02  0.25500000000E-02 0. -1.
    5000001    1    1    2    0    0 -0.30789223961E+02  0.84046681164E+02  0.15537051429E+03  0.25979957205E+03  0.18800000000E+03 0.  0.
   -5000001    1    1    2    0    0  0.30789223961E+02 -0.84046681164E+02  0.34668890282E+03  0.40441193882E+03  0.18800000000E+03 0.  0.
<mgrwt>
<rscale>  0 0.43487156E+03</rscale>
<asrwt>0</asrwt>
<pdfrwt beam="1">  1        2 0.83305069E-01 0.43487156E+03</pdfrwt>
<pdfrwt beam="2">  1       -2 0.11582292E-01 0.43487156E+03</pdfrwt>
<totfact> 0.29986782E+03</totfact>
</mgrwt>
</event>
<event>
 4    1  0.2209668E-005  0.7683056E+03  0.7818608E-02  0.9607062E-01
          2   -1    0    0  501    0  0.00000000000E+00  0.00000000000E+00  0.13351518007E+04  0.13351518007E+04  0.25500000000E-02 0.  1.
         -2   -1    0    0    0  501 -0.00000000000E+00 -0.00000000000E+00 -0.11052927869E+03  0.11052927872E+03  0.25500000000E-02 0. -1.
    5000001    1    1    2    0    0 -0.32070429747E+03 -0.85898324892E+02  0.69645266089E+03  0.79411590936E+03  0.18800000000E+03 0.  0.
   -5000001    1    1    2    0    0  0.32070429747E+03  0.85898324892E+02  0.52816986111E+03  0.65156517005E+03  0.18800000000E+03 0.  0.
<mgrwt>
<rscale>  0 0.76830558E+03</rscale>
<asrwt>0</asrwt>
<pdfrwt beam="1">  1        2 0.19073595E+00 0.76830558E+03</pdfrwt>
<pdfrwt beam="2">  1       -2 0.15789898E-01 0.76830558E+03</pdfrwt>
<totfact> 0.58007311E+02</totfact>
</mgrwt>
</event>
<event>
 4    1  0.2209668E-005  0.8591940E+03  0.7818608E-02  0.9478079E-01
         -2   -1    0    0    0  501 -0.00000000000E+00  0.00000000000E+00  0.57789273096E+03  0.57789273097E+03  0.25500000000E-02 0. -1.
          2   -1    0    0  501    0  0.00000000000E+00 -0.00000000000E+00 -0.31935614863E+03  0.31935614864E+03  0.25500000000E-02 0.  1.
    5000001    1    1    2    0    0  0.70610954681E+02  0.37199652887E+03  0.49448134458E+02  0.42562476715E+03  0.18800000000E+03 0.  0.
   -5000001    1    1    2    0    0 -0.70610954681E+02 -0.37199652887E+03  0.20908844788E+03  0.47162411245E+03  0.18800000000E+03 0.  0.
<mgrwt>
<rscale>  0 0.85919403E+03</rscale>
<asrwt>0</asrwt>
<pdfrwt beam="1">  1        2 0.45622307E-01 0.85919403E+03</pdfrwt>
<pdfrwt beam="2">  1       -2 0.82556104E-01 0.85919403E+03</pdfrwt>
<totfact> 0.14398546E+02</totfact>
</mgrwt>
</event>
<event>
 4    1  0.2209668E-005  0.6955077E+03  0.7818608E-02  0.9724946E-01
          2   -1    0    0  501    0  0.00000000000E+00  0.00000000000E+00  0.20113470328E+04  0.20113470328E+04  0.25500000000E-02 0.  1.
         -2   -1    0    0    0  501 -0.00000000000E+00 -0.00000000000E+00 -0.60125249179E+02  0.60125249233E+02  0.25500000000E-02 0. -1.
    5000001    1    1    2    0    0  0.11831264221E+03 -0.21325108838E+03  0.49430540470E+03  0.58237079350E+03  0.18800000000E+03 0.  0.
   -5000001    1    1    2    0    0 -0.11831264221E+03  0.21325108838E+03  0.14569163790E+04  0.14891014886E+04  0.18800000000E+03 0.  0.
<mgrwt>
<rscale>  0 0.69550770E+03</rscale>
<asrwt>0</asrwt>
<pdfrwt beam="1">  1        2 0.28733525E+00 0.69550770E+03</pdfrwt>
<pdfrwt beam="2">  1       -2 0.85893225E-02 0.69550770E+03</pdfrwt>
<totfact> 0.71119215E+02</totfact>
</mgrwt>
</event>
<event>
 4    1  0.2209668E-005  0.7334036E+03  0.7818608E-02  0.9661753E-01
         -2   -1    0    0    0  501 -0.00000000000E+00  0.00000000000E+00  0.83567346660E+02  0.83567346699E+02  0.25500000000E-02 0. -1.
          2   -1    0    0  501    0  0.00000000000E+00 -0.00000000000E+00 -0.16091239268E+04  0.16091239268E+04  0.25500000000E-02 0.  1.
    5000001    1    1    2    0    0 -0.14642769952E+03  0.20066914331E+03 -0.31633178729E+03  0.44398082831E+03  0.18800000000E+03 0.  0.
   -5000001    1    1    2    0    0  0.14642769952E+03 -0.20066914331E+03 -0.12092247929E+04  0.12487104452E+04  0.18800000000E+03 0.  0.
<mgrwt>
<rscale>  0 0.73340362E+03</rscale>
<asrwt>0</asrwt>
<pdfrwt beam="1">  1        2 0.22987483E+00 0.73340362E+03</pdfrwt>
<pdfrwt beam="2">  1       -2 0.11938193E-01 0.73340362E+03</pdfrwt>
<totfact> 0.66506684E+02</totfact>
</mgrwt>
</event>
<event>
 4    1  0.2209668E-005  0.1096663E+04  0.7818608E-02  0.9208450E-01
          2   -1    0    0  501    0  0.00000000000E+00  0.00000000000E+00  0.12051166734E+04  0.12051166734E+04  0.25500000000E-02 0.  1.
         -2   -1    0    0    0  501 -0.00000000000E+00 -0.00000000000E+00 -0.24949258986E+03  0.24949258987E+03  0.25500000000E-02 0. -1.
    5000001    1    1    2    0    0 -0.80451476086E+02  0.45380646171E+03  0.78291449457E+03  0.92774557423E+03  0.18800000000E+03 0.  0.
   -5000001    1    1    2    0    0  0.80451476086E+02 -0.45380646171E+03  0.17270958895E+03  0.52686368902E+03  0.18800000000E+03 0.  0.
<mgrwt>
<rscale>  0 0.10966634E+04</rscale>
<asrwt>0</asrwt>
<pdfrwt beam="1">  1        2 0.17215952E+00 0.10966634E+04</pdfrwt>
<pdfrwt beam="2">  1       -2 0.35641799E-01 0.10966634E+04</pdfrwt>
<totfact> 0.15570153E+02</totfact>
</mgrwt>
</event>
<event>
 4    1  0.2209668E-005  0.5135446E+03  0.7818608E-02  0.1010303E+00
         -2   -1    0    0    0  501 -0.00000000000E+00  0.00000000000E+00  0.55082121309E+02  0.55082121369E+02  0.25500000000E-02 0. -1.
          2   -1    0    0  501    0  0.00000000000E+00 -0.00000000000E+00 -0.11969766889E+04  0.11969766889E+04  0.25500000000E-02 0.  1.
    5000001    1    1    2    0    0 -0.47613961154E+01  0.15795533955E+03 -0.75364748883E+03  0.79265446293E+03  0.18800000000E+03 0.  0.
   -5000001    1    1    2    0    0  0.47613961154E+01 -0.15795533955E+03 -0.38824707874E+03  0.45940434732E+03  0.18800000000E+03 0.  0.
<mgrwt>
<rscale>  0 0.51354460E+03</rscale>
<asrwt>0</asrwt>
<pdfrwt beam="1">  1        2 0.17099665E+00 0.51354460E+03</pdfrwt>
<pdfrwt beam="2">  1       -2 0.78688752E-02 0.51354460E+03</pdfrwt>
<totfact> 0.21820672E+03</totfact>
</mgrwt>
</event>
<event>
 4    1  0.2209668E-005  0.5444436E+03  0.7818608E-02  0.1002788E+00
         -2   -1    0    0    0  501 -0.00000000000E+00  0.00000000000E+00  0.13688895142E+04  0.13688895142E+04  0.25500000000E-02 0. -1.
          2   -1    0    0  501    0  0.00000000000E+00 -0.00000000000E+00 -0.54134917047E+02  0.54134917107E+02  0.25500000000E-02 0.  1.
    5000001    1    1    2    0    0  0.13762660867E+03  0.11093596240E+03  0.43082850205E+03  0.50220022834E+03  0.18800000000E+03 0.  0.
   -5000001    1    1    2    0    0 -0.13762660867E+03 -0.11093596240E+03  0.88392609513E+03  0.92082420299E+03  0.18800000000E+03 0.  0.
<mgrwt>
<rscale>  0 0.54444364E+03</rscale>
<asrwt>0</asrwt>
<pdfrwt beam="1">  1        2 0.77335587E-02 0.54444364E+03</pdfrwt>
<pdfrwt beam="2">  1       -2 0.19555567E+00 0.54444364E+03</pdfrwt>
<totfact> 0.13524684E+02</totfact>
</mgrwt>
</event>
<event>
 4    1  0.2209668E-005  0.4354045E+03  0.7818608E-02  0.1032166E+00
         -2   -1    0    0    0  501 -0.00000000000E+00  0.00000000000E+00  0.17654028087E+03  0.17654028089E+03  0.25500000000E-02 0. -1.
          2   -1    0    0  501    0  0.00000000000E+00 -0.00000000000E+00 -0.26846145563E+03  0.26846145564E+03  0.25500000000E-02 0.  1.
    5000001    1    1    2    0    0 -0.92374973056E+02 -0.56307591771E+02 -0.26933568988E+02  0.21857057825E+03  0.18800000000E+03 0.  0.
   -5000001    1    1    2    0    0  0.92374973056E+02  0.56307591771E+02 -0.64987605769E+02  0.22643115828E+03  0.18800000000E+03 0.  0.
<mgrwt>
<rscale>  0 0.43540446E+03</rscale>
<asrwt>0</asrwt>
<pdfrwt beam="1">  1        2 0.38351636E-01 0.43540446E+03</pdfrwt>
<pdfrwt beam="2">  1       -2 0.25220040E-01 0.43540446E+03</pdfrwt>
<totfact> 0.18878760E+03</totfact>
</mgrwt>
</event>
<event>
 4    1  0.2209668E-005  0.1030219E+04  0.7818608E-02  0.9276008E-01
         -2   -1    0    0    0  501 -0.00000000000E+00  0.00000000000E+00  0.12051983109E+03  0.12051983111E+03  0.25500000000E-02 0. -1.
          2   -1    0    0  501    0  0.00000000000E+00 -0.00000000000E+00 -0.22016108552E+04  0.22016108552E+04  0.25500000000E-02 0.  1.
    5000001    1    1    2    0    0  0.30929552622E+03  0.35241725181E+03 -0.81365965366E+03  0.95773048083E+03  0.18800000000E+03 0.  0.
   -5000001    1    1    2    0    0 -0.30929552622E+03 -0.35241725181E+03 -0.12674313705E+04  0.13644002055E+04  0.18800000000E+03 0.  0.
<mgrwt>
<rscale>  0 0.10302189E+04</rscale>
<asrwt>0</asrwt>
<pdfrwt beam="1">  1        2 0.31451581E+00 0.10302189E+04</pdfrwt>
<pdfrwt beam="2">  1       -2 0.17217120E-01 0.10302189E+04</pdfrwt>
<totfact> 0.17525224E+02</totfact>
</mgrwt>
</event>
<event>
 4    1  0.2209668E-005  0.7040063E+03  0.7818608E-02  0.9710405E-01
          2   -1    0    0  501    0  0.00000000000E+00  0.00000000000E+00  0.25256772480E+04  0.25256772480E+04  0.25500000000E-02 0.  1.
         -2   -1    0    0    0  501 -0.00000000000E+00 -0.00000000000E+00 -0.49058604163E+02  0.49058604229E+02  0.25500000000E-02 0. -1.
    5000001    1    1    2    0    0  0.57708247169E+02 -0.26663822161E+03  0.16731395235E+04  0.17056277578E+04  0.18800000000E+03 0.  0.
   -5000001    1    1    2    0    0 -0.57708247169E+02  0.26663822161E+03  0.80347912028E+03  0.86910809439E+03  0.18800000000E+03 0.  0.
<mgrwt>
<rscale>  0 0.70400625E+03</rscale>
<asrwt>0</asrwt>
<pdfrwt beam="1">  1        2 0.36081104E+00 0.70400625E+03</pdfrwt>
<pdfrwt beam="2">  1       -2 0.70083720E-02 0.70400625E+03</pdfrwt>
<totfact> 0.53829068E+02</totfact>
</mgrwt>
</event>
<event>
 4    1  0.2209668E-005  0.9378382E+03  0.7818608E-02  0.9379480E-01
          2   -1    0    0  501    0  0.00000000000E+00  0.00000000000E+00  0.27464186885E+04  0.27464186885E+04  0.25500000000E-02 0.  1.
         -2   -1    0    0    0  501 -0.00000000000E+00 -0.00000000000E+00 -0.80062491387E+02  0.80062491427E+02  0.25500000000E-02 0. -1.
    5000001    1    1    2    0    0 -0.35661863639E+03 -0.23730425701E+03  0.12354743194E+04  0.13210718966E+04  0.18800000000E+03 0.  0.
   -5000001    1    1    2    0    0  0.35661863639E+03  0.23730425701E+03  0.14308818777E+04  0.15054092833E+04  0.18800000000E+03 0.  0.
<mgrwt>
<rscale>  0 0.93783820E+03</rscale>
<asrwt>0</asrwt>
<pdfrwt beam="1">  1        2 0.39234549E+00 0.93783820E+03</pdfrwt>
<pdfrwt beam="2">  1       -2 0.11437500E-01 0.93783820E+03</pdfrwt>
<totfact> 0.18313344E+02</totfact>
</mgrwt>
</event>
<event>
 4    1  0.2209668E-005  0.5411488E+03  0.7818608E-02  0.1003564E+00
         -2   -1    0    0    0  501 -0.00000000000E+00  0.00000000000E+00  0.64876207688E+02  0.64876207738E+02  0.25500000000E-02 0. -1.
          2   -1    0    0  501    0  0.00000000000E+00 -0.00000000000E+00 -0.11284647465E+04  0.11284647465E+04  0.25500000000E-02 0.  1.
    5000001    1    1    2    0    0 -0.10630109308E+02  0.17995101782E+03 -0.69340912287E+03  0.74071288616E+03  0.18800000000E+03 0.  0.
   -5000001    1    1    2    0    0  0.10630109308E+02 -0.17995101782E+03 -0.37017941599E+03  0.45262806813E+03  0.18800000000E+03 0.  0.
<mgrwt>
<rscale>  0 0.54114883E+03</rscale>
<asrwt>0</asrwt>
<pdfrwt beam="1">  1        2 0.16120924E+00 0.54114883E+03</pdfrwt>
<pdfrwt beam="2">  1       -2 0.92680304E-02 0.54114883E+03</pdfrwt>
<totfact> 0.18362869E+03</totfact>
</mgrwt>
</event>
<event>
 4    1  0.2209668E-005  0.5399488E+03  0.7818608E-02  0.1003848E+00
          2   -1    0    0  501    0  0.00000000000E+00  0.00000000000E+00  0.23126043041E+03  0.23126043043E+03  0.25500000000E-02 0.  1.
         -2   -1    0    0    0  501 -0.00000000000E+00 -0.00000000000E+00 -0.31516924579E+03  0.31516924580E+03  0.25500000000E-02 0. -1.
    5000001    1    1    2    0    0  0.35102442003E+02  0.18464636524E+03  0.56819484064E+01  0.26589987997E+03  0.18800000000E+03 0.  0.
   -5000001    1    1    2    0    0 -0.35102442003E+02 -0.18464636524E+03 -0.89590763786E+02  0.28052979626E+03  0.18800000000E+03 0.  0.
<mgrwt>
<rscale>  0 0.53994880E+03</rscale>
<asrwt>0</asrwt>
<pdfrwt beam="1">  1        2 0.33037204E-01 0.53994880E+03</pdfrwt>
<pdfrwt beam="2">  1       -2 0.45024178E-01 0.53994880E+03</pdfrwt>
<totfact> 0.75032439E+02</totfact>
</mgrwt>
</event>
<event>
 4    1  0.2209668E-005  0.8354400E+03  0.7818608E-02  0.9510090E-01
         -2   -1    0    0    0  501 -0.00000000000E+00  0.00000000000E+00  0.13143715350E+03  0.13143715353E+03  0.25500000000E-02 0. -1.
          2   -1    0    0  501    0  0.00000000000E+00 -0.00000000000E+00 -0.13275547150E+04  0.13275547150E+04  0.25500000000E-02 0.  1.
    5000001    1    1    2    0    0 -0.34542508215E+03 -0.82969735323E+02 -0.39937415326E+03  0.56660937043E+03  0.18800000000E+03 0.  0.
   -5000001    1    1    2    0    0  0.34542508215E+03  0.82969735323E+02 -0.79674340824E+03  0.89238249811E+03  0.18800000000E+03 0.  0.
<mgrwt>
<rscale>  0 0.83544003E+03</rscale>
<asrwt>0</asrwt>
<pdfrwt beam="1">  1        2 0.18965067E+00 0.83544003E+03</pdfrwt>
<pdfrwt beam="2">  1       -2 0.18776737E-01 0.83544003E+03</pdfrwt>
<totfact> 0.43345587E+02</totfact>
</mgrwt>
</event>
<event>
 4    1  0.2209668E-005  0.7102522E+03  0.7818608E-02  0.9699858E-01
         -2   -1    0    0    0  501 -0.00000000000E+00  0.00000000000E+00  0.11145395948E+04  0.11145395948E+04  0.25500000000E-02 0. -1.
          2   -1    0    0  501    0  0.00000000000E+00 -0.00000000000E+00 -0.11315393011E+03  0.11315393014E+03  0.25500000000E-02 0.  1.
    5000001    1    1    2    0    0  0.79256638116E+02 -0.22156293028E+03  0.82590860319E+03  0.87911362609E+03  0.18800000000E+03 0.  0.
   -5000001    1    1    2    0    0 -0.79256638116E+02  0.22156293028E+03  0.17547706145E+03  0.34857989881E+03  0.18800000000E+03 0.  0.
<mgrwt>
<rscale>  0 0.71025217E+03</rscale>
<asrwt>0</asrwt>
<pdfrwt beam="1">  1        2 0.16164849E-01 0.71025217E+03</pdfrwt>
<pdfrwt beam="2">  1       -2 0.15921993E+00 0.71025217E+03</pdfrwt>
<totfact> 0.94785286E+01</totfact>
</mgrwt>
</event>
<event>
 4    1  0.2209668E-005  0.4770304E+03  0.7818608E-02  0.1019954E+00
          2   -1    0    0  501    0  0.00000000000E+00  0.00000000000E+00  0.30995576052E+04  0.30995576052E+04  0.25500000000E-02 0.  1.
         -2   -1    0    0    0  501 -0.00000000000E+00 -0.00000000000E+00 -0.18354072642E+02  0.18354072819E+02  0.25500000000E-02 0. -1.
    5000001    1    1    2    0    0 -0.71150530613E+02 -0.11468697628E+03  0.11634291209E+04  0.11862237647E+04  0.18800000000E+03 0.  0.
   -5000001    1    1    2    0    0  0.71150530613E+02  0.11468697628E+03  0.19177744116E+04  0.19316879133E+04  0.18800000000E+03 0.  0.
<mgrwt>
<rscale>  0 0.47703042E+03</rscale>
<asrwt>0</asrwt>
<pdfrwt beam="1">  1        2 0.44279362E+00 0.47703042E+03</pdfrwt>
<pdfrwt beam="2">  1       -2 0.26220123E-02 0.47703042E+03</pdfrwt>
<totfact> 0.12392398E+03</totfact>
</mgrwt>
</event>
<event>
 4    1  0.2209668E-005  0.7152359E+03  0.7818608E-02  0.9691526E-01
          2   -1    0    0  501    0  0.00000000000E+00  0.00000000000E+00  0.51979746283E+03  0.51979746284E+03  0.25500000000E-02 0.  1.
         -2   -1    0    0    0  501 -0.00000000000E+00 -0.00000000000E+00 -0.24603927732E+03  0.24603927734E+03  0.25500000000E-02 0. -1.
    5000001    1    1    2    0    0  0.67724116928E+01  0.30335343172E+03  0.11348328057E+03  0.37455523633E+03  0.18800000000E+03 0.  0.
   -5000001    1    1    2    0    0 -0.67724116928E+01 -0.30335343172E+03  0.16027490494E+03  0.39128150384E+03  0.18800000000E+03 0.  0.
<mgrwt>
<rscale>  0 0.71523588E+03</rscale>
<asrwt>0</asrwt>
<pdfrwt beam="1">  1        2 0.74256781E-01 0.71523588E+03</pdfrwt>
<pdfrwt beam="2">  1       -2 0.35148468E-01 0.71523588E+03</pdfrwt>
<totfact> 0.49049006E+02</totfact>
</mgrwt>
</event>
<event>
 4    1  0.2209668E-005  0.7856096E+03  0.7818608E-02  0.9581083E-01
         -2   -1    0    0    0  501 -0.00000000000E+00  0.00000000000E+00  0.17358284780E+03  0.17358284782E+03  0.25500000000E-02 0. -1.
          2   -1    0    0  501    0  0.00000000000E+00 -0.00000000000E+00 -0.88888743303E+03  0.88888743303E+03  0.25500000000E-02 0.  1.
    5000001    1    1    2    0    0  0.12782121556E+03 -0.26772096591E+03 -0.11977007766E+03  0.37108172986E+03  0.18800000000E+03 0.  0.
   -5000001    1    1    2    0    0 -0.12782121556E+03  0.26772096591E+03 -0.59553450757E+03  0.69138855099E+03  0.18800000000E+03 0.  0.
<mgrwt>
<rscale>  0 0.78560960E+03</rscale>
<asrwt>0</asrwt>
<pdfrwt beam="1">  1        2 0.12698392E+00 0.78560960E+03</pdfrwt>
<pdfrwt beam="2">  1       -2 0.24797550E-01 0.78560960E+03</pdfrwt>
<totfact> 0.48231028E+02</totfact>
</mgrwt>
</event>
<event>
 4    1  0.2209668E-005  0.5188807E+03  0.7818608E-02  0.1008965E+00
          2   -1    0    0  501    0  0.00000000000E+00  0.00000000000E+00  0.16017322759E+04  0.16017322759E+04  0.25500000000E-02 0.  1.
         -2   -1    0    0    0  501 -0.00000000000E+00 -0.00000000000E+00 -0.42022806833E+02  0.42022806910E+02  0.25500000000E-02 0. -1.
    5000001    1    1    2    0    0 -0.14970022751E+03  0.36067321017E+02  0.49204258513E+03  0.54878130010E+03  0.18800000000E+03 0.  0.
   -5000001    1    1    2    0    0  0.14970022751E+03 -0.36067321017E+02  0.10676668839E+04  0.10949737827E+04  0.18800000000E+03 0.  0.
<mgrwt>
<rscale>  0 0.51888066E+03</rscale>
<asrwt>0</asrwt>
<pdfrwt beam="1">  1        2 0.22881884E+00 0.51888066E+03</pdfrwt>
<pdfrwt beam="2">  1       -2 0.60032595E-02 0.51888066E+03</pdfrwt>
<totfact> 0.20375884E+03</totfact>
</mgrwt>
</event>
<event>
 4    1  0.2209668E-005  0.5190549E+03  0.7818608E-02  0.1008922E+00
         -2   -1    0    0    0  501 -0.00000000000E+00  0.00000000000E+00  0.16866650610E+03  0.16866650612E+03  0.25500000000E-02 0. -1.
          2   -1    0    0  501    0  0.00000000000E+00 -0.00000000000E+00 -0.39933532653E+03  0.39933532654E+03  0.25500000000E-02 0.  1.
    5000001    1    1    2    0    0  0.12053812007E+03  0.82509466415E+02 -0.22838808082E+03  0.32991266405E+03  0.18800000000E+03 0.  0.
   -5000001    1    1    2    0    0 -0.12053812007E+03 -0.82509466415E+02 -0.22807396181E+01  0.23808916862E+03  0.18800000000E+03 0.  0.
<mgrwt>
<rscale>  0 0.51905489E+03</rscale>
<asrwt>0</asrwt>
<pdfrwt beam="1">  1        2 0.57047903E-01 0.51905489E+03</pdfrwt>
<pdfrwt beam="2">  1       -2 0.24095215E-01 0.51905489E+03</pdfrwt>
<totfact> 0.13255677E+03</totfact>
</mgrwt>
</event>
<event>
 4    1  0.2209668E-005  0.4148082E+03  0.7818608E-02  0.1038769E+00
          2   -1    0    0  501    0  0.00000000000E+00  0.00000000000E+00  0.14045856183E+04  0.14045856183E+04  0.25500000000E-02 0.  1.
         -2   -1    0    0    0  501 -0.00000000000E+00 -0.00000000000E+00 -0.30625733403E+02  0.30625733510E+02  0.25500000000E-02 0. -1.
    5000001    1    1    2    0    0 -0.36596801790E+02 -0.70060980025E+02  0.55638851659E+03  0.59258758696E+03  0.18800000000E+03 0.  0.
   -5000001    1    1    2    0    0  0.36596801790E+02  0.70060980025E+02  0.81757136833E+03  0.84262376488E+03  0.18800000000E+03 0.  0.
<mgrwt>
<rscale>  0 0.41480822E+03</rscale>
<asrwt>0</asrwt>
<pdfrwt beam="1">  1        2 0.20065510E+00 0.41480822E+03</pdfrwt>
<pdfrwt beam="2">  1       -2 0.43751046E-02 0.41480822E+03</pdfrwt>
<totfact> 0.42031913E+03</totfact>
</mgrwt>
</event>
<event>
 4    1  0.2209668E-005  0.5988983E+03  0.7818608E-02  0.9907694E-01
          2   -1    0    0  501    0  0.00000000000E+00  0.00000000000E+00  0.48827410430E+02  0.48827410497E+02  0.25500000000E-02 0.  1.
         -2   -1    0    0    0  501 -0.00000000000E+00 -0.00000000000E+00 -0.18364643378E+04  0.18364643378E+04  0.25500000000E-02 0. -1.
    5000001    1    1    2    0    0 -0.59359388592E+02  0.16600138526E+03 -0.41386654293E+03  0.48755462492E+03  0.18800000000E+03 0.  0.
   -5000001    1    1    2    0    0  0.59359388592E+02 -0.16600138526E+03 -0.13737703845E+04  0.13977371234E+04  0.18800000000E+03 0.  0.
<mgrwt>
<rscale>  0 0.59889832E+03</rscale>
<asrwt>0</asrwt>
<pdfrwt beam="1">  1        2 0.69753455E-02 0.59889832E+03</pdfrwt>
<pdfrwt beam="2">  1       -2 0.26235201E+00 0.59889832E+03</pdfrwt>
<totfact> 0.59722710E+01</totfact>
</mgrwt>
</event>
<event>
 4    1  0.2209668E-005  0.4597500E+03  0.7818608E-02  0.1024854E+00
         -2   -1    0    0    0  501 -0.00000000000E+00  0.00000000000E+00  0.56146070181E+02  0.56146070239E+02  0.25500000000E-02 0. -1.
          2   -1    0    0  501    0  0.00000000000E+00 -0.00000000000E+00 -0.94116151596E+03  0.94116151596E+03  0.25500000000E-02 0.  1.
    5000001    1    1    2    0    0 -0.93043731846E+02  0.59774606277E+02 -0.28505653178E+03  0.35893086507E+03  0.18800000000E+03 0.  0.
   -5000001    1    1    2    0    0  0.93043731846E+02 -0.59774606277E+02 -0.59995891400E+03  0.63837672113E+03  0.18800000000E+03 0.  0.
<mgrwt>
<rscale>  0 0.45975002E+03</rscale>
<asrwt>0</asrwt>
<pdfrwt beam="1">  1        2 0.13445163E+00 0.45975002E+03</pdfrwt>
<pdfrwt beam="2">  1       -2 0.80208678E-02 0.45975002E+03</pdfrwt>
<totfact> 0.29909302E+03</totfact>
</mgrwt>
</event>
<event>
 4    1  0.2209668E-005  0.6894954E+03  0.7818608E-02  0.9735367E-01
          2   -1    0    0  501    0  0.00000000000E+00  0.00000000000E+00  0.29088141212E+03  0.29088141213E+03  0.25500000000E-02 0.  1.
         -2   -1    0    0    0  501 -0.00000000000E+00 -0.00000000000E+00 -0.40858912066E+03  0.40858912067E+03  0.25500000000E-02 0. -1.
    5000001    1    1    2    0    0  0.14215881503E+03  0.21788626368E+03 -0.18646491787E+03  0.37120980346E+03  0.18800000000E+03 0.  0.
   -5000001    1    1    2    0    0 -0.14215881503E+03 -0.21788626368E+03  0.68757209323E+02  0.32826072934E+03  0.18800000000E+03 0.  0.
<mgrwt>
<rscale>  0 0.68949541E+03</rscale>
<asrwt>0</asrwt>
<pdfrwt beam="1">  1        2 0.41554488E-01 0.68949541E+03</pdfrwt>
<pdfrwt beam="2">  1       -2 0.58369874E-01 0.68949541E+03</pdfrwt>
<totfact> 0.34183209E+02</totfact>
</mgrwt>
</event>
<event>
 4    1  0.2209668E-005  0.2029304E+04  0.7818608E-02  0.8593041E-01
          2   -1    0    0  501    0  0.00000000000E+00  0.00000000000E+00  0.16237287902E+04  0.16237287902E+04  0.25500000000E-02 0.  1.
         -2   -1    0    0    0  501 -0.00000000000E+00 -0.00000000000E+00 -0.63404626701E+03  0.63404626701E+03  0.25500000000E-02 0. -1.
    5000001    1    1    2    0    0  0.75444228503E+03 -0.52779094252E+03  0.92058337709E+03  0.13155091009E+04  0.18800000000E+03 0.  0.
   -5000001    1    1    2    0    0 -0.75444228503E+03  0.52779094252E+03  0.69099146126E+02  0.94226595632E+03  0.18800000000E+03 0.  0.
<mgrwt>
<rscale>  0 0.20293045E+04</rscale>
<asrwt>0</asrwt>
<pdfrwt beam="1">  1        2 0.23196125E+00 0.20293045E+04</pdfrwt>
<pdfrwt beam="2">  1       -2 0.90578039E-01 0.20293045E+04</pdfrwt>
<totfact> 0.12186151E+01</totfact>
</mgrwt>
</event>
<event>
 4    1  0.2209668E-005  0.4365107E+03  0.7818608E-02  0.1031823E+00
          2   -1    0    0  501    0  0.00000000000E+00  0.00000000000E+00  0.23778731907E+04  0.23778731907E+04  0.25500000000E-02 0.  1.
         -2   -1    0    0    0  501 -0.00000000000E+00 -0.00000000000E+00 -0.20032771927E+02  0.20032772090E+02  0.25500000000E-02 0. -1.
    5000001    1    1    2    0    0  0.40360056367E+02 -0.57389385132E+02  0.70735790615E+03  0.73526980290E+03  0.18800000000E+03 0.  0.
   -5000001    1    1    2    0    0 -0.40360056367E+02  0.57389385132E+02  0.16504825126E+04  0.16626361599E+04  0.18800000000E+03 0.  0.
<mgrwt>
<rscale>  0 0.43651067E+03</rscale>
<asrwt>0</asrwt>
<pdfrwt beam="1">  1        2 0.33969595E+00 0.43651067E+03</pdfrwt>
<pdfrwt beam="2">  1       -2 0.28618264E-02 0.43651067E+03</pdfrwt>
<totfact> 0.25960837E+03</totfact>
</mgrwt>
</event>
<event>
 4    1  0.2209668E-005  0.4740076E+03  0.7818608E-02  0.1020795E+00
          2   -1    0    0  501    0  0.00000000000E+00  0.00000000000E+00  0.56177383015E+03  0.56177383016E+03  0.25500000000E-02 0.  1.
         -2   -1    0    0    0  501 -0.00000000000E+00 -0.00000000000E+00 -0.99988285765E+02  0.99988285797E+02  0.25500000000E-02 0. -1.
    5000001    1    1    2    0    0 -0.11441509277E+03 -0.21149297807E+02  0.35008323648E+03  0.41405359401E+03  0.18800000000E+03 0.  0.
   -5000001    1    1    2    0    0  0.11441509277E+03  0.21149297807E+02  0.11170230791E+03  0.24770852194E+03  0.18800000000E+03 0.  0.
<mgrwt>
<rscale>  0 0.47400760E+03</rscale>
<asrwt>0</asrwt>
<pdfrwt beam="1">  1        2 0.80253404E-01 0.47400760E+03</pdfrwt>
<pdfrwt beam="2">  1       -2 0.14284041E-01 0.47400760E+03</pdfrwt>
<totfact> 0.22184202E+03</totfact>
</mgrwt>
</event>
<event>
 4    1  0.2209668E-005  0.5837059E+03  0.7818608E-02  0.9939800E-01
          2   -1    0    0  501    0  0.00000000000E+00  0.00000000000E+00  0.11947456839E+04  0.11947456839E+04  0.25500000000E-02 0.  1.
         -2   -1    0    0    0  501 -0.00000000000E+00 -0.00000000000E+00 -0.71293954187E+02  0.71293954233E+02  0.25500000000E-02 0. -1.
    5000001    1    1    2    0    0 -0.12539849322E+03 -0.12595181978E+03  0.85470123956E+03  0.89299879726E+03  0.18800000000E+03 0.  0.
   -5000001    1    1    2    0    0  0.12539849322E+03  0.12595181978E+03  0.26875049020E+03  0.37304084092E+03  0.18800000000E+03 0.  0.
<mgrwt>
<rscale>  0 0.58370590E+03</rscale>
<asrwt>0</asrwt>
<pdfrwt beam="1">  1        2 0.17067797E+00 0.58370590E+03</pdfrwt>
<pdfrwt beam="2">  1       -2 0.10184850E-01 0.58370590E+03</pdfrwt>
<totfact> 0.14449825E+03</totfact>
</mgrwt>
</event>
<event>
 4    1  0.2209668E-005  0.6137167E+03  0.7818608E-02  0.9877350E-01
         -2   -1    0    0    0  501 -0.00000000000E+00  0.00000000000E+00  0.50301895099E+02  0.50301895163E+02  0.25500000000E-02 0. -1.
          2   -1    0    0  501    0  0.00000000000E+00 -0.00000000000E+00 -0.18719381149E+04  0.18719381149E+04  0.25500000000E-02 0.  1.
    5000001    1    1    2    0    0 -0.11710744196E+03 -0.18588357117E+03 -0.12325471110E+04  0.12660107566E+04  0.18800000000E+03 0.  0.
   -5000001    1    1    2    0    0  0.11710744196E+03  0.18588357117E+03 -0.58908910878E+03  0.65622925344E+03  0.18800000000E+03 0.  0.
<mgrwt>
<rscale>  0 0.61371666E+03</rscale>
<asrwt>0</asrwt>
<pdfrwt beam="1">  1        2 0.26741969E+00 0.61371666E+03</pdfrwt>
<pdfrwt beam="2">  1       -2 0.71859862E-02 0.61371666E+03</pdfrwt>
<totfact> 0.11163760E+03</totfact>
</mgrwt>
</event>
<event>
 4    1  0.2209668E-005  0.6663498E+03  0.7818608E-02  0.9776575E-01
         -2   -1    0    0    0  501 -0.00000000000E+00  0.00000000000E+00  0.30603006688E+03  0.30603006689E+03  0.25500000000E-02 0. -1.
          2   -1    0    0  501    0  0.00000000000E+00 -0.00000000000E+00 -0.36272745339E+03  0.36272745340E+03  0.25500000000E-02 0.  1.
    5000001    1    1    2    0    0 -0.15820112575E+03 -0.96629683545E+02 -0.23229866429E+03  0.35166967649E+03  0.18800000000E+03 0.  0.
   -5000001    1    1    2    0    0  0.15820112575E+03  0.96629683545E+02  0.17560127778E+03  0.31708784380E+03  0.18800000000E+03 0.  0.
<mgrwt>
<rscale>  0 0.66634978E+03</rscale>
<asrwt>0</asrwt>
<pdfrwt beam="1">  1        2 0.51818208E-01 0.66634978E+03</pdfrwt>
<pdfrwt beam="2">  1       -2 0.43718581E-01 0.66634978E+03</pdfrwt>
<totfact> 0.48228190E+02</totfact>
</mgrwt>
</event>
<event>
 4    1  0.2209668E-005  0.4860261E+03  0.7818608E-02  0.1017492E+00
          2   -1    0    0  501    0  0.00000000000E+00  0.00000000000E+00  0.94134972431E+03  0.94134972432E+03  0.25500000000E-02 0.  1.
         -2   -1    0    0    0  501 -0.00000000000E+00 -0.00000000000E+00 -0.62734759306E+02  0.62734759357E+02  0.25500000000E-02 0. -1.
    5000001    1    1    2    0    0  0.45363113118E+02  0.13504599924E+03  0.56005462148E+03  0.60770092396E+03  0.18800000000E+03 0.  0.
   -5000001    1    1    2    0    0 -0.45363113118E+02 -0.13504599924E+03  0.31856034353E+03  0.39638355971E+03  0.18800000000E+03 0.  0.
<mgrwt>
<rscale>  0 0.48602612E+03</rscale>
<asrwt>0</asrwt>
<pdfrwt beam="1">  1        2 0.13447853E+00 0.48602612E+03</pdfrwt>
<pdfrwt beam="2">  1       -2 0.89621085E-02 0.48602612E+03</pdfrwt>
<totfact> 0.25066183E+03</totfact>
</mgrwt>
</event>
<event>
 4    1  0.2209668E-005  0.4702167E+03  0.7818608E-02  0.1021859E+00
          2   -1    0    0  501    0  0.00000000000E+00  0.00000000000E+00  0.65051201327E+03  0.65051201327E+03  0.25500000000E-02 0.  1.
         -2   -1    0    0    0  501 -0.00000000000E+00 -0.00000000000E+00 -0.84972955021E+02  0.84972955059E+02  0.25500000000E-02 0. -1.
    5000001    1    1    2    0    0  0.90956775753E+01 -0.12723542574E+03  0.18813781985E+03  0.29497698923E+03  0.18800000000E+03 0.  0.
   -5000001    1    1    2    0    0 -0.90956775753E+01  0.12723542574E+03  0.37740123839E+03  0.44050797910E+03  0.18800000000E+03 0.  0.
<mgrwt>
<rscale>  0 0.47021667E+03</rscale>
<asrwt>0</asrwt>
<pdfrwt beam="1">  1        2 0.92930282E-01 0.47021667E+03</pdfrwt>
<pdfrwt beam="2">  1       -2 0.12138994E-01 0.47021667E+03</pdfrwt>
<totfact> 0.24451439E+03</totfact>
</mgrwt>
</event>
<event>
 4    1  0.2209668E-005  0.5675576E+03  0.7818608E-02  0.9975098E-01
         -2   -1    0    0    0  501 -0.00000000000E+00  0.00000000000E+00  0.68924819484E+03  0.68924819484E+03  0.25500000000E-02 0. -1.
          2   -1    0    0  501    0  0.00000000000E+00 -0.00000000000E+00 -0.11683804225E+03  0.11683804228E+03  0.25500000000E-02 0.  1.
    5000001    1    1    2    0    0  0.12258134236E+03 -0.16989689195E+03  0.23508967612E+03  0.36674554559E+03  0.18800000000E+03 0.  0.
   -5000001    1    1    2    0    0 -0.12258134236E+03  0.16989689195E+03  0.33732047646E+03  0.43934069153E+03  0.18800000000E+03 0.  0.
<mgrwt>
<rscale>  0 0.56755761E+03</rscale>
<asrwt>0</asrwt>
<pdfrwt beam="1">  1        2 0.16691149E-01 0.56755761E+03</pdfrwt>
<pdfrwt beam="2">  1       -2 0.98464026E-01 0.56755761E+03</pdfrwt>
<totfact> 0.30538643E+02</totfact>
</mgrwt>
</event>
<event>
 4    1  0.2209668E-005  0.7519382E+03  0.7818608E-02  0.9632315E-01
          2   -1    0    0  501    0  0.00000000000E+00  0.00000000000E+00  0.27555570136E+03  0.27555570137E+03  0.25500000000E-02 0.  1.
         -2   -1    0    0    0  501 -0.00000000000E+00 -0.00000000000E+00 -0.51297341674E+03  0.51297341675E+03  0.25500000000E-02 0. -1.
    5000001    1    1    2    0    0 -0.10410689925E+03 -0.17484761294E+03  0.14782223892E+03  0.31401488586E+03  0.18800000000E+03 0.  0.
   -5000001    1    1    2    0    0  0.10410689925E+03  0.17484761294E+03 -0.38523995430E+03  0.47451423225E+03  0.18800000000E+03 0.  0.
<mgrwt>
<rscale>  0 0.75193816E+03</rscale>
<asrwt>0</asrwt>
<pdfrwt beam="1">  1        2 0.39365101E-01 0.75193816E+03</pdfrwt>
<pdfrwt beam="2">  1       -2 0.73281916E-01 0.75193816E+03</pdfrwt>
<totfact> 0.22226414E+02</totfact>
</mgrwt>
</event>
<event>
 4    1  0.2209668E-005  0.4947132E+03  0.7818608E-02  0.1015168E+00
         -2   -1    0    0    0  501 -0.00000000000E+00  0.00000000000E+00  0.53051559956E+03  0.53051559957E+03  0.25500000000E-02 0. -1.
          2   -1    0    0  501    0  0.00000000000E+00 -0.00000000000E+00 -0.11533174108E+03  0.11533174111E+03  0.25500000000E-02 0.  1.
    5000001    1    1    2    0    0 -0.15880460229E+03  0.20743196765E+02  0.18949742528E+03  0.31129159338E+03  0.18800000000E+03 0.  0.
   -5000001    1    1    2    0    0  0.15880460229E+03 -0.20743196765E+02  0.22568643320E+03  0.33455574730E+03  0.18800000000E+03 0.  0.
<mgrwt>
<rscale>  0 0.49471320E+03</rscale>
<asrwt>0</asrwt>
<pdfrwt beam="1">  1        2 0.16475963E-01 0.49471320E+03</pdfrwt>
<pdfrwt beam="2">  1       -2 0.75787943E-01 0.49471320E+03</pdfrwt>
<totfact> 0.56276942E+02</totfact>
</mgrwt>
</event>
<event>
 4    1  0.2209668E-005  0.4607065E+03  0.7818608E-02  0.1024577E+00
         -2   -1    0    0    0  501 -0.00000000000E+00  0.00000000000E+00  0.32907809543E+02  0.32907809641E+02  0.25500000000E-02 0. -1.
          2   -1    0    0  501    0  0.00000000000E+00 -0.00000000000E+00 -0.16124625023E+04  0.16124625023E+04  0.25500000000E-02 0.  1.
    5000001    1    1    2    0    0 -0.10239353528E+03 -0.25807183572E+02 -0.10792191770E+04  0.11005491714E+04  0.18800000000E+03 0.  0.
   -5000001    1    1    2    0    0  0.10239353528E+03  0.25807183572E+02 -0.50033551576E+03  0.54482114049E+03  0.18800000000E+03 0.  0.
<mgrwt>
<rscale>  0 0.46070645E+03</rscale>
<asrwt>0</asrwt>
<pdfrwt beam="1">  1        2 0.23035174E+00 0.46070645E+03</pdfrwt>
<pdfrwt beam="2">  1       -2 0.47011167E-02 0.46070645E+03</pdfrwt>
<totfact> 0.29420903E+03</totfact>
</mgrwt>
</event>
<event>
 4    1  0.2209668E-005  0.4942327E+03  0.7818608E-02  0.1015295E+00
         -2   -1    0    0    0  501 -0.00000000000E+00  0.00000000000E+00  0.11949500166E+03  0.11949500169E+03  0.25500000000E-02 0. -1.
          2   -1    0    0  501    0  0.00000000000E+00 -0.00000000000E+00 -0.51103800514E+03  0.51103800514E+03  0.25500000000E-02 0.  1.
    5000001    1    1    2    0    0 -0.98925980038E+02  0.11529314481E+03 -0.26136738354E+03  0.35599967408E+03  0.18800000000E+03 0.  0.
   -5000001    1    1    2    0    0  0.98925980038E+02 -0.11529314481E+03 -0.13017561994E+03  0.27453333275E+03  0.18800000000E+03 0.  0.
<mgrwt>
<rscale>  0 0.49423269E+03</rscale>
<asrwt>0</asrwt>
<pdfrwt beam="1">  1        2 0.73005428E-01 0.49423269E+03</pdfrwt>
<pdfrwt beam="2">  1       -2 0.17070715E-01 0.49423269E+03</pdfrwt>
<totfact> 0.18318383E+03</totfact>
</mgrwt>
</event>
<event>
 4    1  0.2209668E-005  0.6060201E+03  0.7818608E-02  0.9892994E-01
         -2   -1    0    0    0  501 -0.00000000000E+00  0.00000000000E+00  0.58960687160E+02  0.58960687215E+02  0.25500000000E-02 0. -1.
          2   -1    0    0  501    0  0.00000000000E+00 -0.00000000000E+00 -0.15572254897E+04  0.15572254897E+04  0.25500000000E-02 0.  1.
    5000001    1    1    2    0    0  0.14431164358E+03 -0.18092090525E+03 -0.89306667448E+03  0.94152552249E+03  0.18800000000E+03 0.  0.
   -5000001    1    1    2    0    0 -0.14431164358E+03  0.18092090525E+03 -0.60519812807E+03  0.67466065444E+03  0.18800000000E+03 0.  0.
<mgrwt>
<rscale>  0 0.60602008E+03</rscale>
<asrwt>0</asrwt>
<pdfrwt beam="1">  1        2 0.22246076E+00 0.60602008E+03</pdfrwt>
<pdfrwt beam="2">  1       -2 0.84229563E-02 0.60602008E+03</pdfrwt>
<totfact> 0.12541990E+03</totfact>
</mgrwt>
</event>
<event>
 4    1  0.2209668E-005  0.6419013E+03  0.7818608E-02  0.9822096E-01
          2   -1    0    0  501    0  0.00000000000E+00  0.00000000000E+00  0.98364192741E+03  0.98364192741E+03  0.25500000000E-02 0.  1.
         -2   -1    0    0    0  501 -0.00000000000E+00 -0.00000000000E+00 -0.10472236364E+03  0.10472236368E+03  0.25500000000E-02 0. -1.
    5000001    1    1    2    0    0 -0.21781627305E+03 -0.14198369725E+03  0.42610822761E+03  0.53339996319E+03  0.18800000000E+03 0.  0.
   -5000001    1    1    2    0    0  0.21781627305E+03  0.14198369725E+03  0.45281133616E+03  0.55496432790E+03  0.18800000000E+03 0.  0.
<mgrwt>
<rscale>  0 0.64190126E+03</rscale>
<asrwt>0</asrwt>
<pdfrwt beam="1">  1        2 0.14052028E+00 0.64190126E+03</pdfrwt>
<pdfrwt beam="2">  1       -2 0.14960337E-01 0.64190126E+03</pdfrwt>
<totfact> 0.10163748E+03</totfact>
</mgrwt>
</event>
<event>
 4    1  0.2209668E-005  0.4716099E+03  0.7818608E-02  0.1021467E+00
         -2   -1    0    0    0  501 -0.00000000000E+00  0.00000000000E+00  0.36804963154E+02  0.36804963243E+02  0.25500000000E-02 0. -1.
          2   -1    0    0  501    0  0.00000000000E+00 -0.00000000000E+00 -0.15107735358E+04  0.15107735358E+04  0.25500000000E-02 0.  1.
    5000001    1    1    2    0    0  0.12843378829E+03  0.55001655768E+02 -0.82622271271E+03  0.85878308735E+03  0.18800000000E+03 0.  0.
   -5000001    1    1    2    0    0 -0.12843378829E+03 -0.55001655768E+02 -0.64774585989E+03  0.68879541166E+03  0.18800000000E+03 0.  0.
<mgrwt>
<rscale>  0 0.47160986E+03</rscale>
<asrwt>0</asrwt>
<pdfrwt beam="1">  1        2 0.21582475E+00 0.47160986E+03</pdfrwt>
<pdfrwt beam="2">  1       -2 0.52578528E-02 0.47160986E+03</pdfrwt>
<totfact> 0.27904827E+03</totfact>
</mgrwt>
</event>
<event>
 4    1  0.2209668E-005  0.5070246E+03  0.7818608E-02  0.1011961E+00
          2   -1    0    0  501    0  0.00000000000E+00  0.00000000000E+00  0.16031258179E+03  0.16031258181E+03  0.25500000000E-02 0.  1.
         -2   -1    0    0    0  501 -0.00000000000E+00 -0.00000000000E+00 -0.40089480503E+03  0.40089480503E+03  0.25500000000E-02 0. -1.
    5000001    1    1    2    0    0  0.87458908815E+02 -0.14492114038E+03 -0.13858900629E+03  0.28844776013E+03  0.18800000000E+03 0.  0.
   -5000001    1    1    2    0    0 -0.87458908815E+02  0.14492114038E+03 -0.10199321695E+03  0.27275962671E+03  0.18800000000E+03 0.  0.
<mgrwt>
<rscale>  0 0.50702458E+03</rscale>
<asrwt>0</asrwt>
<pdfrwt beam="1">  1        2 0.22901798E-01 0.50702458E+03</pdfrwt>
<pdfrwt beam="2">  1       -2 0.57270686E-01 0.50702458E+03</pdfrwt>
<totfact> 0.69688403E+02</totfact>
</mgrwt>
</event>
<event>
 4    1  0.2209668E-005  0.6537593E+03  0.7818608E-02  0.9799751E-01
         -2   -1    0    0    0  501 -0.00000000000E+00  0.00000000000E+00  0.19151831082E+03  0.19151831084E+03  0.25500000000E-02 0. -1.
          2   -1    0    0  501    0  0.00000000000E+00 -0.00000000000E+00 -0.55791176298E+03  0.55791176299E+03  0.25500000000E-02 0.  1.
    5000001    1    1    2    0    0  0.22554818445E+03  0.14247493943E+03 -0.16220817652E+03  0.36445381656E+03  0.18800000000E+03 0.  0.
   -5000001    1    1    2    0    0 -0.22554818445E+03 -0.14247493943E+03 -0.20418527564E+03  0.38497625727E+03  0.18800000000E+03 0.  0.
<mgrwt>
<rscale>  0 0.65375934E+03</rscale>
<asrwt>0</asrwt>
<pdfrwt beam="1">  1        2 0.79701680E-01 0.65375934E+03</pdfrwt>
<pdfrwt beam="2">  1       -2 0.27359759E-01 0.65375934E+03</pdfrwt>
<totfact> 0.72159024E+02</totfact>
</mgrwt>
</event>
<event>
 4    1  0.2209668E-005  0.6825049E+03  0.7818608E-02  0.9747628E-01
          2   -1    0    0  501    0  0.00000000000E+00  0.00000000000E+00  0.17156843194E+04  0.17156843194E+04  0.25500000000E-02 0.  1.
         -2   -1    0    0    0  501 -0.00000000000E+00 -0.00000000000E+00 -0.67875682810E+02  0.67875682858E+02  0.25500000000E-02 0. -1.
    5000001    1    1    2    0    0  0.68309563343E+02 -0.53720072630E+02  0.11515193454E+03  0.23697259478E+03  0.18800000000E+03 0.  0.
   -5000001    1    1    2    0    0 -0.68309563343E+02  0.53720072630E+02  0.15326567021E+04  0.15465874075E+04  0.18800000000E+03 0.  0.
<mgrwt>
<rscale>  0 0.68250493E+03</rscale>
<asrwt>0</asrwt>
<pdfrwt beam="1">  1        2 0.24509779E+00 0.68250493E+03</pdfrwt>
<pdfrwt beam="2">  1       -2 0.96965250E-02 0.68250493E+03</pdfrwt>
<totfact> 0.82614973E+02</totfact>
</mgrwt>
</event>
<event>
 4    1  0.2209668E-005  0.1126289E+04  0.7818608E-02  0.9179941E-01
         -2   -1    0    0    0  501 -0.00000000000E+00  0.00000000000E+00  0.22784874383E+03  0.22784874385E+03  0.25500000000E-02 0. -1.
          2   -1    0    0  501    0  0.00000000000E+00 -0.00000000000E+00 -0.13918524094E+04  0.13918524094E+04  0.25500000000E-02 0.  1.
    5000001    1    1    2    0    0 -0.38764944861E+03 -0.21198185535E+03 -0.10051498620E+04  0.11139473269E+04  0.18800000000E+03 0.  0.
   -5000001    1    1    2    0    0  0.38764944861E+03  0.21198185535E+03 -0.15885380362E+03  0.50575382641E+03  0.18800000000E+03 0.  0.
<mgrwt>
<rscale>  0 0.11262892E+04</rscale>
<asrwt>0</asrwt>
<pdfrwt beam="1">  1        2 0.19883605E+00 0.11262892E+04</pdfrwt>
<pdfrwt beam="2">  1       -2 0.32549821E-01 0.11262892E+04</pdfrwt>
<totfact> 0.14551773E+02</totfact>
</mgrwt>
</event>
<event>
 4    1  0.2209668E-005  0.4306553E+03  0.7818608E-02  0.1033653E+00
         -2   -1    0    0    0  501 -0.00000000000E+00  0.00000000000E+00  0.70109671345E+03  0.70109671346E+03  0.25500000000E-02 0. -1.
          2   -1    0    0  501    0  0.00000000000E+00 -0.00000000000E+00 -0.66133515442E+02  0.66133515491E+02  0.25500000000E-02 0.  1.
    5000001    1    1    2    0    0  0.48073052868E+02  0.57517758223E+02  0.18653309562E+03  0.27524154244E+03  0.18800000000E+03 0.  0.
   -5000001    1    1    2    0    0 -0.48073052868E+02 -0.57517758223E+02  0.44843010239E+03  0.49198868651E+03  0.18800000000E+03 0.  0.
<mgrwt>
<rscale>  0 0.43065527E+03</rscale>
<asrwt>0</asrwt>
<pdfrwt beam="1">  1        2 0.94476452E-02 0.43065527E+03</pdfrwt>
<pdfrwt beam="2">  1       -2 0.10015667E+00 0.43065527E+03</pdfrwt>
<totfact> 0.59217774E+02</totfact>
</mgrwt>
</event>
<event>
 4    1  0.2209668E-005  0.6109811E+03  0.7818608E-02  0.9882882E-01
         -2   -1    0    0    0  501 -0.00000000000E+00  0.00000000000E+00  0.70957035058E+02  0.70957035103E+02  0.25500000000E-02 0. -1.
          2   -1    0    0  501    0  0.00000000000E+00 -0.00000000000E+00 -0.13152249722E+04  0.13152249722E+04  0.25500000000E-02 0.  1.
    5000001    1    1    2    0    0  0.15222096581E+03  0.52919507096E+02 -0.10280413852E+04  0.10574425688E+04  0.18800000000E+03 0.  0.
   -5000001    1    1    2    0    0 -0.15222096581E+03 -0.52919507096E+02 -0.21622655199E+03  0.32873943854E+03  0.18800000000E+03 0.  0.
<mgrwt>
<rscale>  0 0.61098106E+03</rscale>
<asrwt>0</asrwt>
<pdfrwt beam="1">  1        2 0.18788927E+00 0.61098106E+03</pdfrwt>
<pdfrwt beam="2">  1       -2 0.10136720E-01 0.61098106E+03</pdfrwt>
<totfact> 0.12487984E+03</totfact>
</mgrwt>
</event>
<event>
 4    1  0.2209668E-005  0.7410968E+03  0.7818608E-02  0.9649422E-01
          2   -1    0    0  501    0  0.00000000000E+00  0.00000000000E+00  0.75840515339E+02  0.75840515382E+02  0.25500000000E-02 0.  1.
         -2   -1    0    0    0  501 -0.00000000000E+00 -0.00000000000E+00 -0.18104586893E+04  0.18104586893E+04  0.25500000000E-02 0. -1.
    5000001    1    1    2    0    0 -0.19556533779E+03  0.14723776946E+03 -0.13891682876E+04  0.14230450778E+04  0.18800000000E+03 0.  0.
   -5000001    1    1    2    0    0  0.19556533779E+03 -0.14723776946E+03 -0.34544988631E+03  0.46325412686E+03  0.18800000000E+03 0.  0.
<mgrwt>
<rscale>  0 0.74109681E+03</rscale>
<asrwt>0</asrwt>
<pdfrwt beam="1">  1        2 0.10834360E-01 0.74109681E+03</pdfrwt>
<pdfrwt beam="2">  1       -2 0.25863693E+00 0.74109681E+03</pdfrwt>
<totfact> 0.35212587E+01</totfact>
</mgrwt>
</event>
<event>
 4    1  0.2209668E-005  0.1856147E+04  0.7818608E-02  0.8676998E-01
          2   -1    0    0  501    0  0.00000000000E+00  0.00000000000E+00  0.34071901593E+04  0.34071901593E+04  0.25500000000E-02 0. -1.
         -2   -1    0    0    0  501 -0.00000000000E+00 -0.00000000000E+00 -0.25279489585E+03  0.25279489586E+03  0.25500000000E-02 0.  1.
    5000001    1    1    2    0    0 -0.80968036148E+03 -0.14775772239E+03  0.23372094322E+04  0.24850164109E+04  0.18800000000E+03 0.  0.
   -5000001    1    1    2    0    0  0.80968036148E+03  0.14775772239E+03  0.81718583122E+03  0.11749686443E+04  0.18800000000E+03 0.  0.
<mgrwt>
<rscale>  0 0.18561468E+04</rscale>
<asrwt>0</asrwt>
<pdfrwt beam="1">  1        2 0.48674141E+00 0.18561468E+04</pdfrwt>
<pdfrwt beam="2">  1       -2 0.36113560E-01 0.18561468E+04</pdfrwt>
<totfact> 0.93445173E+00</totfact>
</mgrwt>
</event>
<event>
 4    1  0.2209668E-005  0.5434055E+03  0.7818608E-02  0.1003032E+00
         -2   -1    0    0    0  501 -0.00000000000E+00  0.00000000000E+00  0.19450143435E+03  0.19450143437E+03  0.25500000000E-02 0. -1.
          2   -1    0    0  501    0  0.00000000000E+00 -0.00000000000E+00 -0.37954670240E+03  0.37954670241E+03  0.25500000000E-02 0.  1.
    5000001    1    1    2    0    0  0.19502863360E+03 -0.20305239822E+02 -0.98299777908E+02  0.28888633928E+03  0.18800000000E+03 0.  0.
   -5000001    1    1    2    0    0 -0.19502863360E+03  0.20305239822E+02 -0.86745490139E+02  0.28516179749E+03  0.18800000000E+03 0.  0.
<mgrwt>
<rscale>  0 0.54340548E+03</rscale>
<asrwt>0</asrwt>
<pdfrwt beam="1">  1        2 0.54220957E-01 0.54340548E+03</pdfrwt>
<pdfrwt beam="2">  1       -2 0.27785920E-01 0.54340548E+03</pdfrwt>
<totfact> 0.10849014E+03</totfact>
</mgrwt>
</event>
<event>
 4    1  0.2209668E-005  0.8454854E+03  0.7818608E-02  0.9496416E-01
         -2   -1    0    0    0  501 -0.00000000000E+00  0.00000000000E+00  0.13305678472E+03  0.13305678474E+03  0.25500000000E-02 0. -1.
          2   -1    0    0  501    0  0.00000000000E+00 -0.00000000000E+00 -0.13431212008E+04  0.13431212008E+04  0.25500000000E-02 0.  1.
    5000001    1    1    2    0    0  0.29778093803E+03 -0.20920904506E+03 -0.42253643255E+03  0.58849209716E+03  0.18800000000E+03 0.  0.
   -5000001    1    1    2    0    0 -0.29778093803E+03  0.20920904506E+03 -0.78752798349E+03  0.88768588835E+03  0.18800000000E+03 0.  0.
<mgrwt>
<rscale>  0 0.84548540E+03</rscale>
<asrwt>0</asrwt>
<pdfrwt beam="1">  1        2 0.19187445E+00 0.84548540E+03</pdfrwt>
<pdfrwt beam="2">  1       -2 0.19008113E-01 0.84548540E+03</pdfrwt>
<totfact> 0.41590298E+02</totfact>
</mgrwt>
</event>
<event>
 4    1  0.2209668E-005  0.4150889E+03  0.7818608E-02  0.1038677E+00
         -2   -1    0    0    0  501 -0.00000000000E+00  0.00000000000E+00  0.36144343235E+03  0.36144343236E+03  0.25500000000E-02 0. -1.
          2   -1    0    0  501    0  0.00000000000E+00 -0.00000000000E+00 -0.11917410706E+03  0.11917410709E+03  0.25500000000E-02 0.  1.
    5000001    1    1    2    0    0 -0.81844386244E+02  0.21644137226E+02  0.14862579063E+03  0.25416647670E+03  0.18800000000E+03 0.  0.
   -5000001    1    1    2    0    0  0.81844386244E+02 -0.21644137226E+02  0.93643534658E+02  0.22645106275E+03  0.18800000000E+03 0.  0.
<mgrwt>
<rscale>  0 0.41508890E+03</rscale>
<asrwt>0</asrwt>
<pdfrwt beam="1">  1        2 0.17024873E-01 0.41508890E+03</pdfrwt>
<pdfrwt beam="2">  1       -2 0.51634776E-01 0.41508890E+03</pdfrwt>
<totfact> 0.12166559E+03</totfact>
</mgrwt>
</event>
<event>
 4    1  0.2209668E-005  0.6188496E+03  0.7818608E-02  0.9867053E-01
         -2   -1    0    0    0  501 -0.00000000000E+00  0.00000000000E+00  0.39756963561E+02  0.39756963643E+02  0.25500000000E-02 0. -1.
          2   -1    0    0  501    0  0.00000000000E+00 -0.00000000000E+00 -0.24082246066E+04  0.24082246066E+04  0.25500000000E-02 0.  1.
    5000001    1    1    2    0    0 -0.19027504709E+03  0.10463365814E+03 -0.16395155403E+04  0.16644843054E+04  0.18800000000E+03 0.  0.
   -5000001    1    1    2    0    0  0.19027504709E+03 -0.10463365814E+03 -0.72895210267E+03  0.78349726480E+03  0.18800000000E+03 0.  0.
<mgrwt>
<rscale>  0 0.61884957E+03</rscale>
<asrwt>0</asrwt>
<pdfrwt beam="1">  1        2 0.34403199E+00 0.61884957E+03</pdfrwt>
<pdfrwt beam="2">  1       -2 0.56795677E-02 0.61884957E+03</pdfrwt>
<totfact> 0.86655043E+02</totfact>
</mgrwt>
</event>
<event>
 4    1  0.2209668E-005  0.8514489E+03  0.7818608E-02  0.9488394E-01
         -2   -1    0    0    0  501 -0.00000000000E+00  0.00000000000E+00  0.96380299883E+02  0.96380299916E+02  0.25500000000E-02 0. -1.
          2   -1    0    0  501    0  0.00000000000E+00 -0.00000000000E+00 -0.18804806457E+04  0.18804806457E+04  0.25500000000E-02 0.  1.
    5000001    1    1    2    0    0  0.29536330565E+03  0.23344157875E+03 -0.10418503008E+04  0.11236238260E+04  0.18800000000E+03 0.  0.
   -5000001    1    1    2    0    0 -0.29536330565E+03 -0.23344157875E+03 -0.74225004500E+03  0.85323711963E+03  0.18800000000E+03 0.  0.
<mgrwt>
<rscale>  0 0.85144886E+03</rscale>
<asrwt>0</asrwt>
<pdfrwt beam="1">  1        2 0.26864007E+00 0.85144886E+03</pdfrwt>
<pdfrwt beam="2">  1       -2 0.13768615E-01 0.85144886E+03</pdfrwt>
<totfact> 0.37827701E+02</totfact>
</mgrwt>
</event>
<event>
 4    1  0.2209668E-005  0.6428717E+03  0.7818608E-02  0.9820248E-01
         -2   -1    0    0    0  501 -0.00000000000E+00  0.00000000000E+00  0.65821573740E+02  0.65821573790E+02  0.25500000000E-02 0. -1.
          2   -1    0    0  501    0  0.00000000000E+00 -0.00000000000E+00 -0.15697133569E+04  0.15697133569E+04  0.25500000000E-02 0.  1.
    5000001    1    1    2    0    0  0.34396538844E+02  0.18481851645E+03 -0.12115500683E+04  0.12403783995E+04  0.18800000000E+03 0.  0.
   -5000001    1    1    2    0    0 -0.34396538844E+02 -0.18481851645E+03 -0.29234171485E+03  0.39515653120E+03  0.18800000000E+03 0.  0.
<mgrwt>
<rscale>  0 0.64287169E+03</rscale>
<asrwt>0</asrwt>
<pdfrwt beam="1">  1        2 0.22424474E+00 0.64287169E+03</pdfrwt>
<pdfrwt beam="2">  1       -2 0.94030829E-02 0.64287169E+03</pdfrwt>
<totfact> 0.10337236E+03</totfact>
</mgrwt>
</event>
<event>
 4    1  0.2209668E-005  0.4590833E+03  0.7818608E-02  0.1025047E+00
          2   -1    0    0  501    0  0.00000000000E+00  0.00000000000E+00  0.10444556565E+04  0.10444556565E+04  0.25500000000E-02 0.  1.
         -2   -1    0    0    0  501 -0.00000000000E+00 -0.00000000000E+00 -0.50446715773E+02  0.50446715837E+02  0.25500000000E-02 0. -1.
    5000001    1    1    2    0    0  0.26896775869E+02  0.34798428122E+02  0.20093118305E+03  0.27866055960E+03  0.18800000000E+03 0.  0.
   -5000001    1    1    2    0    0 -0.26896775869E+02 -0.34798428122E+02  0.79307775768E+03  0.81624181275E+03  0.18800000000E+03 0.  0.
<mgrwt>
<rscale>  0 0.45908325E+03</rscale>
<asrwt>0</asrwt>
<pdfrwt beam="1">  1        2 0.14920794E+00 0.45908325E+03</pdfrwt>
<pdfrwt beam="2">  1       -2 0.72066744E-02 0.45908325E+03</pdfrwt>
<totfact> 0.30662094E+03</totfact>
</mgrwt>
</event>
<event>
 4    1  0.2209668E-005  0.5029931E+03  0.7818608E-02  0.1013001E+00
          2   -1    0    0  501    0  0.00000000000E+00  0.00000000000E+00  0.11758019903E+04  0.11758019903E+04  0.25500000000E-02 0.  1.
         -2   -1    0    0    0  501 -0.00000000000E+00 -0.00000000000E+00 -0.53793501943E+02  0.53793502004E+02  0.25500000000E-02 0. -1.
    5000001    1    1    2    0    0  0.74685631007E+02  0.14919328860E+03  0.54056244418E+03  0.59614456040E+03  0.18800000000E+03 0.  0.
   -5000001    1    1    2    0    0 -0.74685631007E+02 -0.14919328860E+03  0.58144604421E+03  0.63345093193E+03  0.18800000000E+03 0.  0.
<mgrwt>
<rscale>  0 0.50299307E+03</rscale>
<asrwt>0</asrwt>
<pdfrwt beam="1">  1        2 0.16797170E+00 0.50299307E+03</pdfrwt>
<pdfrwt beam="2">  1       -2 0.76847867E-02 0.50299307E+03</pdfrwt>
<totfact> 0.23284029E+03</totfact>
</mgrwt>
</event>
<event>
 4    1  0.2209668E-005  0.4071794E+03  0.7818608E-02  0.1041322E+00
         -2   -1    0    0    0  501 -0.00000000000E+00  0.00000000000E+00  0.81625761478E+02  0.81625761518E+02  0.25500000000E-02 0. -1.
          2   -1    0    0  501    0  0.00000000000E+00 -0.00000000000E+00 -0.50779016465E+03  0.50779016466E+03  0.25500000000E-02 0.  1.
    5000001    1    1    2    0    0  0.72172302076E+02  0.29843964415E+02 -0.20976369924E+03  0.29230859193E+03  0.18800000000E+03 0.  0.
   -5000001    1    1    2    0    0 -0.72172302076E+02 -0.29843964415E+02 -0.21640070394E+03  0.29710733425E+03  0.18800000000E+03 0.  0.
<mgrwt>
<rscale>  0 0.40717937E+03</rscale>
<asrwt>0</asrwt>
<pdfrwt beam="1">  1        2 0.72541450E-01 0.40717937E+03</pdfrwt>
<pdfrwt beam="2">  1       -2 0.11660823E-01 0.40717937E+03</pdfrwt>
<totfact> 0.34694491E+03</totfact>
</mgrwt>
</event>
<event>
 4    1  0.2209668E-005  0.4434798E+03  0.7818608E-02  0.1029684E+00
         -2   -1    0    0    0  501 -0.00000000000E+00  0.00000000000E+00  0.38380833722E+03  0.38380833722E+03  0.25500000000E-02 0. -1.
          2   -1    0    0  501    0  0.00000000000E+00 -0.00000000000E+00 -0.12810715418E+03  0.12810715420E+03  0.25500000000E-02 0.  1.
    5000001    1    1    2    0    0 -0.84397018729E+02  0.75359219436E+02  0.16476567398E+03  0.27439678578E+03  0.18800000000E+03 0.  0.
   -5000001    1    1    2    0    0  0.84397018729E+02 -0.75359219436E+02  0.90935509053E+02  0.23751870564E+03  0.18800000000E+03 0.  0.
<mgrwt>
<rscale>  0 0.44347985E+03</rscale>
<asrwt>0</asrwt>
<pdfrwt beam="1">  1        2 0.18301022E-01 0.44347985E+03</pdfrwt>
<pdfrwt beam="2">  1       -2 0.54829762E-01 0.44347985E+03</pdfrwt>
<totfact> 0.98900018E+02</totfact>
</mgrwt>
</event>
<event>
 4    1  0.2209668E-005  0.5487536E+03  0.7818608E-02  0.1001783E+00
          2   -1    0    0  501    0  0.00000000000E+00  0.00000000000E+00  0.15503936898E+03  0.15503936901E+03  0.25500000000E-02 0. -1.
         -2   -1    0    0    0  501 -0.00000000000E+00 -0.00000000000E+00 -0.48557112904E+03  0.48557112904E+03  0.25500000000E-02 0.  1.
    5000001    1    1    2    0    0 -0.18785581635E+03  0.36326277940E+02 -0.23262383189E+03  0.35505950680E+03  0.18800000000E+03 0.  0.
   -5000001    1    1    2    0    0  0.18785581635E+03 -0.36326277940E+02 -0.97907928165E+02  0.28555099125E+03  0.18800000000E+03 0.  0.
<mgrwt>
<rscale>  0 0.54875365E+03</rscale>
<asrwt>0</asrwt>
<pdfrwt beam="1">  1        2 0.22148482E-01 0.54875365E+03</pdfrwt>
<pdfrwt beam="2">  1       -2 0.69367303E-01 0.54875365E+03</pdfrwt>
<totfact> 0.48227817E+02</totfact>
</mgrwt>
</event>
<event>
 4    1  0.2209668E-005  0.4688758E+03  0.7818608E-02  0.1022238E+00
          2   -1    0    0  501    0  0.00000000000E+00  0.00000000000E+00  0.41580978946E+03  0.41580978947E+03  0.25500000000E-02 0.  1.
         -2   -1    0    0    0  501 -0.00000000000E+00 -0.00000000000E+00 -0.13217854248E+03  0.13217854251E+03  0.25500000000E-02 0. -1.
    5000001    1    1    2    0    0 -0.13684645553E+03  0.29827675819E+02  0.14263314438E+03  0.27441730359E+03  0.18800000000E+03 0.  0.
   -5000001    1    1    2    0    0  0.13684645553E+03 -0.29827675819E+02  0.14099810260E+03  0.27357102839E+03  0.18800000000E+03 0.  0.
<mgrwt>
<rscale>  0 0.46887581E+03</rscale>
<asrwt>0</asrwt>
<pdfrwt beam="1">  1        2 0.59401398E-01 0.46887581E+03</pdfrwt>
<pdfrwt beam="2">  1       -2 0.18882649E-01 0.46887581E+03</pdfrwt>
<totfact> 0.19408716E+03</totfact>
</mgrwt>
</event>
<event>
 4    1  0.2209668E-005  0.4710221E+03  0.7818608E-02  0.1021632E+00
          2   -1    0    0  501    0  0.00000000000E+00  0.00000000000E+00  0.21074495149E+04  0.21074495149E+04  0.25500000000E-02 0.  1.
         -2   -1    0    0    0  501 -0.00000000000E+00 -0.00000000000E+00 -0.26318757809E+02  0.26318757933E+02  0.25500000000E-02 0. -1.
    5000001    1    1    2    0    0 -0.67785310597E+02  0.50446107947E+02  0.52441844318E+03  0.56346992971E+03  0.18800000000E+03 0.  0.
   -5000001    1    1    2    0    0  0.67785310597E+02 -0.50446107947E+02  0.15567123140E+04  0.15702983432E+04  0.18800000000E+03 0.  0.
<mgrwt>
<rscale>  0 0.47102210E+03</rscale>
<asrwt>0</asrwt>
<pdfrwt beam="1">  1        2 0.30106424E+00 0.47102210E+03</pdfrwt>
<pdfrwt beam="2">  1       -2 0.37598223E-02 0.47102210E+03</pdfrwt>
<totfact> 0.23405928E+03</totfact>
</mgrwt>
</event>
<event>
 4    1  0.2209668E-005  0.4230774E+03  0.7818608E-02  0.1036069E+00
          2   -1    0    0  501    0  0.00000000000E+00  0.00000000000E+00  0.26330736310E+04  0.26330736310E+04  0.25500000000E-02 0.  1.
         -2   -1    0    0    0  501 -0.00000000000E+00 -0.00000000000E+00 -0.16994825402E+02  0.16994825594E+02  0.25500000000E-02 0. -1.
    5000001    1    1    2    0    0 -0.65255085787E+02  0.37598811375E+02  0.16907324145E+04  0.17028188378E+04  0.18800000000E+03 0.  0.
   -5000001    1    1    2    0    0  0.65255085787E+02 -0.37598811375E+02  0.92534639109E+03  0.94724961881E+03  0.18800000000E+03 0.  0.
<mgrwt>
<rscale>  0 0.42307742E+03</rscale>
<asrwt>0</asrwt>
<pdfrwt beam="1">  1        2 0.37615341E+00 0.42307742E+03</pdfrwt>
<pdfrwt beam="2">  1       -2 0.24278320E-02 0.42307742E+03</pdfrwt>
<totfact> 0.24677328E+03</totfact>
</mgrwt>
</event>
<event>
 4    1  0.2209668E-005  0.8684524E+03  0.7818608E-02  0.9465900E-01
          2   -1    0    0  501    0  0.00000000000E+00  0.00000000000E+00  0.19220414509E+04  0.19220414509E+04  0.25500000000E-02 0.  1.
         -2   -1    0    0    0  501 -0.00000000000E+00 -0.00000000000E+00 -0.98100074928E+02  0.98100074961E+02  0.25500000000E-02 0. -1.
    5000001    1    1    2    0    0  0.34956608140E+03  0.39489736534E+01  0.50243554120E+03  0.64031048150E+03  0.18800000000E+03 0.  0.
   -5000001    1    1    2    0    0 -0.34956608140E+03 -0.39489736534E+01  0.13215058348E+04  0.13798310444E+04  0.18800000000E+03 0.  0.
<mgrwt>
<rscale>  0 0.86845244E+03</rscale>
<asrwt>0</asrwt>
<pdfrwt beam="1">  1        2 0.27457734E+00 0.86845244E+03</pdfrwt>
<pdfrwt beam="2">  1       -2 0.14014297E-01 0.86845244E+03</pdfrwt>
<totfact> 0.34936135E+02</totfact>
</mgrwt>
</event>
<event>
 4    1  0.2209668E-005  0.7166214E+03  0.7818608E-02  0.9689222E-01
          2   -1    0    0  501    0  0.00000000000E+00  0.00000000000E+00  0.19038581374E+03  0.19038581376E+03  0.25500000000E-02 0.  1.
         -2   -1    0    0    0  501 -0.00000000000E+00 -0.00000000000E+00 -0.67434944656E+03  0.67434944656E+03  0.25500000000E-02 0. -1.
    5000001    1    1    2    0    0 -0.30066578929E+03  0.51307408834E+02 -0.23812777217E+03  0.43021064948E+03  0.18800000000E+03 0.  0.
   -5000001    1    1    2    0    0  0.30066578929E+03 -0.51307408834E+02 -0.24583586065E+03  0.43452461084E+03  0.18800000000E+03 0.  0.
<mgrwt>
<rscale>  0 0.71662143E+03</rscale>
<asrwt>0</asrwt>
<pdfrwt beam="1">  1        2 0.27197974E-01 0.71662143E+03</pdfrwt>
<pdfrwt beam="2">  1       -2 0.96335634E-01 0.71662143E+03</pdfrwt>
<totfact> 0.18118791E+02</totfact>
</mgrwt>
</event>
<event>
 4    1  0.2209668E-005  0.4526832E+03  0.7818608E-02  0.1026925E+00
          2   -1    0    0  501    0  0.00000000000E+00  0.00000000000E+00  0.13378640109E+03  0.13378640111E+03  0.25500000000E-02 0.  1.
         -2   -1    0    0    0  501 -0.00000000000E+00 -0.00000000000E+00 -0.38292767223E+03  0.38292767224E+03  0.25500000000E-02 0. -1.
    5000001    1    1    2    0    0 -0.10720533018E+03  0.24634116819E+02 -0.19481087121E+03  0.29222439678E+03  0.18800000000E+03 0.  0.
   -5000001    1    1    2    0    0  0.10720533018E+03 -0.24634116819E+02 -0.54330399938E+02  0.22448967657E+03  0.18800000000E+03 0.  0.
<mgrwt>
<rscale>  0 0.45268318E+03</rscale>
<asrwt>0</asrwt>
<pdfrwt beam="1">  1        2 0.19112343E-01 0.45268318E+03</pdfrwt>
<pdfrwt beam="2">  1       -2 0.54703953E-01 0.45268318E+03</pdfrwt>
<totfact> 0.94453104E+02</totfact>
</mgrwt>
</event>
<event>
 4    1  0.2209668E-005  0.4865377E+03  0.7818608E-02  0.1017354E+00
          2   -1    0    0  501    0  0.00000000000E+00  0.00000000000E+00  0.26312439824E+04  0.26312439824E+04  0.25500000000E-02 0.  1.
         -2   -1    0    0    0  501 -0.00000000000E+00 -0.00000000000E+00 -0.22491160937E+02  0.22491161082E+02  0.25500000000E-02 0. -1.
    5000001    1    1    2    0    0  0.61009950153E+02  0.14112683850E+03  0.12278730973E+04  0.12516610330E+04  0.18800000000E+03 0.  0.
   -5000001    1    1    2    0    0 -0.61009950153E+02 -0.14112683850E+03  0.13808797242E+04  0.14020741105E+04  0.18800000000E+03 0.  0.
<mgrwt>
<rscale>  0 0.48653769E+03</rscale>
<asrwt>0</asrwt>
<pdfrwt beam="1">  1        2 0.37589193E+00 0.48653769E+03</pdfrwt>
<pdfrwt beam="2">  1       -2 0.32130236E-02 0.48653769E+03</pdfrwt>
<totfact> 0.16145440E+03</totfact>
</mgrwt>
</event>
<event>
 4    1  0.2209668E-005  0.4986081E+03  0.7818608E-02  0.1014143E+00
         -2   -1    0    0    0  501 -0.00000000000E+00  0.00000000000E+00  0.45626158459E+02  0.45626158530E+02  0.25500000000E-02 0. -1.
          2   -1    0    0  501    0  0.00000000000E+00 -0.00000000000E+00 -0.13622120061E+04  0.13622120061E+04  0.25500000000E-02 0.  1.
    5000001    1    1    2    0    0 -0.15695925982E+03  0.45769991072E+02 -0.63345228773E+03  0.68068855004E+03  0.18800000000E+03 0.  0.
   -5000001    1    1    2    0    0  0.15695925982E+03 -0.45769991072E+02 -0.68313355994E+03  0.72714961462E+03  0.18800000000E+03 0.  0.
<mgrwt>
<rscale>  0 0.49860807E+03</rscale>
<asrwt>0</asrwt>
<pdfrwt beam="1">  1        2 0.19460169E+00 0.49860807E+03</pdfrwt>
<pdfrwt beam="2">  1       -2 0.65180235E-02 0.49860807E+03</pdfrwt>
<totfact> 0.23880168E+03</totfact>
</mgrwt>
</event>
<event>
 4    1  0.2209668E-005  0.6286871E+03  0.7818608E-02  0.9847614E-01
         -2   -1    0    0    0  501 -0.00000000000E+00  0.00000000000E+00  0.10396159126E+03  0.10396159129E+03  0.25500000000E-02 0. -1.
          2   -1    0    0  501    0  0.00000000000E+00 -0.00000000000E+00 -0.95046514614E+03  0.95046514614E+03  0.25500000000E-02 0.  1.
    5000001    1    1    2    0    0  0.56792154346E+02 -0.12129969648E+03 -0.65381644568E+02  0.23991191010E+03  0.18800000000E+03 0.  0.
   -5000001    1    1    2    0    0 -0.56792154346E+02  0.12129969648E+03 -0.78112191032E+03  0.81451482733E+03  0.18800000000E+03 0.  0.
<mgrwt>
<rscale>  0 0.62868711E+03</rscale>
<asrwt>0</asrwt>
<pdfrwt beam="1">  1        2 0.13578073E+00 0.62868711E+03</pdfrwt>
<pdfrwt beam="2">  1       -2 0.14851656E-01 0.62868711E+03</pdfrwt>
<totfact> 0.10793204E+03</totfact>
</mgrwt>
</event>
<event>
 4    1  0.2209668E-005  0.5471365E+03  0.7818608E-02  0.1002159E+00
          2   -1    0    0  501    0  0.00000000000E+00  0.00000000000E+00  0.13161280097E+04  0.13161280097E+04  0.25500000000E-02 0.  1.
         -2   -1    0    0    0  501 -0.00000000000E+00 -0.00000000000E+00 -0.56863452755E+02  0.56863452813E+02  0.25500000000E-02 0. -1.
    5000001    1    1    2    0    0  0.15026724566E+03 -0.11826504375E+03  0.76543575380E+03  0.81105040465E+03  0.18800000000E+03 0.  0.
   -5000001    1    1    2    0    0 -0.15026724566E+03  0.11826504375E+03  0.49382880310E+03  0.56194105782E+03  0.18800000000E+03 0.  0.
<mgrwt>
<rscale>  0 0.54713648E+03</rscale>
<asrwt>0</asrwt>
<pdfrwt beam="1">  1        2 0.18801827E+00 0.54713648E+03</pdfrwt>
<pdfrwt beam="2">  1       -2 0.81233512E-02 0.54713648E+03</pdfrwt>
<totfact> 0.17837105E+03</totfact>
</mgrwt>
</event>
<event>
 4    1  0.2209668E-005  0.7553324E+03  0.7818608E-02  0.9627022E-01
          2   -1    0    0  501    0  0.00000000000E+00  0.00000000000E+00  0.23116373143E+03  0.23116373144E+03  0.25500000000E-02 0.  1.
         -2   -1    0    0    0  501 -0.00000000000E+00 -0.00000000000E+00 -0.61701623140E+03  0.61701623141E+03  0.25500000000E-02 0. -1.
    5000001    1    1    2    0    0 -0.29363446291E+03 -0.70555021363E+02 -0.50493935091E+02  0.35929492945E+03  0.18800000000E+03 0.  0.
   -5000001    1    1    2    0    0  0.29363446291E+03  0.70555021363E+02 -0.33535856488E+03  0.48888503340E+03  0.18800000000E+03 0.  0.
<mgrwt>
<rscale>  0 0.75533244E+03</rscale>
<asrwt>0</asrwt>
<pdfrwt beam="1">  1        2 0.33023390E-01 0.75533244E+03</pdfrwt>
<pdfrwt beam="2">  1       -2 0.88145175E-01 0.75533244E+03</pdfrwt>
<totfact> 0.17854651E+02</totfact>
</mgrwt>
</event>
<event>
 4    1  0.2209668E-005  0.6503268E+03  0.7818608E-02  0.9806166E-01
         -2   -1    0    0    0  501 -0.00000000000E+00  0.00000000000E+00  0.11304035955E+03  0.11304035958E+03  0.25500000000E-02 0. -1.
          2   -1    0    0  501    0  0.00000000000E+00 -0.00000000000E+00 -0.93534059657E+03  0.93534059657E+03  0.25500000000E-02 0.  1.
    5000001    1    1    2    0    0  0.21678258562E+03  0.80272235819E+02 -0.20127621745E+03  0.35957535647E+03  0.18800000000E+03 0.  0.
   -5000001    1    1    2    0    0 -0.21678258562E+03 -0.80272235819E+02 -0.62102401957E+03  0.68880559968E+03  0.18800000000E+03 0.  0.
<mgrwt>
<rscale>  0 0.65032680E+03</rscale>
<asrwt>0</asrwt>
<pdfrwt beam="1">  1        2 0.13362008E+00 0.65032680E+03</pdfrwt>
<pdfrwt beam="2">  1       -2 0.16148623E-01 0.65032680E+03</pdfrwt>
<totfact> 0.95708284E+02</totfact>
</mgrwt>
</event>
<event>
 4    1  0.2209668E-005  0.4450605E+03  0.7818608E-02  0.1029205E+00
          2   -1    0    0  501    0  0.00000000000E+00  0.00000000000E+00  0.18906144528E+04  0.18906144528E+04  0.25500000000E-02 0.  1.
         -2   -1    0    0    0  501 -0.00000000000E+00 -0.00000000000E+00 -0.26192392114E+02  0.26192392238E+02  0.25500000000E-02 0. -1.
    5000001    1    1    2    0    0  0.83850833973E+02 -0.33018437453E+02  0.12673305360E+04  0.12843643825E+04  0.18800000000E+03 0.  0.
   -5000001    1    1    2    0    0 -0.83850833973E+02  0.33018437453E+02  0.59709152475E+03  0.63244246260E+03  0.18800000000E+03 0.  0.
<mgrwt>
<rscale>  0 0.44506051E+03</rscale>
<asrwt>0</asrwt>
<pdfrwt beam="1">  1        2 0.27008771E+00 0.44506051E+03</pdfrwt>
<pdfrwt beam="2">  1       -2 0.37417712E-02 0.44506051E+03</pdfrwt>
<totfact> 0.30252488E+03</totfact>
</mgrwt>
</event>
<event>
 4    1  0.2209668E-005  0.4792053E+03  0.7818608E-02  0.1019354E+00
          2   -1    0    0  501    0  0.00000000000E+00  0.00000000000E+00  0.15013910018E+04  0.15013910018E+04  0.25500000000E-02 0.  1.
         -2   -1    0    0    0  501 -0.00000000000E+00 -0.00000000000E+00 -0.38237497476E+02  0.38237497561E+02  0.25500000000E-02 0. -1.
    5000001    1    1    2    0    0  0.14521785908E+03 -0.22492503953E+02  0.80132622033E+03  0.83609918713E+03  0.18800000000E+03 0.  0.
   -5000001    1    1    2    0    0 -0.14521785908E+03  0.22492503953E+02  0.66182728398E+03  0.70352931222E+03  0.18800000000E+03 0.  0.
<mgrwt>
<rscale>  0 0.47920532E+03</rscale>
<asrwt>0</asrwt>
<pdfrwt beam="1">  1        2 0.21448438E+00 0.47920532E+03</pdfrwt>
<pdfrwt beam="2">  1       -2 0.54625009E-02 0.47920532E+03</pdfrwt>
<totfact> 0.26595141E+03</totfact>
</mgrwt>
</event>
<event>
 4    1  0.2209668E-005  0.5238583E+03  0.7818608E-02  0.1007733E+00
          2   -1    0    0  501    0  0.00000000000E+00  0.00000000000E+00  0.76609524968E+03  0.76609524968E+03  0.25500000000E-02 0.  1.
         -2   -1    0    0    0  501 -0.00000000000E+00 -0.00000000000E+00 -0.89553995744E+02  0.89553995780E+02  0.25500000000E-02 0. -1.
    5000001    1    1    2    0    0 -0.14898460488E+03 -0.68510235877E+02  0.46866172184E+03  0.53092172156E+03  0.18800000000E+03 0.  0.
   -5000001    1    1    2    0    0  0.14898460488E+03  0.68510235877E+02  0.20787953209E+03  0.32472752390E+03  0.18800000000E+03 0.  0.
<mgrwt>
<rscale>  0 0.52385834E+03</rscale>
<asrwt>0</asrwt>
<pdfrwt beam="1">  1        2 0.10944218E+00 0.52385834E+03</pdfrwt>
<pdfrwt beam="2">  1       -2 0.12793428E-01 0.52385834E+03</pdfrwt>
<totfact> 0.18379856E+03</totfact>
</mgrwt>
</event>
<event>
 4    1  0.2209668E-005  0.4487434E+03  0.7818608E-02  0.1028097E+00
          2   -1    0    0  501    0  0.00000000000E+00  0.00000000000E+00  0.31703355442E+03  0.31703355443E+03  0.25500000000E-02 0.  1.
         -2   -1    0    0    0  501 -0.00000000000E+00 -0.00000000000E+00 -0.15879287695E+03  0.15879287697E+03  0.25500000000E-02 0. -1.
    5000001    1    1    2    0    0 -0.25561735081E+02  0.11964525033E+03  0.84955361638E+02  0.23985370895E+03  0.18800000000E+03 0.  0.
   -5000001    1    1    2    0    0  0.25561735081E+02 -0.11964525033E+03  0.73285315835E+02  0.23597272246E+03  0.18800000000E+03 0.  0.
<mgrwt>
<rscale>  0 0.44874345E+03</rscale>
<asrwt>0</asrwt>
<pdfrwt beam="1">  1        2 0.45290507E-01 0.44874345E+03</pdfrwt>
<pdfrwt beam="2">  1       -2 0.22684697E-01 0.44874345E+03</pdfrwt>
<totfact> 0.18993727E+03</totfact>
</mgrwt>
</event>
<event>
 4    1  0.2209668E-005  0.4611639E+03  0.7818608E-02  0.1024444E+00
         -2   -1    0    0    0  501 -0.00000000000E+00  0.00000000000E+00  0.52576890963E+02  0.52576891025E+02  0.25500000000E-02 0. -1.
          2   -1    0    0  501    0  0.00000000000E+00 -0.00000000000E+00 -0.10112433404E+04  0.10112433404E+04  0.25500000000E-02 0.  1.
    5000001    1    1    2    0    0 -0.12578755699E+03 -0.40608012814E+02 -0.43602213598E+03  0.49288013073E+03  0.18800000000E+03 0.  0.
   -5000001    1    1    2    0    0  0.12578755699E+03  0.40608012814E+02 -0.52264431341E+03  0.57094010066E+03  0.18800000000E+03 0.  0.
<mgrwt>
<rscale>  0 0.46116388E+03</rscale>
<asrwt>0</asrwt>
<pdfrwt beam="1">  1        2 0.14446332E+00 0.46116388E+03</pdfrwt>
<pdfrwt beam="2">  1       -2 0.75109851E-02 0.46116388E+03</pdfrwt>
<totfact> 0.30065889E+03</totfact>
</mgrwt>
</event>
<event>
 4    1  0.2209668E-005  0.8111245E+03  0.7818608E-02  0.9544053E-01
          2   -1    0    0  501    0  0.00000000000E+00  0.00000000000E+00  0.15164036575E+04  0.15164036575E+04  0.25500000000E-02 0.  1.
         -2   -1    0    0    0  501 -0.00000000000E+00 -0.00000000000E+00 -0.10846765724E+03  0.10846765727E+03  0.25500000000E-02 0. -1.
    5000001    1    1    2    0    0 -0.32316786176E+03 -0.46452364855E+02  0.10047296684E+04  0.10730428676E+04  0.18800000000E+03 0.  0.
   -5000001    1    1    2    0    0  0.32316786176E+03  0.46452364855E+02  0.40320633182E+03  0.55182844716E+03  0.18800000000E+03 0.  0.
<mgrwt>
<rscale>  0 0.81112453E+03</rscale>
<asrwt>0</asrwt>
<pdfrwt beam="1">  1        2 0.21662907E+00 0.81112453E+03</pdfrwt>
<pdfrwt beam="2">  1       -2 0.15495382E-01 0.81112453E+03</pdfrwt>
<totfact> 0.47835432E+02</totfact>
</mgrwt>
</event>
<event>
 4    1  0.2209668E-005  0.7446745E+03  0.7818608E-02  0.9643742E-01
         -2   -1    0    0    0  501 -0.00000000000E+00  0.00000000000E+00  0.22829593593E+03  0.22829593594E+03  0.25500000000E-02 0. -1.
          2   -1    0    0  501    0  0.00000000000E+00 -0.00000000000E+00 -0.60726012590E+03  0.60726012590E+03  0.25500000000E-02 0.  1.
    5000001    1    1    2    0    0 -0.97971557213E+02 -0.26459560915E+03 -0.16812416424E+02  0.33946416563E+03  0.18800000000E+03 0.  0.
   -5000001    1    1    2    0    0  0.97971557213E+02  0.26459560915E+03 -0.36215177355E+03  0.49609189621E+03  0.18800000000E+03 0.  0.
<mgrwt>
<rscale>  0 0.74467448E+03</rscale>
<asrwt>0</asrwt>
<pdfrwt beam="1">  1        2 0.86751446E-01 0.74467448E+03</pdfrwt>
<pdfrwt beam="2">  1       -2 0.32613705E-01 0.74467448E+03</pdfrwt>
<totfact> 0.47078943E+02</totfact>
</mgrwt>
</event>
<event>
 4    1  0.2209668E-005  0.4558045E+03  0.7818608E-02  0.1026005E+00
          2   -1    0    0  501    0  0.00000000000E+00  0.00000000000E+00  0.42929939214E+03  0.42929939215E+03  0.25500000000E-02 0.  1.
         -2   -1    0    0    0  501 -0.00000000000E+00 -0.00000000000E+00 -0.12098652555E+03  0.12098652557E+03  0.25500000000E-02 0. -1.
    5000001    1    1    2    0    0  0.63546204958E+02 -0.11184060798E+03  0.16260743831E+03  0.27987786756E+03  0.18800000000E+03 0.  0.
   -5000001    1    1    2    0    0 -0.63546204958E+02  0.11184060798E+03  0.14570542829E+03  0.27040805016E+03  0.18800000000E+03 0.  0.
<mgrwt>
<rscale>  0 0.45580453E+03</rscale>
<asrwt>0</asrwt>
<pdfrwt beam="1">  1        2 0.61328486E-01 0.45580453E+03</pdfrwt>
<pdfrwt beam="2">  1       -2 0.17283789E-01 0.45580453E+03</pdfrwt>
<totfact> 0.21788245E+03</totfact>
</mgrwt>
</event>
<event>
 4    1  0.2209668E-005  0.5660206E+03  0.7818608E-02  0.9978523E-01
         -2   -1    0    0    0  501 -0.00000000000E+00  0.00000000000E+00  0.20618134529E+02  0.20618134686E+02  0.25500000000E-02 0. -1.
          2   -1    0    0  501    0  0.00000000000E+00 -0.00000000000E+00 -0.38846783294E+04  0.38846783294E+04  0.25500000000E-02 0.  1.
    5000001    1    1    2    0    0  0.18156709235E+03 -0.81721635054E+02 -0.24250371158E+04  0.24404495585E+04  0.18800000000E+03 0.  0.
   -5000001    1    1    2    0    0 -0.18156709235E+03  0.81721635054E+02 -0.14390230791E+04  0.14648469056E+04  0.18800000000E+03 0.  0.
<mgrwt>
<rscale>  0 0.56602057E+03</rscale>
<asrwt>0</asrwt>
<pdfrwt beam="1">  1        2 0.55495358E+00 0.56602057E+03</pdfrwt>
<pdfrwt beam="2">  1       -2 0.29454503E-02 0.56602057E+03</pdfrwt>
<totfact> 0.35220642E+02</totfact>
</mgrwt>
</event>
<event>
 4    1  0.2209668E-005  0.5823865E+03  0.7818608E-02  0.9942638E-01
          2   -1    0    0  501    0  0.00000000000E+00  0.00000000000E+00  0.55550086612E+03  0.55550086612E+03  0.25500000000E-02 0.  1.
         -2   -1    0    0    0  501 -0.00000000000E+00 -0.00000000000E+00 -0.15264334270E+03  0.15264334272E+03  0.25500000000E-02 0. -1.
    5000001    1    1    2    0    0 -0.21391451310E+03 -0.59248910979E+02  0.21772668015E+03  0.36334385865E+03  0.18800000000E+03 0.  0.
   -5000001    1    1    2    0    0  0.21391451310E+03  0.59248910979E+02  0.18513084326E+03  0.34480035019E+03  0.18800000000E+03 0.  0.
<mgrwt>
<rscale>  0 0.58238650E+03</rscale>
<asrwt>0</asrwt>
<pdfrwt beam="1">  1        2 0.79357265E-01 0.58238650E+03</pdfrwt>
<pdfrwt beam="2">  1       -2 0.21806192E-01 0.58238650E+03</pdfrwt>
<totfact> 0.10899595E+03</totfact>
</mgrwt>
</event>
<event>
 4    1  0.2209668E-005  0.7091970E+03  0.7818608E-02  0.9701632E-01
         -2   -1    0    0    0  501 -0.00000000000E+00  0.00000000000E+00  0.12067868141E+03  0.12067868144E+03  0.25500000000E-02 0. -1.
          2   -1    0    0  501    0  0.00000000000E+00 -0.00000000000E+00 -0.10419412077E+04  0.10419412077E+04  0.25500000000E-02 0.  1.
    5000001    1    1    2    0    0  0.59771612289E+02  0.12181631983E+03 -0.20796503697E+02  0.23278392552E+03  0.18800000000E+03 0.  0.
   -5000001    1    1    2    0    0 -0.59771612289E+02 -0.12181631983E+03 -0.90046602260E+03  0.92983596364E+03  0.18800000000E+03 0.  0.
<mgrwt>
<rscale>  0 0.70919699E+03</rscale>
<asrwt>0</asrwt>
<pdfrwt beam="1">  1        2 0.14884874E+00 0.70919699E+03</pdfrwt>
<pdfrwt beam="2">  1       -2 0.17239812E-01 0.70919699E+03</pdfrwt>
<totfact> 0.73456042E+02</totfact>
</mgrwt>
</event>
<event>
 4    1  0.2209668E-005  0.7759255E+03  0.7818608E-02  0.9595533E-01
          2   -1    0    0  501    0  0.00000000000E+00  0.00000000000E+00  0.27008184227E+03  0.27008184228E+03  0.25500000000E-02 0.  1.
         -2   -1    0    0    0  501 -0.00000000000E+00 -0.00000000000E+00 -0.55729443943E+03  0.55729443943E+03  0.25500000000E-02 0. -1.
    5000001    1    1    2    0    0 -0.37485419946E+02  0.33646145919E+03 -0.11838096734E+03  0.40493150490E+03  0.18800000000E+03 0.  0.
   -5000001    1    1    2    0    0  0.37485419946E+02 -0.33646145919E+03 -0.16883162982E+03  0.42244477682E+03  0.18800000000E+03 0.  0.
<mgrwt>
<rscale>  0 0.77592553E+03</rscale>
<asrwt>0</asrwt>
<pdfrwt beam="1">  1        2 0.38583121E-01 0.77592553E+03</pdfrwt>
<pdfrwt beam="2">  1       -2 0.79613491E-01 0.77592553E+03</pdfrwt>
<totfact> 0.18888130E+02</totfact>
</mgrwt>
</event>
<event>
 4    1  0.2209668E-005  0.4689887E+03  0.7818608E-02  0.1022206E+00
         -2   -1    0    0    0  501 -0.00000000000E+00  0.00000000000E+00  0.23322419369E+02  0.23322419509E+02  0.25500000000E-02 0. -1.
          2   -1    0    0  501    0  0.00000000000E+00 -0.00000000000E+00 -0.23577140150E+04  0.23577140150E+04  0.25500000000E-02 0.  1.
    5000001    1    1    2    0    0 -0.13719205938E+03  0.10315337643E+02 -0.10313904265E+04  0.10573732923E+04  0.18800000000E+03 0.  0.
   -5000001    1    1    2    0    0  0.13719205938E+03 -0.10315337643E+02 -0.13030011691E+04  0.13236631422E+04  0.18800000000E+03 0.  0.
<mgrwt>
<rscale>  0 0.46898868E+03</rscale>
<asrwt>0</asrwt>
<pdfrwt beam="1">  1        2 0.33681614E+00 0.46898868E+03</pdfrwt>
<pdfrwt beam="2">  1       -2 0.33317757E-02 0.46898868E+03</pdfrwt>
<totfact> 0.21082851E+03</totfact>
</mgrwt>
</event>
<event>
 4    1  0.2209668E-005  0.5271507E+03  0.7818608E-02  0.1006925E+00
          2   -1    0    0  501    0  0.00000000000E+00  0.00000000000E+00  0.28168850790E+03  0.28168850791E+03  0.25500000000E-02 0.  1.
         -2   -1    0    0    0  501 -0.00000000000E+00 -0.00000000000E+00 -0.24662687342E+03  0.24662687344E+03  0.25500000000E-02 0. -1.
    5000001    1    1    2    0    0  0.94103620872E+02  0.12720097070E+03  0.11309545703E+03  0.27049983514E+03  0.18800000000E+03 0.  0.
   -5000001    1    1    2    0    0 -0.94103620872E+02 -0.12720097070E+03 -0.78033822552E+02  0.25781554621E+03  0.18800000000E+03 0.  0.
<mgrwt>
<rscale>  0 0.52715067E+03</rscale>
<asrwt>0</asrwt>
<pdfrwt beam="1">  1        2 0.40241215E-01 0.52715067E+03</pdfrwt>
<pdfrwt beam="2">  1       -2 0.35232411E-01 0.52715067E+03</pdfrwt>
<totfact> 0.96962266E+02</totfact>
</mgrwt>
</event>
<event>
 4    1  0.2209668E-005  0.4638120E+03  0.7818608E-02  0.1023681E+00
          2   -1    0    0  501    0  0.00000000000E+00  0.00000000000E+00  0.19737305507E+03  0.19737305509E+03  0.25500000000E-02 0.  1.
         -2   -1    0    0    0  501 -0.00000000000E+00 -0.00000000000E+00 -0.27248091108E+03  0.27248091109E+03  0.25500000000E-02 0. -1.
    5000001    1    1    2    0    0  0.12052464318E+03 -0.16607478946E+02 -0.98625177636E+02  0.24468944324E+03  0.18800000000E+03 0.  0.
   -5000001    1    1    2    0    0 -0.12052464318E+03  0.16607478946E+02  0.23517321632E+02  0.22516452293E+03  0.18800000000E+03 0.  0.
<mgrwt>
<rscale>  0 0.46381199E+03</rscale>
<asrwt>0</asrwt>
<pdfrwt beam="1">  1        2 0.28196151E-01 0.46381199E+03</pdfrwt>
<pdfrwt beam="2">  1       -2 0.38925844E-01 0.46381199E+03</pdfrwt>
<totfact> 0.11895932E+03</totfact>
</mgrwt>
</event>
<event>
 4    1  0.2209668E-005  0.7400220E+03  0.7818608E-02  0.9651136E-01
         -2   -1    0    0    0  501 -0.00000000000E+00  0.00000000000E+00  0.88906719165E+02  0.88906719202E+02  0.25500000000E-02 0. -1.
          2   -1    0    0  501    0  0.00000000000E+00 -0.00000000000E+00 -0.15399076373E+04  0.15399076373E+04  0.25500000000E-02 0.  1.
    5000001    1    1    2    0    0 -0.15850887148E+03  0.23793066567E+03 -0.10354330212E+04  0.10905052065E+04  0.18800000000E+03 0.  0.
   -5000001    1    1    2    0    0  0.15850887148E+03 -0.23793066567E+03 -0.41556789687E+03  0.53830914995E+03  0.18800000000E+03 0.  0.
<mgrwt>
<rscale>  0 0.74002199E+03</rscale>
<asrwt>0</asrwt>
<pdfrwt beam="1">  1        2 0.21998679E+00 0.74002199E+03</pdfrwt>
<pdfrwt beam="2">  1       -2 0.12700961E-01 0.74002199E+03</pdfrwt>
<totfact> 0.65178814E+02</totfact>
</mgrwt>
</event>
<event>
 4    1  0.2209668E-005  0.5801730E+03  0.7818608E-02  0.9947416E-01
          2   -1    0    0  501    0  0.00000000000E+00  0.00000000000E+00  0.25348521443E+03  0.25348521444E+03  0.25500000000E-02 0. -1.
         -2   -1    0    0    0  501 -0.00000000000E+00 -0.00000000000E+00 -0.33197277328E+03  0.33197277329E+03  0.25500000000E-02 0.  1.
    5000001    1    1    2    0    0 -0.13309803008E+03  0.46684035627E+02 -0.21082708933E+03  0.31573176335E+03  0.18800000000E+03 0.  0.
   -5000001    1    1    2    0    0  0.13309803008E+03 -0.46684035627E+02  0.13233953048E+03  0.26972622438E+03  0.18800000000E+03 0.  0.
<mgrwt>
<rscale>  0 0.58017304E+03</rscale>
<asrwt>0</asrwt>
<pdfrwt beam="1">  1        2 0.36212174E-01 0.58017304E+03</pdfrwt>
<pdfrwt beam="2">  1       -2 0.47424682E-01 0.58017304E+03</pdfrwt>
<totfact> 0.61072621E+02</totfact>
</mgrwt>
</event>
<event>
 4    1  0.2209668E-005  0.4108096E+03  0.7818608E-02  0.1040100E+00
         -2   -1    0    0    0  501 -0.00000000000E+00  0.00000000000E+00  0.37720618164E+02  0.37720618250E+02  0.25500000000E-02 0. -1.
          2   -1    0    0  501    0  0.00000000000E+00 -0.00000000000E+00 -0.11185163639E+04  0.11185163639E+04  0.25500000000E-02 0.  1.
    5000001    1    1    2    0    0  0.20364834877E+02  0.28168387141E+02 -0.75174930097E+03  0.77567982830E+03  0.18800000000E+03 0.  0.
   -5000001    1    1    2    0    0 -0.20364834877E+02 -0.28168387141E+02 -0.32904644480E+03  0.38055715388E+03  0.18800000000E+03 0.  0.
<mgrwt>
<rscale>  0 0.41080958E+03</rscale>
<asrwt>0</asrwt>
<pdfrwt beam="1">  1        2 0.15978803E+00 0.41080958E+03</pdfrwt>
<pdfrwt beam="2">  1       -2 0.53886604E-02 0.41080958E+03</pdfrwt>
<totfact> 0.43653876E+03</totfact>
</mgrwt>
</event>
<event>
 4    1  0.2209668E-005  0.6277965E+03  0.7818608E-02  0.9849358E-01
         -2   -1    0    0    0  501 -0.00000000000E+00  0.00000000000E+00  0.29470412078E+02  0.29470412188E+02  0.25500000000E-02 0. -1.
          2   -1    0    0  501    0  0.00000000000E+00 -0.00000000000E+00 -0.33434252765E+04  0.33434252765E+04  0.25500000000E-02 0.  1.
    5000001    1    1    2    0    0 -0.11072294081E+03  0.20623508186E+03 -0.21492560366E+04  0.21701239572E+04  0.18800000000E+03 0.  0.
   -5000001    1    1    2    0    0  0.11072294081E+03 -0.20623508186E+03 -0.11646988277E+04  0.12027717314E+04  0.18800000000E+03 0.  0.
<mgrwt>
<rscale>  0 0.62779653E+03</rscale>
<asrwt>0</asrwt>
<pdfrwt beam="1">  1        2 0.47763194E+00 0.62779653E+03</pdfrwt>
<pdfrwt beam="2">  1       -2 0.42100610E-02 0.62779653E+03</pdfrwt>
<totfact> 0.43256165E+02</totfact>
</mgrwt>
</event>
<event>
 4    1  0.2209668E-005  0.6655832E+03  0.7818608E-02  0.9777970E-01
         -2   -1    0    0    0  501 -0.00000000000E+00  0.00000000000E+00  0.67747414618E+02  0.67747414666E+02  0.25500000000E-02 0. -1.
          2   -1    0    0  501    0  0.00000000000E+00 -0.00000000000E+00 -0.16347521930E+04  0.16347521930E+04  0.25500000000E-02 0.  1.
    5000001    1    1    2    0    0 -0.14404903302E+03  0.49452278703E+02 -0.19903004243E+03  0.31329316873E+03  0.18800000000E+03 0.  0.
   -5000001    1    1    2    0    0  0.14404903302E+03 -0.49452278703E+02 -0.13679747359E+04  0.13892064389E+04  0.18800000000E+03 0.  0.
<mgrwt>
<rscale>  0 0.66558316E+03</rscale>
<asrwt>0</asrwt>
<pdfrwt beam="1">  1        2 0.23353600E+00 0.66558316E+03</pdfrwt>
<pdfrwt beam="2">  1       -2 0.96782031E-02 0.66558316E+03</pdfrwt>
<totfact> 0.91238645E+02</totfact>
</mgrwt>
</event>
<event>
 4    1  0.2209668E-005  0.6948529E+03  0.7818608E-02  0.9726075E-01
         -2   -1    0    0    0  501 -0.00000000000E+00  0.00000000000E+00  0.90387401295E+02  0.90387401331E+02  0.25500000000E-02 0. -1.
          2   -1    0    0  501    0  0.00000000000E+00 -0.00000000000E+00 -0.13354200996E+04  0.13354200996E+04  0.25500000000E-02 0.  1.
    5000001    1    1    2    0    0  0.28422535190E+03  0.64890073555E+02 -0.66179295648E+03  0.74720056849E+03  0.18800000000E+03 0.  0.
   -5000001    1    1    2    0    0 -0.28422535190E+03 -0.64890073555E+02 -0.58323974180E+03  0.67860693241E+03  0.18800000000E+03 0.  0.
<mgrwt>
<rscale>  0 0.69485294E+03</rscale>
<asrwt>0</asrwt>
<pdfrwt beam="1">  1        2 0.19077429E+00 0.69485294E+03</pdfrwt>
<pdfrwt beam="2">  1       -2 0.12912487E-01 0.69485294E+03</pdfrwt>
<totfact> 0.81585519E+02</totfact>
</mgrwt>
</event>
<event>
 4    1  0.2209668E-005  0.7205407E+03  0.7818608E-02  0.9682736E-01
         -2   -1    0    0    0  501 -0.00000000000E+00  0.00000000000E+00  0.37869842738E+03  0.37869842739E+03  0.25500000000E-02 0.  1.
          2   -1    0    0  501    0  0.00000000000E+00 -0.00000000000E+00 -0.34273899947E+03  0.34273899948E+03  0.25500000000E-02 0. -1.
    5000001    1    1    2    0    0  0.13231285028E+03 -0.22839002389E+03 -0.13963928715E+03  0.35286232992E+03  0.18800000000E+03 0.  0.
   -5000001    1    1    2    0    0 -0.13231285028E+03  0.22839002389E+03  0.17559871506E+03  0.36857509695E+03  0.18800000000E+03 0.  0.
<mgrwt>
<rscale>  0 0.72054069E+03</rscale>
<asrwt>0</asrwt>
<pdfrwt beam="1">  1        2 0.48962714E-01 0.72054069E+03</pdfrwt>
<pdfrwt beam="2">  1       -2 0.54099775E-01 0.72054069E+03</pdfrwt>
<totfact> 0.33350767E+02</totfact>
</mgrwt>
</event>
<event>
 4    1  0.2209668E-005  0.4432157E+03  0.7818608E-02  0.1029765E+00
         -2   -1    0    0    0  501 -0.00000000000E+00  0.00000000000E+00  0.54519602131E+02  0.54519602190E+02  0.25500000000E-02 0. -1.
          2   -1    0    0  501    0  0.00000000000E+00 -0.00000000000E+00 -0.90077778503E+03  0.90077778503E+03  0.25500000000E-02 0.  1.
    5000001    1    1    2    0    0 -0.14440780067E+01 -0.10138278183E+03 -0.29587976030E+03  0.36492380899E+03  0.18800000000E+03 0.  0.
   -5000001    1    1    2    0    0  0.14440780067E+01  0.10138278183E+03 -0.55037842259E+03  0.59037357823E+03  0.18800000000E+03 0.  0.
<mgrwt>
<rscale>  0 0.44321573E+03</rscale>
<asrwt>0</asrwt>
<pdfrwt beam="1">  1        2 0.12868253E+00 0.44321573E+03</pdfrwt>
<pdfrwt beam="2">  1       -2 0.77885151E-02 0.44321573E+03</pdfrwt>
<totfact> 0.33216348E+03</totfact>
</mgrwt>
</event>
<event>
 4    1  0.2209668E-005  0.4420724E+03  0.7818608E-02  0.1030113E+00
          2   -1    0    0  501    0  0.00000000000E+00  0.00000000000E+00  0.65535301941E+03  0.65535301941E+03  0.25500000000E-02 0.  1.
         -2   -1    0    0    0  501 -0.00000000000E+00 -0.00000000000E+00 -0.74550663728E+02  0.74550663772E+02  0.25500000000E-02 0. -1.
    5000001    1    1    2    0    0 -0.31805273182E+02 -0.92667028725E+02  0.18710211697E+03  0.28275423213E+03  0.18800000000E+03 0.  0.
   -5000001    1    1    2    0    0  0.31805273182E+02  0.92667028725E+02  0.39370023871E+03  0.44714945105E+03  0.18800000000E+03 0.  0.
<mgrwt>
<rscale>  0 0.44207240E+03</rscale>
<asrwt>0</asrwt>
<pdfrwt beam="1">  1        2 0.93621852E-01 0.44207240E+03</pdfrwt>
<pdfrwt beam="2">  1       -2 0.10650096E-01 0.44207240E+03</pdfrwt>
<totfact> 0.29974373E+03</totfact>
</mgrwt>
</event>
<event>
 4    1  0.2209668E-005  0.6288315E+03  0.7818608E-02  0.9847332E-01
          2   -1    0    0  501    0  0.00000000000E+00  0.00000000000E+00  0.18692528943E+04  0.18692528943E+04  0.25500000000E-02 0.  1.
         -2   -1    0    0    0  501 -0.00000000000E+00 -0.00000000000E+00 -0.52885972859E+02  0.52885972921E+02  0.25500000000E-02 0. -1.
    5000001    1    1    2    0    0 -0.24702124670E+03 -0.49798982282E+02  0.91954796827E+03  0.97180857215E+03  0.18800000000E+03 0.  0.
   -5000001    1    1    2    0    0  0.24702124670E+03  0.49798982282E+02  0.89681895314E+03  0.95033029504E+03  0.18800000000E+03 0.  0.
<mgrwt>
<rscale>  0 0.62883148E+03</rscale>
<asrwt>0</asrwt>
<pdfrwt beam="1">  1        2 0.26703606E+00 0.62883148E+03</pdfrwt>
<pdfrwt beam="2">  1       -2 0.75551410E-02 0.62883148E+03</pdfrwt>
<totfact> 0.10335042E+03</totfact>
</mgrwt>
</event>
<event>
 4    1  0.2209668E-005  0.4207094E+03  0.7818608E-02  0.1036836E+00
         -2   -1    0    0    0  501 -0.00000000000E+00  0.00000000000E+00  0.27197981228E+02  0.27197981347E+02  0.25500000000E-02 0. -1.
          2   -1    0    0  501    0  0.00000000000E+00 -0.00000000000E+00 -0.16269259109E+04  0.16269259109E+04  0.25500000000E-02 0.  1.
    5000001    1    1    2    0    0  0.85450754850E+02  0.24321717095E+02 -0.67480447882E+03  0.70611504875E+03  0.18800000000E+03 0.  0.
   -5000001    1    1    2    0    0 -0.85450754850E+02 -0.24321717095E+02 -0.92492345081E+03  0.94800884347E+03  0.18800000000E+03 0.  0.
<mgrwt>
<rscale>  0 0.42070940E+03</rscale>
<asrwt>0</asrwt>
<pdfrwt beam="1">  1        2 0.23241793E+00 0.42070940E+03</pdfrwt>
<pdfrwt beam="2">  1       -2 0.38854269E-02 0.42070940E+03</pdfrwt>
<totfact> 0.38729835E+03</totfact>
</mgrwt>
</event>
<event>
 4    1  0.2209668E-005  0.6317903E+03  0.7818608E-02  0.9841561E-01
         -2   -1    0    0    0  501 -0.00000000000E+00  0.00000000000E+00  0.35209743653E+03  0.35209743654E+03  0.25500000000E-02 0. -1.
          2   -1    0    0  501    0  0.00000000000E+00 -0.00000000000E+00 -0.28341514828E+03  0.28341514829E+03  0.25500000000E-02 0.  1.
    5000001    1    1    2    0    0  0.10218221606E+03 -0.14354674805E+03 -0.14948915960E+03  0.29788904476E+03  0.18800000000E+03 0.  0.
   -5000001    1    1    2    0    0 -0.10218221606E+03  0.14354674805E+03  0.21817144785E+03  0.33762354007E+03  0.18800000000E+03 0.  0.
<mgrwt>
<rscale>  0 0.63179030E+03</rscale>
<asrwt>0</asrwt>
<pdfrwt beam="1">  1        2 0.40487878E-01 0.63179030E+03</pdfrwt>
<pdfrwt beam="2">  1       -2 0.50299634E-01 0.63179030E+03</pdfrwt>
<totfact> 0.47884605E+02</totfact>
</mgrwt>
</event>
<event>
 4    1  0.2209668E-005  0.5518844E+03  0.7818608E-02  0.1001059E+00
         -2   -1    0    0    0  501 -0.00000000000E+00  0.00000000000E+00  0.12784100627E+03  0.12784100630E+03  0.25500000000E-02 0. -1.
          2   -1    0    0  501    0  0.00000000000E+00 -0.00000000000E+00 -0.59561570476E+03  0.59561570476E+03  0.25500000000E-02 0.  1.
    5000001    1    1    2    0    0 -0.11650847140E+03  0.79708016693E+02 -0.44499623677E+02  0.23927350112E+03  0.18800000000E+03 0.  0.
   -5000001    1    1    2    0    0  0.11650847140E+03 -0.79708016693E+02 -0.42327507481E+03  0.48418320994E+03  0.18800000000E+03 0.  0.
<mgrwt>
<rscale>  0 0.55188445E+03</rscale>
<asrwt>0</asrwt>
<pdfrwt beam="1">  1        2 0.85087957E-01 0.55188445E+03</pdfrwt>
<pdfrwt beam="2">  1       -2 0.18263001E-01 0.55188445E+03</pdfrwt>
<totfact> 0.13682999E+03</totfact>
</mgrwt>
</event>
<event>
 4    1  0.2209668E-005  0.7493551E+03  0.7818608E-02  0.9636363E-01
         -2   -1    0    0    0  501 -0.00000000000E+00  0.00000000000E+00  0.11422708197E+03  0.11422708199E+03  0.25500000000E-02 0. -1.
          2   -1    0    0  501    0  0.00000000000E+00 -0.00000000000E+00 -0.12289840945E+04  0.12289840945E+04  0.25500000000E-02 0.  1.
    5000001    1    1    2    0    0  0.18225214889E+03 -0.21558414684E+03 -0.84275554477E+03  0.90844552857E+03  0.18800000000E+03 0.  0.
   -5000001    1    1    2    0    0 -0.18225214889E+03  0.21558414684E+03 -0.27200146775E+03  0.43476564791E+03  0.18800000000E+03 0.  0.
<mgrwt>
<rscale>  0 0.74935510E+03</rscale>
<asrwt>0</asrwt>
<pdfrwt beam="1">  1        2 0.17556915E+00 0.74935510E+03</pdfrwt>
<pdfrwt beam="2">  1       -2 0.16318155E-01 0.74935510E+03</pdfrwt>
<totfact> 0.62807909E+02</totfact>
</mgrwt>
</event>
<event>
 4    1  0.2209668E-005  0.4280247E+03  0.7818608E-02  0.1034486E+00
         -2   -1    0    0    0  501 -0.00000000000E+00  0.00000000000E+00  0.13511189849E+02  0.13511190089E+02  0.25500000000E-02 0. -1.
          2   -1    0    0  501    0  0.00000000000E+00 -0.00000000000E+00 -0.33898773152E+04  0.33898773152E+04  0.25500000000E-02 0.  1.
    5000001    1    1    2    0    0 -0.65768581190E+02 -0.61983386666E+02 -0.20686740300E+04  0.20791641804E+04  0.18800000000E+03 0.  0.
   -5000001    1    1    2    0    0  0.65768581190E+02  0.61983386666E+02 -0.13076920954E+04  0.13242243249E+04  0.18800000000E+03 0.  0.
<mgrwt>
<rscale>  0 0.42802466E+03</rscale>
<asrwt>0</asrwt>
<pdfrwt beam="1">  1        2 0.48426765E+00 0.42802466E+03</pdfrwt>
<pdfrwt beam="2">  1       -2 0.19301722E-02 0.42802466E+03</pdfrwt>
<totfact> 0.13539202E+03</totfact>
</mgrwt>
</event>
<event>
 4    1  0.2209668E-005  0.6466130E+03  0.7818608E-02  0.9813155E-01
          2   -1    0    0  501    0  0.00000000000E+00  0.00000000000E+00  0.53961019861E+03  0.53961019861E+03  0.25500000000E-02 0.  1.
         -2   -1    0    0    0  501 -0.00000000000E+00 -0.00000000000E+00 -0.19370854453E+03  0.19370854454E+03  0.25500000000E-02 0. -1.
    5000001    1    1    2    0    0 -0.22849612007E+03 -0.11949519495E+03  0.11409234625E+03  0.33889621122E+03  0.18800000000E+03 0.  0.
   -5000001    1    1    2    0    0  0.22849612007E+03  0.11949519495E+03  0.23180930783E+03  0.39442253194E+03  0.18800000000E+03 0.  0.
<mgrwt>
<rscale>  0 0.64661304E+03</rscale>
<asrwt>0</asrwt>
<pdfrwt beam="1">  1        2 0.77087171E-01 0.64661304E+03</pdfrwt>
<pdfrwt beam="2">  1       -2 0.27672649E-01 0.64661304E+03</pdfrwt>
<totfact> 0.73472351E+02</totfact>
</mgrwt>
</event>
<event>
 4    1  0.2209668E-005  0.7790263E+03  0.7818608E-02  0.9590882E-01
         -2   -1    0    0    0  501 -0.00000000000E+00  0.00000000000E+00  0.10681957453E+03  0.10681957456E+03  0.25500000000E-02 0. -1.
          2   -1    0    0  501    0  0.00000000000E+00 -0.00000000000E+00 -0.14203434526E+04  0.14203434527E+04  0.25500000000E-02 0.  1.
    5000001    1    1    2    0    0 -0.14051296453E+03  0.29903208958E+03 -0.82324620081E+03  0.90677582177E+03  0.18800000000E+03 0.  0.
   -5000001    1    1    2    0    0  0.14051296453E+03 -0.29903208958E+03 -0.49027767731E+03  0.62038720543E+03  0.18800000000E+03 0.  0.
<mgrwt>
<rscale>  0 0.77902627E+03</rscale>
<asrwt>0</asrwt>
<pdfrwt beam="1">  1        2 0.20290620E+00 0.77902627E+03</pdfrwt>
<pdfrwt beam="2">  1       -2 0.15259940E-01 0.77902627E+03</pdfrwt>
<totfact> 0.55280062E+02</totfact>
</mgrwt>
</event>
<event>
 4    1  0.2209668E-005  0.7279401E+03  0.7818608E-02  0.9670609E-01
         -2   -1    0    0    0  501 -0.00000000000E+00  0.00000000000E+00  0.14645144497E+03  0.14645144499E+03  0.25500000000E-02 0. -1.
          2   -1    0    0  501    0  0.00000000000E+00 -0.00000000000E+00 -0.90456057289E+03  0.90456057290E+03  0.25500000000E-02 0.  1.
    5000001    1    1    2    0    0  0.43191471202E+02 -0.30470655116E+03 -0.30804847017E+03  0.47428835689E+03  0.18800000000E+03 0.  0.
   -5000001    1    1    2    0    0 -0.43191471202E+02  0.30470655116E+03 -0.45006065775E+03  0.57672366100E+03  0.18800000000E+03 0.  0.
<mgrwt>
<rscale>  0 0.72794012E+03</rscale>
<asrwt>0</asrwt>
<pdfrwt beam="1">  1        2 0.12922294E+00 0.72794012E+03</pdfrwt>
<pdfrwt beam="2">  1       -2 0.20921635E-01 0.72794012E+03</pdfrwt>
<totfact> 0.63877997E+02</totfact>
</mgrwt>
</event>
<event>
 4    1  0.2209668E-005  0.5473438E+03  0.7818608E-02  0.1002111E+00
         -2   -1    0    0    0  501 -0.00000000000E+00  0.00000000000E+00  0.49869462699E+02  0.49869462765E+02  0.25500000000E-02 0. -1.
          2   -1    0    0  501    0  0.00000000000E+00 -0.00000000000E+00 -0.15018472807E+04  0.15018472807E+04  0.25500000000E-02 0.  1.
    5000001    1    1    2    0    0  0.16229709513E+03  0.69240186956E+02 -0.46588273854E+03  0.53247091624E+03  0.18800000000E+03 0.  0.
   -5000001    1    1    2    0    0 -0.16229709513E+03 -0.69240186956E+02 -0.98609507950E+03  0.10192458273E+04  0.18800000000E+03 0.  0.
<mgrwt>
<rscale>  0 0.54734383E+03</rscale>
<asrwt>0</asrwt>
<pdfrwt beam="1">  1        2 0.21454958E+00 0.54734383E+03</pdfrwt>
<pdfrwt beam="2">  1       -2 0.71242099E-02 0.54734383E+03</pdfrwt>
<totfact> 0.17518647E+03</totfact>
</mgrwt>
</event>
<event>
 4    1  0.2209668E-005  0.5988047E+03  0.7818608E-02  0.9907889E-01
         -2   -1    0    0    0  501 -0.00000000000E+00  0.00000000000E+00  0.34424076732E+02  0.34424076826E+02  0.25500000000E-02 0. -1.
          2   -1    0    0  501    0  0.00000000000E+00 -0.00000000000E+00 -0.26040429474E+04  0.26040429474E+04  0.25500000000E-02 0.  1.
    5000001    1    1    2    0    0 -0.76860487392E+02  0.18465018827E+03 -0.75800228178E+03  0.80617286343E+03  0.18800000000E+03 0.  0.
   -5000001    1    1    2    0    0  0.76860487392E+02 -0.18465018827E+03 -0.18116165889E+04  0.18322941608E+04  0.18800000000E+03 0.  0.
<mgrwt>
<rscale>  0 0.59880472E+03</rscale>
<asrwt>0</asrwt>
<pdfrwt beam="1">  1        2 0.37200601E+00 0.59880472E+03</pdfrwt>
<pdfrwt beam="2">  1       -2 0.49177269E-02 0.59880472E+03</pdfrwt>
<totfact> 0.86131605E+02</totfact>
</mgrwt>
</event>
<event>
 4    1  0.2209668E-005  0.4547044E+03  0.7818608E-02  0.1026328E+00
          2   -1    0    0  501    0  0.00000000000E+00  0.00000000000E+00  0.11078007462E+04  0.11078007462E+04  0.25500000000E-02 0.  1.
         -2   -1    0    0    0  501 -0.00000000000E+00 -0.00000000000E+00 -0.46659125876E+02  0.46659125945E+02  0.25500000000E-02 0. -1.
    5000001    1    1    2    0    0 -0.31717393305E+02  0.12210805891E+03  0.58313594672E+03  0.62554608419E+03  0.18800000000E+03 0.  0.
   -5000001    1    1    2    0    0  0.31717393305E+02 -0.12210805891E+03  0.47800567357E+03  0.52891378792E+03  0.18800000000E+03 0.  0.
<mgrwt>
<rscale>  0 0.45470436E+03</rscale>
<asrwt>0</asrwt>
<pdfrwt beam="1">  1        2 0.15825723E+00 0.45470436E+03</pdfrwt>
<pdfrwt beam="2">  1       -2 0.66655902E-02 0.45470436E+03</pdfrwt>
<totfact> 0.31836545E+03</totfact>
</mgrwt>
</event>
<event>
 4    1  0.2209668E-005  0.5328392E+03  0.7818608E-02  0.1005546E+00
          2   -1    0    0  501    0  0.00000000000E+00  0.00000000000E+00  0.17509384406E+04  0.17509384406E+04  0.25500000000E-02 0.  1.
         -2   -1    0    0    0  501 -0.00000000000E+00 -0.00000000000E+00 -0.40537916671E+02  0.40537916751E+02  0.25500000000E-02 0. -1.
    5000001    1    1    2    0    0  0.75813459750E+02  0.17213873190E+03  0.80140896817E+03  0.84438128708E+03  0.18800000000E+03 0.  0.
   -5000001    1    1    2    0    0 -0.75813459750E+02 -0.17213873190E+03  0.90899155574E+03  0.94709507026E+03  0.18800000000E+03 0.  0.
<mgrwt>
<rscale>  0 0.53283918E+03</rscale>
<asrwt>0</asrwt>
<pdfrwt beam="1">  1        2 0.25013413E+00 0.53283918E+03</pdfrwt>
<pdfrwt beam="2">  1       -2 0.57911294E-02 0.53283918E+03</pdfrwt>
<totfact> 0.18095794E+03</totfact>
</mgrwt>
</event>
<event>
 4    1  0.2209668E-005  0.4679805E+03  0.7818608E-02  0.1022492E+00
          2   -1    0    0  501    0  0.00000000000E+00  0.00000000000E+00  0.16242162390E+04  0.16242162390E+04  0.25500000000E-02 0.  1.
         -2   -1    0    0    0  501 -0.00000000000E+00 -0.00000000000E+00 -0.33709455146E+02  0.33709455242E+02  0.25500000000E-02 0. -1.
    5000001    1    1    2    0    0 -0.27920404306E+02 -0.13119199643E+03  0.66191534389E+03  0.70104693950E+03  0.18800000000E+03 0.  0.
   -5000001    1    1    2    0    0  0.27920404306E+02  0.13119199643E+03  0.92859143992E+03  0.95687875470E+03  0.18800000000E+03 0.  0.
<mgrwt>
<rscale>  0 0.46798053E+03</rscale>
<asrwt>0</asrwt>
<pdfrwt beam="1">  1        2 0.23203098E+00 0.46798053E+03</pdfrwt>
<pdfrwt beam="2">  1       -2 0.48156346E-02 0.46798053E+03</pdfrwt>
<totfact> 0.27960978E+03</totfact>
</mgrwt>
</event>
<event>
 4    1  0.2209668E-005  0.4829908E+03  0.7818608E-02  0.1018316E+00
         -2   -1    0    0    0  501 -0.00000000000E+00  0.00000000000E+00  0.12928061329E+03  0.12928061332E+03  0.25500000000E-02 0. -1.
          2   -1    0    0  501    0  0.00000000000E+00 -0.00000000000E+00 -0.45111185664E+03  0.45111185665E+03  0.25500000000E-02 0.  1.
    5000001    1    1    2    0    0 -0.70824373773E+02 -0.11146993826E+03 -0.71519767727E+02  0.24062567659E+03  0.18800000000E+03 0.  0.
   -5000001    1    1    2    0    0  0.70824373773E+02  0.11146993826E+03 -0.25031147562E+03  0.33976679338E+03  0.18800000000E+03 0.  0.
<mgrwt>
<rscale>  0 0.48299076E+03</rscale>
<asrwt>0</asrwt>
<pdfrwt beam="1">  1        2 0.64444550E-01 0.48299076E+03</pdfrwt>
<pdfrwt beam="2">  1       -2 0.18468659E-01 0.48299076E+03</pdfrwt>
<totfact> 0.18422388E+03</totfact>
</mgrwt>
</event>
<event>
 4    1  0.2209668E-005  0.6433800E+03  0.7818608E-02  0.9819281E-01
         -2   -1    0    0    0  501 -0.00000000000E+00  0.00000000000E+00  0.54071110704E+02  0.54071110764E+02  0.25500000000E-02 0. -1.
          2   -1    0    0  501    0  0.00000000000E+00 -0.00000000000E+00 -0.19138583999E+04  0.19138583999E+04  0.25500000000E-02 0.  1.
    5000001    1    1    2    0    0 -0.18437610458E+03 -0.18026596704E+03 -0.10541432009E+04  0.11013865147E+04  0.18800000000E+03 0.  0.
   -5000001    1    1    2    0    0  0.18437610458E+03  0.18026596704E+03 -0.80564408839E+03  0.86654299603E+03  0.18800000000E+03 0.  0.
<mgrwt>
<rscale>  0 0.64337998E+03</rscale>
<asrwt>0</asrwt>
<pdfrwt beam="1">  1        2 0.27340830E+00 0.64337998E+03</pdfrwt>
<pdfrwt beam="2">  1       -2 0.77244456E-02 0.64337998E+03</pdfrwt>
<totfact> 0.94662656E+02</totfact>
</mgrwt>
</event>
<event>
 4    1  0.2209668E-005  0.6912605E+03  0.7818608E-02  0.9732296E-01
         -2   -1    0    0    0  501 -0.00000000000E+00  0.00000000000E+00  0.88539358713E+02  0.88539358750E+02  0.25500000000E-02 0.  1.
          2   -1    0    0  501    0  0.00000000000E+00 -0.00000000000E+00 -0.13492334940E+04  0.13492334940E+04  0.25500000000E-02 0. -1.
    5000001    1    1    2    0    0 -0.16128272795E+03 -0.23846236129E+03 -0.70358456732E+03  0.78310386249E+03  0.18800000000E+03 0.  0.
   -5000001    1    1    2    0    0  0.16128272795E+03  0.23846236129E+03 -0.55710956798E+03  0.65466899027E+03  0.18800000000E+03 0.  0.
<mgrwt>
<rscale>  0 0.69126050E+03</rscale>
<asrwt>0</asrwt>
<pdfrwt beam="1">  1        2 0.19274763E+00 0.69126050E+03</pdfrwt>
<pdfrwt beam="2">  1       -2 0.12648481E-01 0.69126050E+03</pdfrwt>
<totfact> 0.83004846E+02</totfact>
</mgrwt>
</event>
<event>
 4    1  0.2209668E-005  0.6043168E+03  0.7818608E-02  0.9896490E-01
          2   -1    0    0  501    0  0.00000000000E+00  0.00000000000E+00  0.14588843461E+04  0.14588843461E+04  0.25500000000E-02 0.  1.
         -2   -1    0    0    0  501 -0.00000000000E+00 -0.00000000000E+00 -0.62581856770E+02  0.62581856822E+02  0.25500000000E-02 0. -1.
    5000001    1    1    2    0    0 -0.21885917367E+03 -0.83449421621E+02  0.78136934465E+03  0.83710524824E+03  0.18800000000E+03 0.  0.
   -5000001    1    1    2    0    0  0.21885917367E+03  0.83449421621E+02  0.61493314466E+03  0.68436095467E+03  0.18800000000E+03 0.  0.
<mgrwt>
<rscale>  0 0.60431678E+03</rscale>
<asrwt>0</asrwt>
<pdfrwt beam="1">  1        2 0.20841207E+00 0.60431678E+03</pdfrwt>
<pdfrwt beam="2">  1       -2 0.89402644E-02 0.60431678E+03</pdfrwt>
<totfact> 0.12826621E+03</totfact>
</mgrwt>
</event>
<event>
 4    1  0.2209668E-005  0.5100367E+03  0.7818608E-02  0.1011192E+00
          2   -1    0    0  501    0  0.00000000000E+00  0.00000000000E+00  0.18258291307E+04  0.18258291307E+04  0.25500000000E-02 0.  1.
         -2   -1    0    0    0  501 -0.00000000000E+00 -0.00000000000E+00 -0.35619077873E+02  0.35619077964E+02  0.25500000000E-02 0. -1.
    5000001    1    1    2    0    0  0.17144264784E+03 -0.14734604296E+02  0.92788274324E+03  0.96224740855E+03  0.18800000000E+03 0.  0.
   -5000001    1    1    2    0    0 -0.17144264784E+03  0.14734604296E+02  0.86232730954E+03  0.89920080007E+03  0.18800000000E+03 0.  0.
<mgrwt>
<rscale>  0 0.51003667E+03</rscale>
<asrwt>0</asrwt>
<pdfrwt beam="1">  1        2 0.26083273E+00 0.51003667E+03</pdfrwt>
<pdfrwt beam="2">  1       -2 0.50884397E-02 0.51003667E+03</pdfrwt>
<totfact> 0.20300252E+03</totfact>
</mgrwt>
</event>
<event>
 4    1  0.2209668E-005  0.8180888E+03  0.7818608E-02  0.9534197E-01
          2   -1    0    0  501    0  0.00000000000E+00  0.00000000000E+00  0.37845044724E+03  0.37845044724E+03  0.25500000000E-02 0.  1.
         -2   -1    0    0    0  501 -0.00000000000E+00 -0.00000000000E+00 -0.44211155798E+03  0.44211155798E+03  0.25500000000E-02 0. -1.
    5000001    1    1    2    0    0  0.12159562587E+03  0.34209510456E+03 -0.44468649411E+02  0.41126149537E+03  0.18800000000E+03 0.  0.
   -5000001    1    1    2    0    0 -0.12159562587E+03 -0.34209510456E+03 -0.19192461329E+02  0.40930050985E+03  0.18800000000E+03 0.  0.
<mgrwt>
<rscale>  0 0.81808879E+03</rscale>
<asrwt>0</asrwt>
<pdfrwt beam="1">  1        2 0.54064349E-01 0.81808879E+03</pdfrwt>
<pdfrwt beam="2">  1       -2 0.63158794E-01 0.81808879E+03</pdfrwt>
<totfact> 0.21509575E+02</totfact>
</mgrwt>
</event>
<event>
 4    1  0.2209668E-005  0.4871436E+03  0.7818608E-02  0.1017190E+00
         -2   -1    0    0    0  501 -0.00000000000E+00  0.00000000000E+00  0.29179330038E+03  0.29179330039E+03  0.25500000000E-02 0. -1.
          2   -1    0    0  501    0  0.00000000000E+00 -0.00000000000E+00 -0.20331931980E+03  0.20331931982E+03  0.25500000000E-02 0.  1.
    5000001    1    1    2    0    0 -0.13133953658E+03 -0.39601383346E+01 -0.39063877221E+02  0.23267089003E+03  0.18800000000E+03 0.  0.
   -5000001    1    1    2    0    0  0.13133953658E+03  0.39601383346E+01  0.12753785779E+03  0.26244173017E+03  0.18800000000E+03 0.  0.
<mgrwt>
<rscale>  0 0.48714357E+03</rscale>
<asrwt>0</asrwt>
<pdfrwt beam="1">  1        2 0.29045617E-01 0.48714357E+03</pdfrwt>
<pdfrwt beam="2">  1       -2 0.41684757E-01 0.48714357E+03</pdfrwt>
<totfact> 0.10080683E+03</totfact>
</mgrwt>
</event>
<event>
 4    1  0.2209668E-005  0.7065198E+03  0.7818608E-02  0.9706147E-01
          2   -1    0    0  501    0  0.00000000000E+00  0.00000000000E+00  0.36443866950E+04  0.36443866950E+04  0.25500000000E-02 0.  1.
         -2   -1    0    0    0  501 -0.00000000000E+00 -0.00000000000E+00 -0.34242403707E+02  0.34242403802E+02  0.25500000000E-02 0. -1.
    5000001    1    1    2    0    0  0.73164741935E+02  0.27933258719E+03  0.13994584572E+04  0.14412521456E+04  0.18800000000E+03 0.  0.
   -5000001    1    1    2    0    0 -0.73164741935E+02 -0.27933258719E+03  0.22106858340E+04  0.22373769532E+04  0.18800000000E+03 0.  0.
<mgrwt>
<rscale>  0 0.70651981E+03</rscale>
<asrwt>0</asrwt>
<pdfrwt beam="1">  1        2 0.52062649E+00 0.70651981E+03</pdfrwt>
<pdfrwt beam="2">  1       -2 0.48917736E-02 0.70651981E+03</pdfrwt>
<totfact> 0.22491665E+02</totfact>
</mgrwt>
</event>
<event>
 4    1  0.2209668E-005  0.4931745E+03  0.7818608E-02  0.1015576E+00
         -2   -1    0    0    0  501 -0.00000000000E+00  0.00000000000E+00  0.26808472538E+02  0.26808472659E+02  0.25500000000E-02 0. -1.
          2   -1    0    0  501    0  0.00000000000E+00 -0.00000000000E+00 -0.22681368225E+04  0.22681368225E+04  0.25500000000E-02 0.  1.
    5000001    1    1    2    0    0  0.92646646814E+02  0.26315623027E+02 -0.52864877112E+03  0.56928853527E+03  0.18800000000E+03 0.  0.
   -5000001    1    1    2    0    0 -0.92646646814E+02 -0.26315623027E+02 -0.17126795789E+04  0.17256567599E+04  0.18800000000E+03 0.  0.
<mgrwt>
<rscale>  0 0.49317455E+03</rscale>
<asrwt>0</asrwt>
<pdfrwt beam="1">  1        2 0.32401942E+00 0.49317455E+03</pdfrwt>
<pdfrwt beam="2">  1       -2 0.38297832E-02 0.49317455E+03</pdfrwt>
<totfact> 0.18894212E+03</totfact>
</mgrwt>
</event>
<event>
 4    1  0.2209668E-005  0.7875957E+03  0.7818608E-02  0.9578147E-01
         -2   -1    0    0    0  501 -0.00000000000E+00  0.00000000000E+00  0.99636259234E+02  0.99636259266E+02  0.25500000000E-02 0. -1.
          2   -1    0    0  501    0  0.00000000000E+00 -0.00000000000E+00 -0.15564287075E+04  0.15564287075E+04  0.25500000000E-02 0.  1.
    5000001    1    1    2    0    0 -0.24573243065E+03 -0.94810356996E+01 -0.21653872219E+03  0.37776624481E+03  0.18800000000E+03 0.  0.
   -5000001    1    1    2    0    0  0.24573243065E+03  0.94810356996E+01 -0.12402537261E+04  0.12782987220E+04  0.18800000000E+03 0.  0.
<mgrwt>
<rscale>  0 0.78759567E+03</rscale>
<asrwt>0</asrwt>
<pdfrwt beam="1">  1        2 0.22234694E+00 0.78759567E+03</pdfrwt>
<pdfrwt beam="2">  1       -2 0.14233752E-01 0.78759567E+03</pdfrwt>
<totfact> 0.52685209E+02</totfact>
</mgrwt>
</event>
<event>
 4    1  0.2209668E-005  0.4979779E+03  0.7818608E-02  0.1014308E+00
          2   -1    0    0  501    0  0.00000000000E+00  0.00000000000E+00  0.31697315067E+04  0.31697315067E+04  0.25500000000E-02 0.  1.
         -2   -1    0    0    0  501 -0.00000000000E+00 -0.00000000000E+00 -0.19558593364E+02  0.19558593530E+02  0.25500000000E-02 0. -1.
    5000001    1    1    2    0    0 -0.14988439315E+03 -0.56631160165E+02  0.13746895967E+04  0.13967060918E+04  0.18800000000E+03 0.  0.
   -5000001    1    1    2    0    0  0.14988439315E+03  0.56631160165E+02  0.17754833166E+04  0.17925840084E+04  0.18800000000E+03 0.  0.
<mgrwt>
<rscale>  0 0.49797787E+03</rscale>
<asrwt>0</asrwt>
<pdfrwt beam="1">  1        2 0.45281836E+00 0.49797787E+03</pdfrwt>
<pdfrwt beam="2">  1       -2 0.27940874E-02 0.49797787E+03</pdfrwt>
<totfact> 0.10277441E+03</totfact>
</mgrwt>
</event>
<event>
 4    1  0.2209668E-005  0.7458064E+03  0.7818608E-02  0.9641953E-01
         -2   -1    0    0    0  501 -0.00000000000E+00  0.00000000000E+00  0.10042280593E+03  0.10042280596E+03  0.25500000000E-02 0. -1.
          2   -1    0    0  501    0  0.00000000000E+00 -0.00000000000E+00 -0.13847132857E+04  0.13847132857E+04  0.25500000000E-02 0.  1.
    5000001    1    1    2    0    0 -0.30858608059E+03  0.60209783483E+02 -0.78099874511E+03  0.86264339505E+03  0.18800000000E+03 0.  0.
   -5000001    1    1    2    0    0  0.30858608059E+03 -0.60209783483E+02 -0.50329173467E+03  0.62249269662E+03  0.18800000000E+03 0.  0.
<mgrwt>
<rscale>  0 0.74580639E+03</rscale>
<asrwt>0</asrwt>
<pdfrwt beam="1">  1        2 0.19781617E+00 0.74580639E+03</pdfrwt>
<pdfrwt beam="2">  1       -2 0.14346116E-01 0.74580639E+03</pdfrwt>
<totfact> 0.64209485E+02</totfact>
</mgrwt>
</event>
<event>
 4    1  0.2209668E-005  0.4878434E+03  0.7818608E-02  0.1017002E+00
          2   -1    0    0  501    0  0.00000000000E+00  0.00000000000E+00  0.10882933434E+04  0.10882933434E+04  0.25500000000E-02 0.  1.
         -2   -1    0    0    0  501 -0.00000000000E+00 -0.00000000000E+00 -0.54670724626E+02  0.54670724685E+02  0.25500000000E-02 0. -1.
    5000001    1    1    2    0    0  0.15235231498E+03 -0.53321878830E+01  0.58764748742E+03  0.63554168202E+03  0.18800000000E+03 0.  0.
   -5000001    1    1    2    0    0 -0.15235231498E+03  0.53321878830E+01  0.44597513138E+03  0.50742238610E+03  0.18800000000E+03 0.  0.
<mgrwt>
<rscale>  0 0.48784336E+03</rscale>
<asrwt>0</asrwt>
<pdfrwt beam="1">  1        2 0.15547046E+00 0.48784336E+03</pdfrwt>
<pdfrwt beam="2">  1       -2 0.78101043E-02 0.48784336E+03</pdfrwt>
<totfact> 0.25461341E+03</totfact>
</mgrwt>
</event>
<event>
 4    1  0.2209668E-005  0.4404854E+03  0.7818608E-02  0.1030598E+00
          2   -1    0    0  501    0  0.00000000000E+00  0.00000000000E+00  0.14812812408E+04  0.14812812408E+04  0.25500000000E-02 0.  1.
         -2   -1    0    0    0  501 -0.00000000000E+00 -0.00000000000E+00 -0.32746551898E+02  0.32746551997E+02  0.25500000000E-02 0. -1.
    5000001    1    1    2    0    0 -0.53604010994E+02  0.10123914282E+03  0.74603288501E+03  0.77783791342E+03  0.18800000000E+03 0.  0.
   -5000001    1    1    2    0    0  0.53604010994E+02 -0.10123914282E+03  0.70250180390E+03  0.73618987939E+03  0.18800000000E+03 0.  0.
<mgrwt>
<rscale>  0 0.44048543E+03</rscale>
<asrwt>0</asrwt>
<pdfrwt beam="1">  1        2 0.21161161E+00 0.44048543E+03</pdfrwt>
<pdfrwt beam="2">  1       -2 0.46780788E-02 0.44048543E+03</pdfrwt>
<totfact> 0.34609790E+03</totfact>
</mgrwt>
</event>
<event>
 4    1  0.2209668E-005  0.5636790E+03  0.7818608E-02  0.9983764E-01
          2   -1    0    0  501    0  0.00000000000E+00  0.00000000000E+00  0.21062822665E+04  0.21062822665E+04  0.25500000000E-02 0.  1.
         -2   -1    0    0    0  501 -0.00000000000E+00 -0.00000000000E+00 -0.37712657618E+02  0.37712657705E+02  0.25500000000E-02 0. -1.
    5000001    1    1    2    0    0 -0.17309750145E+03 -0.96385368023E+02  0.12988074093E+04  0.13272142143E+04  0.18800000000E+03 0.  0.
   -5000001    1    1    2    0    0  0.17309750145E+03  0.96385368023E+02  0.76976219957E+03  0.81678070990E+03  0.18800000000E+03 0.  0.
<mgrwt>
<rscale>  0 0.56367899E+03</rscale>
<asrwt>0</asrwt>
<pdfrwt beam="1">  1        2 0.30089747E+00 0.56367899E+03</pdfrwt>
<pdfrwt beam="2">  1       -2 0.53875225E-02 0.56367899E+03</pdfrwt>
<totfact> 0.13413740E+03</totfact>
</mgrwt>
</event>
<event>
 4    1  0.2209668E-005  0.1063519E+04  0.7818608E-02  0.9241497E-01
         -2   -1    0    0    0  501 -0.00000000000E+00  0.00000000000E+00  0.53519857205E+03  0.53519857205E+03  0.25500000000E-02 0.  1.
          2   -1    0    0  501    0  0.00000000000E+00 -0.00000000000E+00 -0.52834259148E+03  0.52834259148E+03  0.25500000000E-02 0. -1.
    5000001    1    1    2    0    0  0.48899993200E+03  0.54995917501E+02  0.76084273184E+02  0.53223895110E+03  0.18800000000E+03 0.  0.
   -5000001    1    1    2    0    0 -0.48899993200E+03 -0.54995917501E+02 -0.69228292615E+02  0.53130221244E+03  0.18800000000E+03 0.  0.
<mgrwt>
<rscale>  0 0.10635191E+04</rscale>
<asrwt>0</asrwt>
<pdfrwt beam="1">  1        2 0.75477513E-01 0.10635191E+04</pdfrwt>
<pdfrwt beam="2">  1       -2 0.76456939E-01 0.10635191E+04</pdfrwt>
<totfact> 0.96005392E+01</totfact>
</mgrwt>
</event>
<event>
 4    1  0.2209668E-005  0.5403050E+03  0.7818608E-02  0.1003763E+00
          2   -1    0    0  501    0  0.00000000000E+00  0.00000000000E+00  0.59113114629E+03  0.59113114629E+03  0.25500000000E-02 0.  1.
         -2   -1    0    0    0  501 -0.00000000000E+00 -0.00000000000E+00 -0.12346223053E+03  0.12346223055E+03  0.25500000000E-02 0. -1.
    5000001    1    1    2    0    0 -0.13725154601E+03  0.11050052865E+03  0.12646932900E+03  0.28703108698E+03  0.18800000000E+03 0.  0.
   -5000001    1    1    2    0    0  0.13725154601E+03 -0.11050052865E+03  0.34119958676E+03  0.42756228987E+03  0.18800000000E+03 0.  0.
<mgrwt>
<rscale>  0 0.54030499E+03</rscale>
<asrwt>0</asrwt>
<pdfrwt beam="1">  1        2 0.84447308E-01 0.54030499E+03</pdfrwt>
<pdfrwt beam="2">  1       -2 0.17637461E-01 0.54030499E+03</pdfrwt>
<totfact> 0.14654941E+03</totfact>
</mgrwt>
</event>
<event>
 4    1  0.2209668E-005  0.8201072E+03  0.7818608E-02  0.9531360E-01
         -2   -1    0    0    0  501 -0.00000000000E+00  0.00000000000E+00  0.30783302313E+03  0.30783302314E+03  0.25500000000E-02 0. -1.
          2   -1    0    0  501    0  0.00000000000E+00 -0.00000000000E+00 -0.54621810048E+03  0.54621810049E+03  0.25500000000E-02 0.  1.
    5000001    1    1    2    0    0  0.33932544075E+03  0.45222897535E+02  0.10931594966E+02  0.39070495898E+03  0.18800000000E+03 0.  0.
   -5000001    1    1    2    0    0 -0.33932544075E+03 -0.45222897535E+02 -0.24931667232E+03  0.46334616465E+03  0.18800000000E+03 0.  0.
<mgrwt>
<rscale>  0 0.82010723E+03</rscale>
<asrwt>0</asrwt>
<pdfrwt beam="1">  1        2 0.78031157E-01 0.82010723E+03</pdfrwt>
<pdfrwt beam="2">  1       -2 0.43976146E-01 0.82010723E+03</pdfrwt>
<totfact> 0.29865354E+02</totfact>
</mgrwt>
</event>
<event>
 4    1  0.2209668E-005  0.5504190E+03  0.7818608E-02  0.1001397E+00
          2   -1    0    0  501    0  0.00000000000E+00  0.00000000000E+00  0.40368056731E+03  0.40368056731E+03  0.25500000000E-02 0.  1.
         -2   -1    0    0    0  501 -0.00000000000E+00 -0.00000000000E+00 -0.18762427407E+03  0.18762427408E+03  0.25500000000E-02 0. -1.
    5000001    1    1    2    0    0 -0.19038084003E+03 -0.55288445990E+02  0.72485880782E+02  0.28266566721E+03  0.18800000000E+03 0.  0.
   -5000001    1    1    2    0    0  0.19038084003E+03  0.55288445990E+02  0.14357041246E+03  0.30863917419E+03  0.18800000000E+03 0.  0.
<mgrwt>
<rscale>  0 0.55041902E+03</rscale>
<asrwt>0</asrwt>
<pdfrwt beam="1">  1        2 0.57668653E-01 0.55041902E+03</pdfrwt>
<pdfrwt beam="2">  1       -2 0.26803467E-01 0.55041902E+03</pdfrwt>
<totfact> 0.10817199E+03</totfact>
</mgrwt>
</event>
<event>
 4    1  0.2209668E-005  0.4914787E+03  0.7818608E-02  0.1016027E+00
          2   -1    0    0  501    0  0.00000000000E+00  0.00000000000E+00  0.32845828542E+04  0.32845828542E+04  0.25500000000E-02 0.  1.
         -2   -1    0    0    0  501 -0.00000000000E+00 -0.00000000000E+00 -0.18385236316E+02  0.18385236493E+02  0.25500000000E-02 0. -1.
    5000001    1    1    2    0    0 -0.54772760979E+02 -0.14420728699E+03  0.13956811066E+04  0.14167094086E+04  0.18800000000E+03 0.  0.
   -5000001    1    1    2    0    0  0.54772760979E+02  0.14420728699E+03  0.18705165113E+04  0.18862586822E+04  0.18800000000E+03 0.  0.
<mgrwt>
<rscale>  0 0.49147872E+03</rscale>
<asrwt>0</asrwt>
<pdfrwt beam="1">  1        2 0.46922615E+00 0.49147872E+03</pdfrwt>
<pdfrwt beam="2">  1       -2 0.26264622E-02 0.49147872E+03</pdfrwt>
<totfact> 0.97337522E+02</totfact>
</mgrwt>
</event>
<event>
 4    1  0.2209668E-005  0.4387682E+03  0.7818608E-02  0.1031125E+00
         -2   -1    0    0    0  501 -0.00000000000E+00  0.00000000000E+00  0.67727335943E+02  0.67727335991E+02  0.25500000000E-02 0. -1.
          2   -1    0    0  501    0  0.00000000000E+00 -0.00000000000E+00 -0.71063458787E+03  0.71063458788E+03  0.25500000000E-02 0.  1.
    5000001    1    1    2    0    0  0.42364576651E+02  0.95096909880E+02 -0.39973394322E+03  0.45383852303E+03  0.18800000000E+03 0.  0.
   -5000001    1    1    2    0    0 -0.42364576651E+02 -0.95096909880E+02 -0.24317330871E+03  0.32452340084E+03  0.18800000000E+03 0.  0.
<mgrwt>
<rscale>  0 0.43876822E+03</rscale>
<asrwt>0</asrwt>
<pdfrwt beam="1">  1        2 0.10151922E+00 0.43876822E+03</pdfrwt>
<pdfrwt beam="2">  1       -2 0.96753341E-02 0.43876822E+03</pdfrwt>
<totfact> 0.31740901E+03</totfact>
</mgrwt>
</event>
<event>
 4    1  0.2209668E-005  0.7917406E+03  0.7818608E-02  0.9572050E-01
          2   -1    0    0  501    0  0.00000000000E+00  0.00000000000E+00  0.14020726452E+04  0.14020726452E+04  0.25500000000E-02 0.  1.
         -2   -1    0    0    0  501 -0.00000000000E+00 -0.00000000000E+00 -0.11177259179E+03  0.11177259182E+03  0.25500000000E-02 0. -1.
    5000001    1    1    2    0    0  0.25519440394E+03  0.23707327080E+03  0.63285124939E+03  0.74643996636E+03  0.18800000000E+03 0.  0.
   -5000001    1    1    2    0    0 -0.25519440394E+03 -0.23707327080E+03  0.65744880398E+03  0.76740527062E+03  0.18800000000E+03 0.  0.
<mgrwt>
<rscale>  0 0.79174060E+03</rscale>
<asrwt>0</asrwt>
<pdfrwt beam="1">  1        2 0.20029609E+00 0.79174060E+03</pdfrwt>
<pdfrwt beam="2">  1       -2 0.15967514E-01 0.79174060E+03</pdfrwt>
<totfact> 0.52314972E+02</totfact>
</mgrwt>
</event>
<event>
 4    1  0.2209668E-005  0.7893077E+03  0.7818608E-02  0.9575624E-01
          2   -1    0    0  501    0  0.00000000000E+00  0.00000000000E+00  0.10078110802E+04  0.10078110803E+04  0.25500000000E-02 0.  1.
         -2   -1    0    0    0  501 -0.00000000000E+00 -0.00000000000E+00 -0.15454450791E+03  0.15454450793E+03  0.25500000000E-02 0. -1.
    5000001    1    1    2    0    0 -0.21058909489E+03  0.15762555484E+03  0.75989649295E+03  0.82582096270E+03  0.18800000000E+03 0.  0.
   -5000001    1    1    2    0    0  0.21058909489E+03 -0.15762555484E+03  0.93370079385E+02  0.33653462549E+03  0.18800000000E+03 0.  0.
<mgrwt>
<rscale>  0 0.78930772E+03</rscale>
<asrwt>0</asrwt>
<pdfrwt beam="1">  1        2 0.14397301E+00 0.78930772E+03</pdfrwt>
<pdfrwt beam="2">  1       -2 0.22077787E-01 0.78930772E+03</pdfrwt>
<totfact> 0.49905979E+02</totfact>
</mgrwt>
</event>
<event>
 4    1  0.2209668E-005  0.8789080E+03  0.7818608E-02  0.9452338E-01
          2   -1    0    0  501    0  0.00000000000E+00  0.00000000000E+00  0.10838523609E+04  0.10838523609E+04  0.25500000000E-02 0.  1.
         -2   -1    0    0    0  501 -0.00000000000E+00 -0.00000000000E+00 -0.17817907501E+03  0.17817907503E+03  0.25500000000E-02 0. -1.
    5000001    1    1    2    0    0  0.33409664870E+03  0.32153142444E+02  0.75784948341E+03  0.84990248543E+03  0.18800000000E+03 0.  0.
   -5000001    1    1    2    0    0 -0.33409664870E+03 -0.32153142444E+02  0.14782380245E+03  0.41212895047E+03  0.18800000000E+03 0.  0.
<mgrwt>
<rscale>  0 0.87890798E+03</rscale>
<asrwt>0</asrwt>
<pdfrwt beam="1">  1        2 0.15483606E+00 0.87890798E+03</pdfrwt>
<pdfrwt beam="2">  1       -2 0.25454153E-01 0.87890798E+03</pdfrwt>
<totfact> 0.34667221E+02</totfact>
</mgrwt>
</event>
<event>
 4    1  0.2209668E-005  0.7422183E+03  0.7818608E-02  0.9647638E-01
         -2   -1    0    0    0  501 -0.00000000000E+00  0.00000000000E+00  0.14321793882E+03  0.14321793884E+03  0.25500000000E-02 0. -1.
          2   -1    0    0  501    0  0.00000000000E+00 -0.00000000000E+00 -0.96162532774E+03  0.96162532775E+03  0.25500000000E-02 0.  1.
    5000001    1    1    2    0    0  0.25031533838E+03  0.13603386458E+03 -0.62601938470E+03  0.71302682345E+03  0.18800000000E+03 0.  0.
   -5000001    1    1    2    0    0 -0.25031533838E+03 -0.13603386458E+03 -0.19238800423E+03  0.39181644314E+03  0.18800000000E+03 0.  0.
<mgrwt>
<rscale>  0 0.74221829E+03</rscale>
<asrwt>0</asrwt>
<pdfrwt beam="1">  1        2 0.13737504E+00 0.74221829E+03</pdfrwt>
<pdfrwt beam="2">  1       -2 0.20459706E-01 0.74221829E+03</pdfrwt>
<totfact> 0.61068524E+02</totfact>
</mgrwt>
</event>
<event>
 4    1  0.2209668E-005  0.5787795E+03  0.7818608E-02  0.9950437E-01
         -2   -1    0    0    0  501 -0.00000000000E+00  0.00000000000E+00  0.27402887292E+02  0.27402887410E+02  0.25500000000E-02 0. -1.
          2   -1    0    0  501    0  0.00000000000E+00 -0.00000000000E+00 -0.30561166011E+04  0.30561166011E+04  0.25500000000E-02 0.  1.
    5000001    1    1    2    0    0  0.87865295745E+02  0.16963818853E+03 -0.93305974516E+03  0.97079447528E+03  0.18800000000E+03 0.  0.
   -5000001    1    1    2    0    0 -0.87865295745E+02 -0.16963818853E+03 -0.20956539687E+04  0.21127250132E+04  0.18800000000E+03 0.  0.
<mgrwt>
<rscale>  0 0.57877947E+03</rscale>
<asrwt>0</asrwt>
<pdfrwt beam="1">  1        2 0.43658787E+00 0.57877947E+03</pdfrwt>
<pdfrwt beam="2">  1       -2 0.39147001E-02 0.57877947E+03</pdfrwt>
<totfact> 0.70510055E+02</totfact>
</mgrwt>
</event>
<event>
 4    1  0.2209668E-005  0.1083842E+04  0.7818608E-02  0.9221085E-01
          2   -1    0    0  501    0  0.00000000000E+00  0.00000000000E+00  0.48423820208E+03  0.48423820208E+03  0.25500000000E-02 0.  1.
         -2   -1    0    0    0  501 -0.00000000000E+00 -0.00000000000E+00 -0.60647545402E+03  0.60647545402E+03  0.25500000000E-02 0. -1.
    5000001    1    1    2    0    0 -0.39816827460E+03 -0.31222354874E+03 -0.12719395326E+02  0.53993268312E+03  0.18800000000E+03 0.  0.
   -5000001    1    1    2    0    0  0.39816827460E+03  0.31222354874E+03 -0.10951785661E+03  0.55078097299E+03  0.18800000000E+03 0.  0.
<mgrwt>
<rscale>  0 0.10838424E+04</rscale>
<asrwt>0</asrwt>
<pdfrwt beam="1">  1        2 0.69176886E-01 0.10838424E+04</pdfrwt>
<pdfrwt beam="2">  1       -2 0.86639351E-01 0.10838424E+04</pdfrwt>
<totfact> 0.79935799E+01</totfact>
</mgrwt>
</event>
<event>
 4    1  0.2209668E-005  0.4747160E+03  0.7818608E-02  0.1020598E+00
         -2   -1    0    0    0  501 -0.00000000000E+00  0.00000000000E+00  0.23336651942E+02  0.23336652081E+02  0.25500000000E-02 0. -1.
          2   -1    0    0  501    0  0.00000000000E+00 -0.00000000000E+00 -0.24141770320E+04  0.24141770320E+04  0.25500000000E-02 0.  1.
    5000001    1    1    2    0    0  0.12729917469E+03 -0.66173522905E+02 -0.10913502199E+04  0.11166795948E+04  0.18800000000E+03 0.  0.
   -5000001    1    1    2    0    0 -0.12729917469E+03  0.66173522905E+02 -0.12994901602E+04  0.13208340893E+04  0.18800000000E+03 0.  0.
<mgrwt>
<rscale>  0 0.47471595E+03</rscale>
<asrwt>0</asrwt>
<pdfrwt beam="1">  1        2 0.34488227E+00 0.47471595E+03</pdfrwt>
<pdfrwt beam="2">  1       -2 0.33338090E-02 0.47471595E+03</pdfrwt>
<totfact> 0.19719526E+03</totfact>
</mgrwt>
</event>
<event>
 4    1  0.2209668E-005  0.4795955E+03  0.7818608E-02  0.1019246E+00
          2   -1    0    0  501    0  0.00000000000E+00  0.00000000000E+00  0.25640218286E+03  0.25640218287E+03  0.25500000000E-02 0.  1.
         -2   -1    0    0    0  501 -0.00000000000E+00 -0.00000000000E+00 -0.22426857751E+03  0.22426857752E+03  0.25500000000E-02 0. -1.
    5000001    1    1    2    0    0  0.61922886754E+02  0.10022809969E+03 -0.75125314820E+02  0.23423904200E+03  0.18800000000E+03 0.  0.
   -5000001    1    1    2    0    0 -0.61922886754E+02 -0.10022809969E+03  0.10725892017E+03  0.24643171839E+03  0.18800000000E+03 0.  0.
<mgrwt>
<rscale>  0 0.47959547E+03</rscale>
<asrwt>0</asrwt>
<pdfrwt beam="1">  1        2 0.36628883E-01 0.47959547E+03</pdfrwt>
<pdfrwt beam="2">  1       -2 0.32038368E-01 0.47959547E+03</pdfrwt>
<totfact> 0.12852179E+03</totfact>
</mgrwt>
</event>
<event>
 4    1  0.2209668E-005  0.4492876E+03  0.7818608E-02  0.1027935E+00
          2   -1    0    0  501    0  0.00000000000E+00  0.00000000000E+00  0.54791586942E+02  0.54791587001E+02  0.25500000000E-02 0.  1.
         -2   -1    0    0    0  501 -0.00000000000E+00 -0.00000000000E+00 -0.92103276378E+03  0.92103276379E+03  0.25500000000E-02 0. -1.
    5000001    1    1    2    0    0  0.10874816515E+03 -0.55235578454E+02 -0.46702745229E+03  0.51801136449E+03  0.18800000000E+03 0.  0.
   -5000001    1    1    2    0    0 -0.10874816515E+03  0.55235578454E+02 -0.39921372455E+03  0.45781298630E+03  0.18800000000E+03 0.  0.
<mgrwt>
<rscale>  0 0.44928764E+03</rscale>
<asrwt>0</asrwt>
<pdfrwt beam="1">  1        2 0.78273701E-02 0.44928764E+03</pdfrwt>
<pdfrwt beam="2">  1       -2 0.13157610E+00 0.44928764E+03</pdfrwt>
<totfact> 0.38869373E+02</totfact>
</mgrwt>
</event>
<event>
 4    1  0.2209668E-005  0.6492486E+03  0.7818608E-02  0.9808190E-01
         -2   -1    0    0    0  501 -0.00000000000E+00  0.00000000000E+00  0.13807188155E+03  0.13807188157E+03  0.25500000000E-02 0. -1.
          2   -1    0    0  501    0  0.00000000000E+00 -0.00000000000E+00 -0.76323242599E+03  0.76323242600E+03  0.25500000000E-02 0.  1.
    5000001    1    1    2    0    0 -0.91996990427E+02  0.22417809550E+03 -0.46026615450E+03  0.55308968326E+03  0.18800000000E+03 0.  0.
   -5000001    1    1    2    0    0  0.91996990427E+02 -0.22417809550E+03 -0.16489438994E+03  0.34821462431E+03  0.18800000000E+03 0.  0.
<mgrwt>
<rscale>  0 0.64924860E+03</rscale>
<asrwt>0</asrwt>
<pdfrwt beam="1">  1        2 0.10903320E+00 0.64924860E+03</pdfrwt>
<pdfrwt beam="2">  1       -2 0.19724555E-01 0.64924860E+03</pdfrwt>
<totfact> 0.88547988E+02</totfact>
</mgrwt>
</event>
<event>
 4    1  0.2209668E-005  0.6551881E+03  0.7818608E-02  0.9797092E-01
          2   -1    0    0  501    0  0.00000000000E+00  0.00000000000E+00  0.75941654366E+03  0.75941654366E+03  0.25500000000E-02 0.  1.
         -2   -1    0    0    0  501 -0.00000000000E+00 -0.00000000000E+00 -0.14131622274E+03  0.14131622276E+03  0.25500000000E-02 0. -1.
    5000001    1    1    2    0    0  0.18667973806E+03 -0.19221581661E+03  0.29072738010E+03  0.43779293541E+03  0.18800000000E+03 0.  0.
   -5000001    1    1    2    0    0 -0.18667973806E+03  0.19221581661E+03  0.32737294082E+03  0.46293983101E+03  0.18800000000E+03 0.  0.
<mgrwt>
<rscale>  0 0.65518815E+03</rscale>
<asrwt>0</asrwt>
<pdfrwt beam="1">  1        2 0.10848808E+00 0.65518815E+03</pdfrwt>
<pdfrwt beam="2">  1       -2 0.20188031E-01 0.65518815E+03</pdfrwt>
<totfact> 0.85559917E+02</totfact>
</mgrwt>
</event>
<event>
 4    1  0.2209668E-005  0.4408628E+03  0.7818608E-02  0.1030482E+00
          2   -1    0    0  501    0  0.00000000000E+00  0.00000000000E+00  0.19912983689E+04  0.19912983689E+04  0.25500000000E-02 0.  1.
         -2   -1    0    0    0  501 -0.00000000000E+00 -0.00000000000E+00 -0.24401164535E+02  0.24401164668E+02  0.25500000000E-02 0. -1.
    5000001    1    1    2    0    0 -0.74715105918E+02 -0.87448496918E+02  0.96492560924E+03  0.98977523612E+03  0.18800000000E+03 0.  0.
   -5000001    1    1    2    0    0  0.74715105918E+02  0.87448496918E+02  0.10019715952E+04  0.10259242975E+04  0.18800000000E+03 0.  0.
<mgrwt>
<rscale>  0 0.44086279E+03</rscale>
<asrwt>0</asrwt>
<pdfrwt beam="1">  1        2 0.28447120E+00 0.44086279E+03</pdfrwt>
<pdfrwt beam="2">  1       -2 0.34858806E-02 0.44086279E+03</pdfrwt>
<totfact> 0.30025987E+03</totfact>
</mgrwt>
</event>
<event>
 4    1  0.2209668E-005  0.5155990E+03  0.7818608E-02  0.1009786E+00
         -2   -1    0    0    0  501 -0.00000000000E+00  0.00000000000E+00  0.31175515268E+03  0.31175515269E+03  0.25500000000E-02 0. -1.
          2   -1    0    0  501    0  0.00000000000E+00 -0.00000000000E+00 -0.21318195132E+03  0.21318195133E+03  0.25500000000E-02 0.  1.
    5000001    1    1    2    0    0 -0.85509875473E+02  0.15078500887E+03  0.82566757546E+02  0.26871793233E+03  0.18800000000E+03 0.  0.
   -5000001    1    1    2    0    0  0.85509875473E+02 -0.15078500887E+03  0.16006443816E+02  0.25621917170E+03  0.18800000000E+03 0.  0.
<mgrwt>
<rscale>  0 0.51559896E+03</rscale>
<asrwt>0</asrwt>
<pdfrwt beam="1">  1        2 0.30454565E-01 0.51559896E+03</pdfrwt>
<pdfrwt beam="2">  1       -2 0.44536450E-01 0.51559896E+03</pdfrwt>
<totfact> 0.83964202E+02</totfact>
</mgrwt>
</event>
<event>
 4    1  0.2209668E-005  0.6703964E+03  0.7818608E-02  0.9769242E-01
         -2   -1    0    0    0  501 -0.00000000000E+00  0.00000000000E+00  0.14213497855E+03  0.14213497858E+03  0.25500000000E-02 0. -1.
          2   -1    0    0  501    0  0.00000000000E+00 -0.00000000000E+00 -0.79050085437E+03  0.79050085438E+03  0.25500000000E-02 0.  1.
    5000001    1    1    2    0    0  0.23826871358E+03 -0.14174076626E+03 -0.30706547036E+03  0.45441789994E+03  0.18800000000E+03 0.  0.
   -5000001    1    1    2    0    0 -0.23826871358E+03  0.14174076626E+03 -0.34130040546E+03  0.47821793302E+03  0.18800000000E+03 0.  0.
<mgrwt>
<rscale>  0 0.67039637E+03</rscale>
<asrwt>0</asrwt>
<pdfrwt beam="1">  1        2 0.11292869E+00 0.67039637E+03</pdfrwt>
<pdfrwt beam="2">  1       -2 0.20304997E-01 0.67039637E+03</pdfrwt>
<totfact> 0.80471298E+02</totfact>
</mgrwt>
</event>
<event>
 4    1  0.2209668E-005  0.7407566E+03  0.7818608E-02  0.9649964E-01
          2   -1    0    0  501    0  0.00000000000E+00  0.00000000000E+00  0.17706561230E+04  0.17706561230E+04  0.25500000000E-02 0.  1.
         -2   -1    0    0    0  501 -0.00000000000E+00 -0.00000000000E+00 -0.77474152108E+02  0.77474152150E+02  0.25500000000E-02 0. -1.
    5000001    1    1    2    0    0 -0.17651099472E+03 -0.22787298544E+03  0.50492455388E+03  0.61104421596E+03  0.18800000000E+03 0.  0.
   -5000001    1    1    2    0    0  0.17651099472E+03  0.22787298544E+03  0.11882574170E+04  0.12370860592E+04  0.18800000000E+03 0.  0.
<mgrwt>
<rscale>  0 0.74075659E+03</rscale>
<asrwt>0</asrwt>
<pdfrwt beam="1">  1        2 0.25295086E+00 0.74075659E+03</pdfrwt>
<pdfrwt beam="2">  1       -2 0.11067737E-01 0.74075659E+03</pdfrwt>
<totfact> 0.62227786E+02</totfact>
</mgrwt>
</event>
<event>
 4    1  0.2209668E-005  0.5254516E+03  0.7818608E-02  0.1007341E+00
          2   -1    0    0  501    0  0.00000000000E+00  0.00000000000E+00  0.26381711217E+03  0.26381711218E+03  0.25500000000E-02 0.  1.
         -2   -1    0    0    0  501 -0.00000000000E+00 -0.00000000000E+00 -0.26163897212E+03  0.26163897213E+03  0.25500000000E-02 0. -1.
    5000001    1    1    2    0    0 -0.11110118314E+03  0.10401438630E+03  0.10364906881E+03  0.26315317767E+03  0.18800000000E+03 0.  0.
   -5000001    1    1    2    0    0  0.11110118314E+03 -0.10401438630E+03 -0.10147092876E+03  0.26230290665E+03  0.18800000000E+03 0.  0.
<mgrwt>
<rscale>  0 0.52545157E+03</rscale>
<asrwt>0</asrwt>
<pdfrwt beam="1">  1        2 0.37688159E-01 0.52545157E+03</pdfrwt>
<pdfrwt beam="2">  1       -2 0.37376996E-01 0.52545157E+03</pdfrwt>
<totfact> 0.93150190E+02</totfact>
</mgrwt>
</event>
<event>
 4    1  0.2209668E-005  0.5622303E+03  0.7818608E-02  0.9987021E-01
         -2   -1    0    0    0  501 -0.00000000000E+00  0.00000000000E+00  0.16087843994E+02  0.16087844196E+02  0.25500000000E-02 0. -1.
          2   -1    0    0  501    0  0.00000000000E+00 -0.00000000000E+00 -0.49121387370E+04  0.49121387370E+04  0.25500000000E-02 0.  1.
    5000001    1    1    2    0    0  0.12362193232E+03 -0.16399077063E+03 -0.27882313586E+04  0.28020980468E+04  0.18800000000E+03 0.  0.
   -5000001    1    1    2    0    0 -0.12362193232E+03  0.16399077063E+03 -0.21078195344E+04  0.21261285344E+04  0.18800000000E+03 0.  0.
<mgrwt>
<rscale>  0 0.56223028E+03</rscale>
<asrwt>0</asrwt>
<pdfrwt beam="1">  1        2 0.70173315E+00 0.56223028E+03</pdfrwt>
<pdfrwt beam="2">  1       -2 0.22982666E-02 0.56223028E+03</pdfrwt>
<totfact> 0.85620872E+01</totfact>
</mgrwt>
</event>
<event>
 4    1  0.2209668E-005  0.9724918E+03  0.7818608E-02  0.9339241E-01
          2   -1    0    0  501    0  0.00000000000E+00  0.00000000000E+00  0.21968465571E+04  0.21968465571E+04  0.25500000000E-02 0.  1.
         -2   -1    0    0    0  501 -0.00000000000E+00 -0.00000000000E+00 -0.10762475496E+03  0.10762475499E+03  0.25500000000E-02 0. -1.
    5000001    1    1    2    0    0 -0.17969944100E+03 -0.32334633101E+03  0.44397742375E+03  0.60770444434E+03  0.18800000000E+03 0.  0.
   -5000001    1    1    2    0    0  0.17969944100E+03  0.32334633101E+03  0.16452443784E+04  0.16967668677E+04  0.18800000000E+03 0.  0.
<mgrwt>
<rscale>  0 0.97249179E+03</rscale>
<asrwt>0</asrwt>
<pdfrwt beam="1">  1        2 0.31383520E+00 0.97249179E+03</pdfrwt>
<pdfrwt beam="2">  1       -2 0.15374966E-01 0.97249179E+03</pdfrwt>
<totfact> 0.21483736E+02</totfact>
</mgrwt>
</event>
<event>
 4    1  0.2209668E-005  0.4743012E+03  0.7818608E-02  0.1020713E+00
         -2   -1    0    0    0  501 -0.00000000000E+00  0.00000000000E+00  0.20379176027E+02  0.20379176187E+02  0.25500000000E-02 0. -1.
          2   -1    0    0  501    0  0.00000000000E+00 -0.00000000000E+00 -0.27597000710E+04  0.27597000710E+04  0.25500000000E-02 0.  1.
    5000001    1    1    2    0    0  0.12412441738E+03  0.54522024651E+02 -0.16637199252E+04  0.16797879365E+04  0.18800000000E+03 0.  0.
   -5000001    1    1    2    0    0 -0.12412441738E+03 -0.54522024651E+02 -0.10756009699E+04  0.11002913107E+04  0.18800000000E+03 0.  0.
<mgrwt>
<rscale>  0 0.47430123E+03</rscale>
<asrwt>0</asrwt>
<pdfrwt beam="1">  1        2 0.39424263E+00 0.47430123E+03</pdfrwt>
<pdfrwt beam="2">  1       -2 0.29113126E-02 0.47430123E+03</pdfrwt>
<totfact> 0.16089685E+03</totfact>
</mgrwt>
</event>
<event>
 4    1  0.2209668E-005  0.6482589E+03  0.7818608E-02  0.9810052E-01
          2   -1    0    0  501    0  0.00000000000E+00  0.00000000000E+00  0.10036137357E+04  0.10036137357E+04  0.25500000000E-02 0.  1.
         -2   -1    0    0    0  501 -0.00000000000E+00 -0.00000000000E+00 -0.10468162275E+03  0.10468162278E+03  0.25500000000E-02 0. -1.
    5000001    1    1    2    0    0  0.10605485029E+03 -0.34275099009E+02  0.40243393514E+02  0.22222948590E+03  0.18800000000E+03 0.  0.
   -5000001    1    1    2    0    0 -0.10605485029E+03  0.34275099009E+02  0.85868871942E+03  0.88606587258E+03  0.18800000000E+03 0.  0.
<mgrwt>
<rscale>  0 0.64825894E+03</rscale>
<asrwt>0</asrwt>
<pdfrwt beam="1">  1        2 0.14337339E+00 0.64825894E+03</pdfrwt>
<pdfrwt beam="2">  1       -2 0.14954518E-01 0.64825894E+03</pdfrwt>
<totfact> 0.98860420E+02</totfact>
</mgrwt>
</event>
<event>
 4    1  0.2209668E-005  0.4952890E+03  0.7818608E-02  0.1015016E+00
          2   -1    0    0  501    0  0.00000000000E+00  0.00000000000E+00  0.11459023181E+04  0.11459023181E+04  0.25500000000E-02 0.  1.
         -2   -1    0    0    0  501 -0.00000000000E+00 -0.00000000000E+00 -0.53519209866E+02  0.53519209927E+02  0.25500000000E-02 0. -1.
    5000001    1    1    2    0    0 -0.76776546221E+02  0.91480846521E+02  0.28402065871E+03  0.36093644580E+03  0.18800000000E+03 0.  0.
   -5000001    1    1    2    0    0  0.76776546221E+02 -0.91480846521E+02  0.80836244953E+03  0.83848508224E+03  0.18800000000E+03 0.  0.
<mgrwt>
<rscale>  0 0.49528895E+03</rscale>
<asrwt>0</asrwt>
<pdfrwt beam="1">  1        2 0.16370033E+00 0.49528895E+03</pdfrwt>
<pdfrwt beam="2">  1       -2 0.76456016E-02 0.49528895E+03</pdfrwt>
<totfact> 0.24404422E+03</totfact>
</mgrwt>
</event>
<event>
 4    1  0.2209668E-005  0.7225242E+03  0.7818608E-02  0.9679470E-01
          2   -1    0    0  501    0  0.00000000000E+00  0.00000000000E+00  0.12356283908E+04  0.12356283908E+04  0.25500000000E-02 0.  1.
         -2   -1    0    0    0  501 -0.00000000000E+00 -0.00000000000E+00 -0.10562261918E+03  0.10562261921E+03  0.25500000000E-02 0. -1.
    5000001    1    1    2    0    0 -0.19802503912E+03 -0.74446819069E+02  0.98179191273E+03  0.10217708182E+04  0.18800000000E+03 0.  0.
   -5000001    1    1    2    0    0  0.19802503912E+03  0.74446819069E+02  0.14821385885E+03  0.31948019178E+03  0.18800000000E+03 0.  0.
<mgrwt>
<rscale>  0 0.72252421E+03</rscale>
<asrwt>0</asrwt>
<pdfrwt beam="1">  1        2 0.17651834E+00 0.72252421E+03</pdfrwt>
<pdfrwt beam="2">  1       -2 0.15088945E-01 0.72252421E+03</pdfrwt>
<totfact> 0.71209814E+02</totfact>
</mgrwt>
</event>
<event>
 4    1  0.2209668E-005  0.5811329E+03  0.7818608E-02  0.9945341E-01
         -2   -1    0    0    0  501 -0.00000000000E+00  0.00000000000E+00  0.30292760028E+02  0.30292760135E+02  0.25500000000E-02 0. -1.
          2   -1    0    0  501    0  0.00000000000E+00 -0.00000000000E+00 -0.27870973733E+04  0.27870973733E+04  0.25500000000E-02 0.  1.
    5000001    1    1    2    0    0 -0.60483913544E+00  0.20555044219E+03 -0.17791710074E+04  0.18008455857E+04  0.18800000000E+03 0.  0.
   -5000001    1    1    2    0    0  0.60483913544E+00 -0.20555044219E+03 -0.97763360590E+03  0.10165445477E+04  0.18800000000E+03 0.  0.
<mgrwt>
<rscale>  0 0.58113294E+03</rscale>
<asrwt>0</asrwt>
<pdfrwt beam="1">  1        2 0.39815660E+00 0.58113294E+03</pdfrwt>
<pdfrwt beam="2">  1       -2 0.43275389E-02 0.58113294E+03</pdfrwt>
<totfact> 0.84309771E+02</totfact>
</mgrwt>
</event>
<event>
 4    1  0.2209668E-005  0.6951127E+03  0.7818608E-02  0.9725627E-01
         -2   -1    0    0    0  501 -0.00000000000E+00  0.00000000000E+00  0.13342782316E+04  0.13342782316E+04  0.25500000000E-02 0. -1.
          2   -1    0    0  501    0  0.00000000000E+00 -0.00000000000E+00 -0.90532408052E+02  0.90532408088E+02  0.25500000000E-02 0.  1.
    5000001    1    1    2    0    0 -0.20943539141E+02  0.22763022370E+03  0.99534066391E+03  0.10384128215E+04  0.18800000000E+03 0.  0.
   -5000001    1    1    2    0    0  0.20943539141E+02 -0.22763022370E+03  0.24840515959E+03  0.38639781817E+03  0.18800000000E+03 0.  0.
<mgrwt>
<rscale>  0 0.69511271E+03</rscale>
<asrwt>0</asrwt>
<pdfrwt beam="1">  1        2 0.12933201E-01 0.69511271E+03</pdfrwt>
<pdfrwt beam="2">  1       -2 0.19061118E+00 0.69511271E+03</pdfrwt>
<totfact> 0.75278989E+01</totfact>
</mgrwt>
</event>
<event>
 4    1  0.2209668E-005  0.8769607E+03  0.7818608E-02  0.9454849E-01
         -2   -1    0    0    0  501 -0.00000000000E+00  0.00000000000E+00  0.25265843789E+03  0.25265843790E+03  0.25500000000E-02 0. -1.
          2   -1    0    0  501    0  0.00000000000E+00 -0.00000000000E+00 -0.76096808021E+03  0.76096808022E+03  0.25500000000E-02 0.  1.
    5000001    1    1    2    0    0 -0.54135534676E+02 -0.32052050997E+03  0.75274122250E+01  0.37558582955E+03  0.18800000000E+03 0.  0.
   -5000001    1    1    2    0    0  0.54135534676E+02  0.32052050997E+03 -0.51583705455E+03  0.63804068857E+03  0.18800000000E+03 0.  0.
<mgrwt>
<rscale>  0 0.87696068E+03</rscale>
<asrwt>0</asrwt>
<pdfrwt beam="1">  1        2 0.10870973E+00 0.87696068E+03</pdfrwt>
<pdfrwt beam="2">  1       -2 0.36094063E-01 0.87696068E+03</pdfrwt>
<totfact> 0.29311675E+02</totfact>
</mgrwt>
</event>
<event>
 4    1  0.2209668E-005  0.7995954E+03  0.7818608E-02  0.9560603E-01
          2   -1    0    0  501    0  0.00000000000E+00  0.00000000000E+00  0.82778202039E+03  0.82778202039E+03  0.25500000000E-02 0.  1.
         -2   -1    0    0    0  501 -0.00000000000E+00 -0.00000000000E+00 -0.19309215196E+03  0.19309215198E+03  0.25500000000E-02 0. -1.
    5000001    1    1    2    0    0  0.30532066419E+03 -0.17090678497E+03  0.37535403901E+03  0.54650205099E+03  0.18800000000E+03 0.  0.
   -5000001    1    1    2    0    0 -0.30532066419E+03  0.17090678497E+03  0.25933582941E+03  0.47437212139E+03  0.18800000000E+03 0.  0.
<mgrwt>
<rscale>  0 0.79959543E+03</rscale>
<asrwt>0</asrwt>
<pdfrwt beam="1">  1        2 0.11825457E+00 0.79959543E+03</pdfrwt>
<pdfrwt beam="2">  1       -2 0.27584593E-01 0.79959543E+03</pdfrwt>
<totfact> 0.43654437E+02</totfact>
</mgrwt>
</event>
<event>
 4    1  0.2209668E-005  0.5355568E+03  0.7818608E-02  0.1004893E+00
          2   -1    0    0  501    0  0.00000000000E+00  0.00000000000E+00  0.79178416202E+03  0.79178416203E+03  0.25500000000E-02 0.  1.
         -2   -1    0    0    0  501 -0.00000000000E+00 -0.00000000000E+00 -0.90561625771E+02  0.90561625807E+02  0.25500000000E-02 0. -1.
    5000001    1    1    2    0    0 -0.78720202703E+02 -0.16773237147E+03  0.42484601639E+03  0.50016912779E+03  0.18800000000E+03 0.  0.
   -5000001    1    1    2    0    0  0.78720202703E+02  0.16773237147E+03  0.27637651986E+03  0.38217666004E+03  0.18800000000E+03 0.  0.
<mgrwt>
<rscale>  0 0.53555676E+03</rscale>
<asrwt>0</asrwt>
<pdfrwt beam="1">  1        2 0.11311202E+00 0.53555676E+03</pdfrwt>
<pdfrwt beam="2">  1       -2 0.12937375E-01 0.53555676E+03</pdfrwt>
<totfact> 0.17308007E+03</totfact>
</mgrwt>
</event>
<event>
 4    1  0.2209668E-005  0.4910969E+03  0.7818608E-02  0.1016129E+00
         -2   -1    0    0    0  501 -0.00000000000E+00  0.00000000000E+00  0.11373762309E+03  0.11373762312E+03  0.25500000000E-02 0. -1.
          2   -1    0    0  501    0  0.00000000000E+00 -0.00000000000E+00 -0.53011527067E+03  0.53011527067E+03  0.25500000000E-02 0.  1.
    5000001    1    1    2    0    0  0.12918368808E+03 -0.21266668158E+02 -0.32404708104E+03  0.39685161858E+03  0.18800000000E+03 0.  0.
   -5000001    1    1    2    0    0 -0.12918368808E+03  0.21266668158E+02 -0.92330566529E+02  0.24700127521E+03  0.18800000000E+03 0.  0.
<mgrwt>
<rscale>  0 0.49109694E+03</rscale>
<asrwt>0</asrwt>
<pdfrwt beam="1">  1        2 0.75730752E-01 0.49109694E+03</pdfrwt>
<pdfrwt beam="2">  1       -2 0.16248232E-01 0.49109694E+03</pdfrwt>
<totfact> 0.19103883E+03</totfact>
</mgrwt>
</event>
<event>
 4    1  0.2209668E-005  0.6621876E+03  0.7818608E-02  0.9784175E-01
         -2   -1    0    0    0  501 -0.00000000000E+00  0.00000000000E+00  0.29546085250E+02  0.29546085360E+02  0.25500000000E-02 0. -1.
          2   -1    0    0  501    0  0.00000000000E+00 -0.00000000000E+00 -0.37102417065E+04  0.37102417065E+04  0.25500000000E-02 0.  1.
    5000001    1    1    2    0    0  0.26133800797E+03  0.59500738240E+01 -0.14048517901E+04  0.14412791229E+04  0.18800000000E+03 0.  0.
   -5000001    1    1    2    0    0 -0.26133800797E+03 -0.59500738240E+01 -0.22758438311E+04  0.22985086690E+04  0.18800000000E+03 0.  0.
<mgrwt>
<rscale>  0 0.66218764E+03</rscale>
<asrwt>0</asrwt>
<pdfrwt beam="1">  1        2 0.53003423E+00 0.66218764E+03</pdfrwt>
<pdfrwt beam="2">  1       -2 0.42208717E-02 0.66218764E+03</pdfrwt>
<totfact> 0.25877095E+02</totfact>
</mgrwt>
</event>
<event>
 4    1  0.2209668E-005  0.8653131E+03  0.7818608E-02  0.9470012E-01
          2   -1    0    0  501    0  0.00000000000E+00  0.00000000000E+00  0.19120111485E+04  0.19120111485E+04  0.25500000000E-02 0.  1.
         -2   -1    0    0    0  501 -0.00000000000E+00 -0.00000000000E+00 -0.97903043967E+02  0.97903044000E+02  0.25500000000E-02 0. -1.
    5000001    1    1    2    0    0  0.36609327999E+03 -0.88035118487E+02  0.11401790262E+04  0.12153710065E+04  0.18800000000E+03 0.  0.
   -5000001    1    1    2    0    0 -0.36609327999E+03  0.88035118487E+02  0.67392907834E+03  0.79454318597E+03  0.18800000000E+03 0.  0.
<mgrwt>
<rscale>  0 0.86531315E+03</rscale>
<asrwt>0</asrwt>
<pdfrwt beam="1">  1        2 0.27314444E+00 0.86531315E+03</pdfrwt>
<pdfrwt beam="2">  1       -2 0.13986149E-01 0.86531315E+03</pdfrwt>
<totfact> 0.35476075E+02</totfact>
</mgrwt>
</event>
<event>
 4    1  0.2209668E-005  0.6216641E+03  0.7818608E-02  0.9861452E-01
          2   -1    0    0  501    0  0.00000000000E+00  0.00000000000E+00  0.55158351949E+03  0.55158351949E+03  0.25500000000E-02 0.  1.
         -2   -1    0    0    0  501 -0.00000000000E+00 -0.00000000000E+00 -0.17516217089E+03  0.17516217091E+03  0.25500000000E-02 0. -1.
    5000001    1    1    2    0    0 -0.43156717437E+02  0.23205491601E+03  0.27538462560E+03  0.40852500330E+03  0.18800000000E+03 0.  0.
   -5000001    1    1    2    0    0  0.43156717437E+02 -0.23205491601E+03  0.10103672299E+03  0.31822068710E+03  0.18800000000E+03 0.  0.
<mgrwt>
<rscale>  0 0.62166411E+03</rscale>
<asrwt>0</asrwt>
<pdfrwt beam="1">  1        2 0.78797645E-01 0.62166411E+03</pdfrwt>
<pdfrwt beam="2">  1       -2 0.25023168E-01 0.62166411E+03</pdfrwt>
<totfact> 0.85992442E+02</totfact>
</mgrwt>
</event>
<event>
 4    1  0.2209668E-005  0.5647160E+03  0.7818608E-02  0.9981440E-01
          2   -1    0    0  501    0  0.00000000000E+00  0.00000000000E+00  0.42067288274E+03  0.42067288275E+03  0.25500000000E-02 0.  1.
         -2   -1    0    0    0  501 -0.00000000000E+00 -0.00000000000E+00 -0.18952030637E+03  0.18952030639E+03  0.25500000000E-02 0. -1.
    5000001    1    1    2    0    0  0.11652446393E+03  0.15492093602E+03  0.26449794644E+02  0.27133381424E+03  0.18800000000E+03 0.  0.
   -5000001    1    1    2    0    0 -0.11652446393E+03 -0.15492093602E+03  0.20470278173E+03  0.33885937490E+03  0.18800000000E+03 0.  0.
<mgrwt>
<rscale>  0 0.56471605E+03</rscale>
<asrwt>0</asrwt>
<pdfrwt beam="1">  1        2 0.60096126E-01 0.56471605E+03</pdfrwt>
<pdfrwt beam="2">  1       -2 0.27074330E-01 0.56471605E+03</pdfrwt>
<totfact> 0.10145517E+03</totfact>
</mgrwt>
</event>
<event>
 4    1  0.2209668E-005  0.7041016E+03  0.7818608E-02  0.9710243E-01
         -2   -1    0    0    0  501 -0.00000000000E+00  0.00000000000E+00  0.59829374976E+02  0.59829375030E+02  0.25500000000E-02 0. -1.
          2   -1    0    0  501    0  0.00000000000E+00 -0.00000000000E+00 -0.20715538697E+04  0.20715538697E+04  0.25500000000E-02 0.  1.
    5000001    1    1    2    0    0 -0.10390559535E+03  0.27340686498E+03 -0.83873784608E+03  0.90794981194E+03  0.18800000000E+03 0.  0.
   -5000001    1    1    2    0    0  0.10390559535E+03 -0.27340686498E+03 -0.11729866486E+04  0.12234334327E+04  0.18800000000E+03 0.  0.
<mgrwt>
<rscale>  0 0.70410162E+03</rscale>
<asrwt>0</asrwt>
<pdfrwt beam="1">  1        2 0.29593622E+00 0.70410162E+03</pdfrwt>
<pdfrwt beam="2">  1       -2 0.85470548E-02 0.70410162E+03</pdfrwt>
<totfact> 0.66804407E+02</totfact>
</mgrwt>
</event>
<event>
 4    1  0.2209668E-005  0.8524179E+03  0.7818608E-02  0.9487097E-01
          2   -1    0    0  501    0  0.00000000000E+00  0.00000000000E+00  0.42044877019E+03  0.42044877020E+03  0.25500000000E-02 0.  1.
         -2   -1    0    0    0  501 -0.00000000000E+00 -0.00000000000E+00 -0.43204802712E+03  0.43204802712E+03  0.25500000000E-02 0. -1.
    5000001    1    1    2    0    0 -0.29194463300E+03  0.22055971243E+03  0.10570870352E+03  0.42473119203E+03  0.18800000000E+03 0.  0.
   -5000001    1    1    2    0    0  0.29194463300E+03 -0.22055971243E+03 -0.11730796044E+03  0.42776560529E+03  0.18800000000E+03 0.  0.
<mgrwt>
<rscale>  0 0.85241788E+03</rscale>
<asrwt>0</asrwt>
<pdfrwt beam="1">  1        2 0.60064110E-01 0.85241788E+03</pdfrwt>
<pdfrwt beam="2">  1       -2 0.61721147E-01 0.85241788E+03</pdfrwt>
<totfact> 0.20051508E+02</totfact>
</mgrwt>
</event>
<event>
 4    1  0.2209668E-005  0.1027915E+04  0.7818608E-02  0.9278447E-01
         -2   -1    0    0    0  501 -0.00000000000E+00  0.00000000000E+00  0.30685679573E+03  0.30685679574E+03  0.25500000000E-02 0. -1.
          2   -1    0    0  501    0  0.00000000000E+00 -0.00000000000E+00 -0.86083220701E+03  0.86083220701E+03  0.25500000000E-02 0.  1.
    5000001    1    1    2    0    0  0.43110524489E+03  0.17228495455E+03 -0.14610655373E+03  0.52175182106E+03  0.18800000000E+03 0.  0.
   -5000001    1    1    2    0    0 -0.43110524489E+03 -0.17228495455E+03 -0.40786885755E+03  0.64593718169E+03  0.18800000000E+03 0.  0.
<mgrwt>
<rscale>  0 0.10279148E+04</rscale>
<asrwt>0</asrwt>
<pdfrwt beam="1">  1        2 0.12297603E+00 0.10279148E+04</pdfrwt>
<pdfrwt beam="2">  1       -2 0.43836686E-01 0.10279148E+04</pdfrwt>
<totfact> 0.16967689E+02</totfact>
</mgrwt>
</event>
<event>
 4    1  0.2209668E-005  0.4582012E+03  0.7818608E-02  0.1025304E+00
          2   -1    0    0  501    0  0.00000000000E+00  0.00000000000E+00  0.15736247458E+04  0.15736247458E+04  0.25500000000E-02 0.  1.
         -2   -1    0    0    0  501 -0.00000000000E+00 -0.00000000000E+00 -0.33354250265E+02  0.33354250363E+02  0.25500000000E-02 0. -1.
    5000001    1    1    2    0    0  0.12706340240E+03 -0.30436940670E+02  0.74046758127E+03  0.77505338816E+03  0.18800000000E+03 0.  0.
   -5000001    1    1    2    0    0 -0.12706340240E+03  0.30436940670E+02  0.79980291429E+03  0.83192560803E+03  0.18800000000E+03 0.  0.
<mgrwt>
<rscale>  0 0.45820115E+03</rscale>
<asrwt>0</asrwt>
<pdfrwt beam="1">  1        2 0.22480353E+00 0.45820115E+03</pdfrwt>
<pdfrwt beam="2">  1       -2 0.47648931E-02 0.45820115E+03</pdfrwt>
<totfact> 0.30161353E+03</totfact>
</mgrwt>
</event>
<event>
 4    1  0.2209668E-005  0.5787626E+03  0.7818608E-02  0.9950474E-01
          2   -1    0    0  501    0  0.00000000000E+00  0.00000000000E+00  0.22381813176E+03  0.22381813177E+03  0.25500000000E-02 0.  1.
         -2   -1    0    0    0  501 -0.00000000000E+00 -0.00000000000E+00 -0.37414992054E+03  0.37414992055E+03  0.25500000000E-02 0. -1.
    5000001    1    1    2    0    0 -0.10517096454E+03 -0.19218971668E+03 -0.54509526323E+02  0.29379092471E+03  0.18800000000E+03 0.  0.
   -5000001    1    1    2    0    0  0.10517096454E+03  0.19218971668E+03 -0.95822262463E+02  0.30417712762E+03  0.18800000000E+03 0.  0.
<mgrwt>
<rscale>  0 0.57876260E+03</rscale>
<asrwt>0</asrwt>
<pdfrwt beam="1">  1        2 0.31974019E-01 0.57876260E+03</pdfrwt>
<pdfrwt beam="2">  1       -2 0.53449988E-01 0.57876260E+03</pdfrwt>
<totfact> 0.55044850E+02</totfact>
</mgrwt>
</event>
<event>
 4    1  0.2209668E-005  0.6659905E+03  0.7818608E-02  0.9777228E-01
          2   -1    0    0  501    0  0.00000000000E+00  0.00000000000E+00  0.52436442510E+03  0.52436442511E+03  0.25500000000E-02 0.  1.
         -2   -1    0    0    0  501 -0.00000000000E+00 -0.00000000000E+00 -0.21146714598E+03  0.21146714599E+03  0.25500000000E-02 0. -1.
    5000001    1    1    2    0    0 -0.21408188629E+03  0.97636862911E+01  0.34658695270E+03  0.44876820229E+03  0.18800000000E+03 0.  0.
   -5000001    1    1    2    0    0  0.21408188629E+03 -0.97636862911E+01 -0.33689673576E+02  0.28706336881E+03  0.18800000000E+03 0.  0.
<mgrwt>
<rscale>  0 0.66599054E+03</rscale>
<asrwt>0</asrwt>
<pdfrwt beam="1">  1        2 0.74909202E-01 0.66599054E+03</pdfrwt>
<pdfrwt beam="2">  1       -2 0.30209593E-01 0.66599054E+03</pdfrwt>
<totfact> 0.64598626E+02</totfact>
</mgrwt>
</event>
<event>
 4    1  0.2209668E-005  0.8727822E+03  0.7818608E-02  0.9460259E-01
         -2   -1    0    0    0  501 -0.00000000000E+00  0.00000000000E+00  0.13619430160E+04  0.13619430160E+04  0.25500000000E-02 0. -1.
          2   -1    0    0  501    0  0.00000000000E+00 -0.00000000000E+00 -0.13982757402E+03  0.13982757405E+03  0.25500000000E-02 0.  1.
    5000001    1    1    2    0    0  0.22866096423E+03 -0.17410557188E+02  0.60163013287E+02  0.30257652294E+03  0.18800000000E+03 0.  0.
   -5000001    1    1    2    0    0 -0.22866096423E+03  0.17410557188E+02  0.11619524287E+04  0.11991940671E+04  0.18800000000E+03 0.  0.
<mgrwt>
<rscale>  0 0.87278219E+03</rscale>
<asrwt>0</asrwt>
<pdfrwt beam="1">  1        2 0.19975368E-01 0.87278219E+03</pdfrwt>
<pdfrwt beam="2">  1       -2 0.19456328E+00 0.87278219E+03</pdfrwt>
<totfact> 0.41484899E+01</totfact>
</mgrwt>
</event>
<event>
 4    1  0.2209668E-005  0.4955715E+03  0.7818608E-02  0.1014941E+00
         -2   -1    0    0    0  501 -0.00000000000E+00  0.00000000000E+00  0.17634459682E+02  0.17634459866E+02  0.25500000000E-02 0. -1.
          2   -1    0    0  501    0  0.00000000000E+00 -0.00000000000E+00 -0.34816936354E+04  0.34816936354E+04  0.25500000000E-02 0.  1.
    5000001    1    1    2    0    0 -0.11529462483E+02 -0.15222107077E+03 -0.13617640051E+04  0.13831302862E+04  0.18800000000E+03 0.  0.
   -5000001    1    1    2    0    0  0.11529462483E+02  0.15222107077E+03 -0.21022951706E+04  0.21161978091E+04  0.18800000000E+03 0.  0.
<mgrwt>
<rscale>  0 0.49557153E+03</rscale>
<asrwt>0</asrwt>
<pdfrwt beam="1">  1        2 0.49738437E+00 0.49557153E+03</pdfrwt>
<pdfrwt beam="2">  1       -2 0.25192108E-02 0.49557153E+03</pdfrwt>
<totfact> 0.79724140E+02</totfact>
</mgrwt>
</event>
<event>
 4    1  0.2209668E-005  0.3965172E+03  0.7818608E-02  0.1044992E+00
         -2   -1    0    0    0  501 -0.00000000000E+00  0.00000000000E+00  0.23528099277E+02  0.23528099416E+02  0.25500000000E-02 0. -1.
          2   -1    0    0  501    0  0.00000000000E+00 -0.00000000000E+00 -0.16706180260E+04  0.16706180260E+04  0.25500000000E-02 0.  1.
    5000001    1    1    2    0    0  0.54367378998E+02  0.23694559584E+02 -0.91369742367E+03  0.93472146978E+03  0.18800000000E+03 0.  0.
   -5000001    1    1    2    0    0 -0.54367378998E+02 -0.23694559584E+02 -0.73339250309E+03  0.75942465567E+03  0.18800000000E+03 0.  0.
<mgrwt>
<rscale>  0 0.39651717E+03</rscale>
<asrwt>0</asrwt>
<pdfrwt beam="1">  1        2 0.23865964E+00 0.39651717E+03</pdfrwt>
<pdfrwt beam="2">  1       -2 0.33611581E-02 0.39651717E+03</pdfrwt>
<totfact> 0.45861995E+03</totfact>
</mgrwt>
</event>
<event>
 4    1  0.2209668E-005  0.6485722E+03  0.7818608E-02  0.9809462E-01
          2   -1    0    0  501    0  0.00000000000E+00  0.00000000000E+00  0.97187335644E+03  0.97187335644E+03  0.25500000000E-02 0. -1.
         -2   -1    0    0    0  501 -0.00000000000E+00 -0.00000000000E+00 -0.10820491655E+03  0.10820491658E+03  0.25500000000E-02 0.  1.
    5000001    1    1    2    0    0 -0.17361361618E+03  0.19149219780E+03  0.52314653933E+03  0.61305566725E+03  0.18800000000E+03 0.  0.
   -5000001    1    1    2    0    0  0.17361361618E+03 -0.19149219780E+03  0.34052190056E+03  0.46702260577E+03  0.18800000000E+03 0.  0.
<mgrwt>
<rscale>  0 0.64857220E+03</rscale>
<asrwt>0</asrwt>
<pdfrwt beam="1">  1        2 0.13883905E+00 0.64857220E+03</pdfrwt>
<pdfrwt beam="2">  1       -2 0.15457845E-01 0.64857220E+03</pdfrwt>
<totfact> 0.97783578E+02</totfact>
</mgrwt>
</event>
<event>
 4    1  0.2209668E-005  0.3911560E+03  0.7818608E-02  0.1046886E+00
          2   -1    0    0  501    0  0.00000000000E+00  0.00000000000E+00  0.65146791458E+03  0.65146791459E+03  0.25500000000E-02 0.  1.
         -2   -1    0    0    0  501 -0.00000000000E+00 -0.00000000000E+00 -0.58714723351E+02  0.58714723406E+02  0.25500000000E-02 0. -1.
    5000001    1    1    2    0    0 -0.31306408046E+02 -0.43893675638E+02  0.29617399436E+03  0.35492221807E+03  0.18800000000E+03 0.  0.
   -5000001    1    1    2    0    0  0.31306408046E+02  0.43893675638E+02  0.29657919687E+03  0.35526041992E+03  0.18800000000E+03 0.  0.
<mgrwt>
<rscale>  0 0.39115602E+03</rscale>
<asrwt>0</asrwt>
<pdfrwt beam="1">  1        2 0.93066845E-01 0.39115602E+03</pdfrwt>
<pdfrwt beam="2">  1       -2 0.83878176E-02 0.39115602E+03</pdfrwt>
<totfact> 0.44149715E+03</totfact>
</mgrwt>
</event>
<event>
 4    1  0.2209668E-005  0.5959009E+03  0.7818608E-02  0.9913947E-01
          2   -1    0    0  501    0  0.00000000000E+00  0.00000000000E+00  0.21316537781E+04  0.21316537781E+04  0.25500000000E-02 0.  1.
         -2   -1    0    0    0  501 -0.00000000000E+00 -0.00000000000E+00 -0.41645818597E+02  0.41645818675E+02  0.25500000000E-02 0. -1.
    5000001    1    1    2    0    0 -0.99242876845E+02 -0.12500531520E+03  0.16547868671E+04  0.16730627762E+04  0.18800000000E+03 0.  0.
   -5000001    1    1    2    0    0  0.99242876845E+02  0.12500531520E+03  0.43522109239E+03  0.50023682061E+03  0.18800000000E+03 0.  0.
<mgrwt>
<rscale>  0 0.59590089E+03</rscale>
<asrwt>0</asrwt>
<pdfrwt beam="1">  1        2 0.30452194E+00 0.59590089E+03</pdfrwt>
<pdfrwt beam="2">  1       -2 0.59494032E-02 0.59590089E+03</pdfrwt>
<totfact> 0.11137862E+03</totfact>
</mgrwt>
</event>
<event>
 4    1  0.2209668E-005  0.5072817E+03  0.7818608E-02  0.1011896E+00
          2   -1    0    0  501    0  0.00000000000E+00  0.00000000000E+00  0.45320038266E+03  0.45320038267E+03  0.25500000000E-02 0.  1.
         -2   -1    0    0    0  501 -0.00000000000E+00 -0.00000000000E+00 -0.14195417991E+03  0.14195417994E+03  0.25500000000E-02 0. -1.
    5000001    1    1    2    0    0  0.36996925223E+02 -0.13938380426E+03  0.26181806300E+03  0.35311374298E+03  0.18800000000E+03 0.  0.
   -5000001    1    1    2    0    0 -0.36996925223E+02  0.13938380426E+03  0.49428139752E+02  0.24204081963E+03  0.18800000000E+03 0.  0.
<mgrwt>
<rscale>  0 0.50728173E+03</rscale>
<asrwt>0</asrwt>
<pdfrwt beam="1">  1        2 0.64742912E-01 0.50728173E+03</pdfrwt>
<pdfrwt beam="2">  1       -2 0.20279169E-01 0.50728173E+03</pdfrwt>
<totfact> 0.15597399E+03</totfact>
</mgrwt>
</event>
<event>
 4    1  0.2209668E-005  0.8613667E+03  0.7818608E-02  0.9475207E-01
          2   -1    0    0  501    0  0.00000000000E+00  0.00000000000E+00  0.34632213445E+03  0.34632213446E+03  0.25500000000E-02 0.  1.
         -2   -1    0    0    0  501 -0.00000000000E+00 -0.00000000000E+00 -0.53559428325E+03  0.53559428325E+03  0.25500000000E-02 0. -1.
    5000001    1    1    2    0    0 -0.33177936487E+03 -0.19747533011E+03 -0.12812891748E+03  0.44814626234E+03  0.18800000000E+03 0.  0.
   -5000001    1    1    2    0    0  0.33177936487E+03  0.19747533011E+03 -0.61143231314E+02  0.43377015537E+03  0.18800000000E+03 0.  0.
<mgrwt>
<rscale>  0 0.86136672E+03</rscale>
<asrwt>0</asrwt>
<pdfrwt beam="1">  1        2 0.49474591E-01 0.86136672E+03</pdfrwt>
<pdfrwt beam="2">  1       -2 0.76513469E-01 0.86136672E+03</pdfrwt>
<totfact> 0.15604616E+02</totfact>
</mgrwt>
</event>
<event>
 4    1  0.2209668E-005  0.5918035E+03  0.7818608E-02  0.9922559E-01
         -2   -1    0    0    0  501 -0.00000000000E+00  0.00000000000E+00  0.47907903313E+02  0.47907903380E+02  0.25500000000E-02 0. -1.
          2   -1    0    0  501    0  0.00000000000E+00 -0.00000000000E+00 -0.18276282908E+04  0.18276282908E+04  0.25500000000E-02 0.  1.
    5000001    1    1    2    0    0 -0.14272681886E+03  0.13578082008E+03 -0.12568086391E+04  0.12859701906E+04  0.18800000000E+03 0.  0.
   -5000001    1    1    2    0    0  0.14272681886E+03 -0.13578082008E+03 -0.52291174842E+03  0.58956600357E+03  0.18800000000E+03 0.  0.
<mgrwt>
<rscale>  0 0.59180348E+03</rscale>
<asrwt>0</asrwt>
<pdfrwt beam="1">  1        2 0.26108971E+00 0.59180348E+03</pdfrwt>
<pdfrwt beam="2">  1       -2 0.68439874E-02 0.59180348E+03</pdfrwt>
<totfact> 0.12707978E+03</totfact>
</mgrwt>
</event>
<event>
 4    1  0.2209668E-005  0.5512317E+03  0.7818608E-02  0.1001209E+00
         -2   -1    0    0    0  501 -0.00000000000E+00  0.00000000000E+00  0.23824153481E+02  0.23824153617E+02  0.25500000000E-02 0. -1.
          2   -1    0    0  501    0  0.00000000000E+00 -0.00000000000E+00 -0.31885330257E+04  0.31885330257E+04  0.25500000000E-02 0.  1.
    5000001    1    1    2    0    0 -0.12668248732E+03 -0.13633139367E+03 -0.20332087018E+04  0.20503454164E+04  0.18800000000E+03 0.  0.
   -5000001    1    1    2    0    0  0.12668248732E+03  0.13633139367E+03 -0.11315001704E+04  0.11620117629E+04  0.18800000000E+03 0.  0.
<mgrwt>
<rscale>  0 0.55123171E+03</rscale>
<asrwt>0</asrwt>
<pdfrwt beam="1">  1        2 0.45550445E+00 0.55123171E+03</pdfrwt>
<pdfrwt beam="2">  1       -2 0.34034525E-02 0.55123171E+03</pdfrwt>
<totfact> 0.73976892E+02</totfact>
</mgrwt>
</event>
<event>
 4    1  0.2209668E-005  0.5497199E+03  0.7818608E-02  0.1001559E+00
         -2   -1    0    0    0  501 -0.00000000000E+00  0.00000000000E+00  0.22595882469E+03  0.22595882470E+03  0.25500000000E-02 0. -1.
          2   -1    0    0  501    0  0.00000000000E+00 -0.00000000000E+00 -0.33434412346E+03  0.33434412347E+03  0.25500000000E-02 0.  1.
    5000001    1    1    2    0    0 -0.73866334883E+02 -0.17563980766E+03  0.94467620595E+01  0.26784103266E+03  0.18800000000E+03 0.  0.
   -5000001    1    1    2    0    0  0.73866334883E+02  0.17563980766E+03 -0.11783206083E+03  0.29246191551E+03  0.18800000000E+03 0.  0.
<mgrwt>
<rscale>  0 0.54971995E+03</rscale>
<asrwt>0</asrwt>
<pdfrwt beam="1">  1        2 0.47763446E-01 0.54971995E+03</pdfrwt>
<pdfrwt beam="2">  1       -2 0.32279832E-01 0.54971995E+03</pdfrwt>
<totfact> 0.94647294E+02</totfact>
</mgrwt>
</event>
<event>
 4    1  0.2209668E-005  0.1182872E+04  0.7818608E-02  0.9127982E-01
         -2   -1    0    0    0  501 -0.00000000000E+00  0.00000000000E+00  0.66736912372E+03  0.66736912373E+03  0.25500000000E-02 0. -1.
          2   -1    0    0  501    0  0.00000000000E+00 -0.00000000000E+00 -0.52414268834E+03  0.52414268834E+03  0.25500000000E-02 0.  1.
    5000001    1    1    2    0    0 -0.51432907464E+03 -0.22342383065E+03  0.71408000329E+02  0.59573123775E+03  0.18800000000E+03 0.  0.
   -5000001    1    1    2    0    0  0.51432907464E+03  0.22342383065E+03  0.71818435059E+02  0.59578057432E+03  0.18800000000E+03 0.  0.
<mgrwt>
<rscale>  0 0.11828722E+04</rscale>
<asrwt>0</asrwt>
<pdfrwt beam="1">  1        2 0.74877527E-01 0.11828722E+04</pdfrwt>
<pdfrwt beam="2">  1       -2 0.95338446E-01 0.11828722E+04</pdfrwt>
<totfact> 0.58129715E+01</totfact>
</mgrwt>
</event>
<event>
 4    1  0.2209668E-005  0.5929210E+03  0.7818608E-02  0.9920203E-01
         -2   -1    0    0    0  501 -0.00000000000E+00  0.00000000000E+00  0.63759810620E+02  0.63759810671E+02  0.25500000000E-02 0. -1.
          2   -1    0    0  501    0  0.00000000000E+00 -0.00000000000E+00 -0.13784359820E+04  0.13784359820E+04  0.25500000000E-02 0.  1.
    5000001    1    1    2    0    0  0.12866234288E+03 -0.18843720269E+03 -0.71075253438E+03  0.76978941468E+03  0.18800000000E+03 0.  0.
   -5000001    1    1    2    0    0 -0.12866234288E+03  0.18843720269E+03 -0.60392363697E+03  0.67240637796E+03  0.18800000000E+03 0.  0.
<mgrwt>
<rscale>  0 0.59292096E+03</rscale>
<asrwt>0</asrwt>
<pdfrwt beam="1">  1        2 0.19691941E+00 0.59292096E+03</pdfrwt>
<pdfrwt beam="2">  1       -2 0.91085452E-02 0.59292096E+03</pdfrwt>
<totfact> 0.13734623E+03</totfact>
</mgrwt>
</event>
<event>
 4    1  0.2209668E-005  0.4776719E+03  0.7818608E-02  0.1019777E+00
         -2   -1    0    0    0  501 -0.00000000000E+00  0.00000000000E+00  0.22198578342E+03  0.22198578343E+03  0.25500000000E-02 0. -1.
          2   -1    0    0  501    0  0.00000000000E+00 -0.00000000000E+00 -0.25696517518E+03  0.25696517519E+03  0.25500000000E-02 0.  1.
    5000001    1    1    2    0    0 -0.43579530986E+02  0.13616783014E+03  0.18070210755E+02  0.23687842030E+03  0.18800000000E+03 0.  0.
   -5000001    1    1    2    0    0  0.43579530986E+02 -0.13616783014E+03 -0.53049602511E+02  0.24207253833E+03  0.18800000000E+03 0.  0.
<mgrwt>
<rscale>  0 0.47767192E+03</rscale>
<asrwt>0</asrwt>
<pdfrwt beam="1">  1        2 0.36709310E-01 0.47767192E+03</pdfrwt>
<pdfrwt beam="2">  1       -2 0.31712255E-01 0.47767192E+03</pdfrwt>
<totfact> 0.13066783E+03</totfact>
</mgrwt>
</event>
<event>
 4    1  0.2209668E-005  0.9856421E+03  0.7818608E-02  0.9324434E-01
         -2   -1    0    0    0  501 -0.00000000000E+00  0.00000000000E+00  0.40144105240E+03  0.40144105241E+03  0.25500000000E-02 0. -1.
          2   -1    0    0  501    0  0.00000000000E+00 -0.00000000000E+00 -0.60500187332E+03  0.60500187333E+03  0.25500000000E-02 0.  1.
    5000001    1    1    2    0    0  0.15491569392E+03  0.41796091216E+03 -0.57836571699E+01  0.48380538133E+03  0.18800000000E+03 0.  0.
   -5000001    1    1    2    0    0 -0.15491569392E+03 -0.41796091216E+03 -0.19777716375E+03  0.52263754440E+03  0.18800000000E+03 0.  0.
<mgrwt>
<rscale>  0 0.98564210E+03</rscale>
<asrwt>0</asrwt>
<pdfrwt beam="1">  1        2 0.86428839E-01 0.98564210E+03</pdfrwt>
<pdfrwt beam="2">  1       -2 0.57348722E-01 0.98564210E+03</pdfrwt>
<totfact> 0.15297856E+02</totfact>
</mgrwt>
</event>
<event>
 4    1  0.2209668E-005  0.1123874E+04  0.7818608E-02  0.9182230E-01
         -2   -1    0    0    0  501 -0.00000000000E+00  0.00000000000E+00  0.18944150298E+03  0.18944150299E+03  0.25500000000E-02 0. -1.
          2   -1    0    0  501    0  0.00000000000E+00 -0.00000000000E+00 -0.16668626484E+04  0.16668626484E+04  0.25500000000E-02 0.  1.
    5000001    1    1    2    0    0 -0.43448335258E+03 -0.17144815815E+03 -0.32658294507E+03  0.60014221199E+03  0.18800000000E+03 0.  0.
   -5000001    1    1    2    0    0  0.43448335258E+03  0.17144815815E+03 -0.11508382003E+04  0.12561619394E+04  0.18800000000E+03 0.  0.
<mgrwt>
<rscale>  0 0.11238736E+04</rscale>
<asrwt>0</asrwt>
<pdfrwt beam="1">  1        2 0.23812323E+00 0.11238736E+04</pdfrwt>
<pdfrwt beam="2">  1       -2 0.27063073E-01 0.11238736E+04</pdfrwt>
<totfact> 0.14671332E+02</totfact>
</mgrwt>
</event>
<event>
 4    1  0.2209668E-005  0.5243403E+03  0.7818608E-02  0.1007614E+00
          2   -1    0    0  501    0  0.00000000000E+00  0.00000000000E+00  0.32176561160E+03  0.32176561161E+03  0.25500000000E-02 0.  1.
         -2   -1    0    0    0  501 -0.00000000000E+00 -0.00000000000E+00 -0.21361261815E+03  0.21361261817E+03  0.25500000000E-02 0. -1.
    5000001    1    1    2    0    0 -0.49701697270E+02  0.17319423209E+03  0.23061174849E+02  0.26142363804E+03  0.18800000000E+03 0.  0.
   -5000001    1    1    2    0    0  0.49701697270E+02 -0.17319423209E+03  0.85091818596E+02  0.27395459173E+03  0.18800000000E+03 0.  0.
<mgrwt>
<rscale>  0 0.52434033E+03</rscale>
<asrwt>0</asrwt>
<pdfrwt beam="1">  1        2 0.45966516E-01 0.52434033E+03</pdfrwt>
<pdfrwt beam="2">  1       -2 0.30516088E-01 0.52434033E+03</pdfrwt>
<totfact> 0.10959055E+03</totfact>
</mgrwt>
</event>
<event>
 4    1  0.2209668E-005  0.4080868E+03  0.7818608E-02  0.1041015E+00
          2   -1    0    0  501    0  0.00000000000E+00  0.00000000000E+00  0.63746734259E+03  0.63746734259E+03  0.25500000000E-02 0.  1.
         -2   -1    0    0    0  501 -0.00000000000E+00 -0.00000000000E+00 -0.65311122640E+02  0.65311122690E+02  0.25500000000E-02 0. -1.
    5000001    1    1    2    0    0 -0.25412173916E+02  0.70855089444E+02  0.32907916320E+03  0.38639787517E+03  0.18800000000E+03 0.  0.
   -5000001    1    1    2    0    0  0.25412173916E+02 -0.70855089444E+02  0.24307705674E+03  0.31638059011E+03  0.18800000000E+03 0.  0.
<mgrwt>
<rscale>  0 0.40808679E+03</rscale>
<asrwt>0</asrwt>
<pdfrwt beam="1">  1        2 0.91066764E-01 0.40808679E+03</pdfrwt>
<pdfrwt beam="2">  1       -2 0.93301603E-02 0.40808679E+03</pdfrwt>
<totfact> 0.38271289E+03</totfact>
</mgrwt>
</event>
<event>
 4    1  0.2209668E-005  0.8764318E+03  0.7818608E-02  0.9455532E-01
         -2   -1    0    0    0  501 -0.00000000000E+00  0.00000000000E+00  0.32047823927E+03  0.32047823928E+03  0.25500000000E-02 0. -1.
          2   -1    0    0  501    0  0.00000000000E+00 -0.00000000000E+00 -0.59920813804E+03  0.59920813804E+03  0.25500000000E-02 0.  1.
    5000001    1    1    2    0    0 -0.36621245950E+03  0.15013694780E+03 -0.14570467950E+03  0.46176457445E+03  0.18800000000E+03 0.  0.
   -5000001    1    1    2    0    0  0.36621245950E+03 -0.15013694780E+03 -0.13302521926E+03  0.45792180287E+03  0.18800000000E+03 0.  0.
<mgrwt>
<rscale>  0 0.87643179E+03</rscale>
<asrwt>0</asrwt>
<pdfrwt beam="1">  1        2 0.85601162E-01 0.87643179E+03</pdfrwt>
<pdfrwt beam="2">  1       -2 0.45782606E-01 0.87643179E+03</pdfrwt>
<totfact> 0.24664963E+02</totfact>
</mgrwt>
</event>
<event>
 4    1  0.2209668E-005  0.6757222E+03  0.7818608E-02  0.9759676E-01
          2   -1    0    0  501    0  0.00000000000E+00  0.00000000000E+00  0.12645443193E+04  0.12645443193E+04  0.25500000000E-02 0.  1.
         -2   -1    0    0    0  501 -0.00000000000E+00 -0.00000000000E+00 -0.90269766229E+02  0.90269766265E+02  0.25500000000E-02 0. -1.
    5000001    1    1    2    0    0  0.26764427404E+03 -0.72131562736E+02  0.67612121053E+03  0.75453317428E+03  0.18800000000E+03 0.  0.
   -5000001    1    1    2    0    0 -0.26764427404E+03  0.72131562736E+02  0.49815334255E+03  0.60028091130E+03  0.18800000000E+03 0.  0.
<mgrwt>
<rscale>  0 0.67572219E+03</rscale>
<asrwt>0</asrwt>
<pdfrwt beam="1">  1        2 0.18064918E+00 0.67572219E+03</pdfrwt>
<pdfrwt beam="2">  1       -2 0.12895681E-01 0.67572219E+03</pdfrwt>
<totfact> 0.89455536E+02</totfact>
</mgrwt>
</event>
<event>
 4    1  0.2209668E-005  0.7685937E+03  0.7818608E-02  0.9606623E-01
         -2   -1    0    0    0  501 -0.00000000000E+00  0.00000000000E+00  0.38769381093E+03  0.38769381094E+03  0.25500000000E-02 0. -1.
          2   -1    0    0  501    0  0.00000000000E+00 -0.00000000000E+00 -0.38092962580E+03  0.38092962580E+03  0.25500000000E-02 0.  1.
    5000001    1    1    2    0    0 -0.11344745223E+03 -0.22589470140E+03 -0.21672031475E+03  0.38237473160E+03  0.18800000000E+03 0.  0.
   -5000001    1    1    2    0    0  0.11344745223E+03  0.22589470140E+03  0.22348449989E+03  0.38624870515E+03  0.18800000000E+03 0.  0.
<mgrwt>
<rscale>  0 0.76859367E+03</rscale>
<asrwt>0</asrwt>
<pdfrwt beam="1">  1        2 0.54418518E-01 0.76859367E+03</pdfrwt>
<pdfrwt beam="2">  1       -2 0.55384830E-01 0.76859367E+03</pdfrwt>
<totfact> 0.28202411E+02</totfact>
</mgrwt>
</event>
<event>
 4    1  0.2209668E-005  0.7382509E+03  0.7818608E-02  0.9653965E-01
          2   -1    0    0  501    0  0.00000000000E+00  0.00000000000E+00  0.67769555385E+03  0.67769555386E+03  0.25500000000E-02 0.  1.
         -2   -1    0    0    0  501 -0.00000000000E+00 -0.00000000000E+00 -0.20105426861E+03  0.20105426863E+03  0.25500000000E-02 0. -1.
    5000001    1    1    2    0    0 -0.31724167503E+03 -0.16411579117E+00  0.25778059513E+03  0.44993015295E+03  0.18800000000E+03 0.  0.
   -5000001    1    1    2    0    0  0.31724167503E+03  0.16411579117E+00  0.21886069011E+03  0.42881966954E+03  0.18800000000E+03 0.  0.
<mgrwt>
<rscale>  0 0.73825086E+03</rscale>
<asrwt>0</asrwt>
<pdfrwt beam="1">  1        2 0.96813651E-01 0.73825086E+03</pdfrwt>
<pdfrwt beam="2">  1       -2 0.28722038E-01 0.73825086E+03</pdfrwt>
<totfact> 0.52265109E+02</totfact>
</mgrwt>
</event>
<event>
 4    1  0.2209668E-005  0.7270918E+03  0.7818608E-02  0.9671991E-01
          2   -1    0    0  501    0  0.00000000000E+00  0.00000000000E+00  0.65258839413E+03  0.65258839413E+03  0.25500000000E-02 0. -1.
         -2   -1    0    0    0  501 -0.00000000000E+00 -0.00000000000E+00 -0.20252523310E+03  0.20252523311E+03  0.25500000000E-02 0.  1.
    5000001    1    1    2    0    0  0.12288342420E+03 -0.57400137503E+02 -0.10432475279E+03  0.25421008197E+03  0.18800000000E+03 0.  0.
   -5000001    1    1    2    0    0 -0.12288342420E+03  0.57400137503E+02  0.55438791383E+03  0.60090354528E+03  0.18800000000E+03 0.  0.
<mgrwt>
<rscale>  0 0.72709179E+03</rscale>
<asrwt>0</asrwt>
<pdfrwt beam="1">  1        2 0.93226915E-01 0.72709179E+03</pdfrwt>
<pdfrwt beam="2">  1       -2 0.28932176E-01 0.72709179E+03</pdfrwt>
<totfact> 0.54004666E+02</totfact>
</mgrwt>
</event>
<event>
 4    1  0.2209668E-005  0.7278762E+03  0.7818608E-02  0.9670713E-01
          2   -1    0    0  501    0  0.00000000000E+00  0.00000000000E+00  0.27364336110E+03  0.27364336112E+03  0.25500000000E-02 0.  1.
         -2   -1    0    0    0  501 -0.00000000000E+00 -0.00000000000E+00 -0.48402758255E+03  0.48402758255E+03  0.25500000000E-02 0. -1.
    5000001    1    1    2    0    0 -0.14359298144E+02  0.29918007642E+03 -0.19468837251E+03  0.40368610325E+03  0.18800000000E+03 0.  0.
   -5000001    1    1    2    0    0  0.14359298144E+02 -0.29918007642E+03 -0.15695848933E+02  0.35398484041E+03  0.18800000000E+03 0.  0.
<mgrwt>
<rscale>  0 0.72787618E+03</rscale>
<asrwt>0</asrwt>
<pdfrwt beam="1">  1        2 0.39091909E-01 0.72787618E+03</pdfrwt>
<pdfrwt beam="2">  1       -2 0.69146798E-01 0.72787618E+03</pdfrwt>
<totfact> 0.25454974E+02</totfact>
</mgrwt>
</event>
<event>
 4    1  0.2209668E-005  0.5056780E+03  0.7818608E-02  0.1012307E+00
         -2   -1    0    0    0  501 -0.00000000000E+00  0.00000000000E+00  0.17612457780E+03  0.17612457782E+03  0.25500000000E-02 0. -1.
          2   -1    0    0  501    0  0.00000000000E+00 -0.00000000000E+00 -0.36296787207E+03  0.36296787208E+03  0.25500000000E-02 0.  1.
    5000001    1    1    2    0    0 -0.15820652952E+03 -0.59356036367E+02 -0.87474668659E+02  0.26748507004E+03  0.18800000000E+03 0.  0.
   -5000001    1    1    2    0    0  0.15820652952E+03  0.59356036367E+02 -0.99368625617E+02  0.27160737986E+03  0.18800000000E+03 0.  0.
<mgrwt>
<rscale>  0 0.50567801E+03</rscale>
<asrwt>0</asrwt>
<pdfrwt beam="1">  1        2 0.51852553E-01 0.50567801E+03</pdfrwt>
<pdfrwt beam="2">  1       -2 0.25160654E-01 0.50567801E+03</pdfrwt>
<totfact> 0.13633784E+03</totfact>
</mgrwt>
</event>
<event>
 4    1  0.2209668E-005  0.6420167E+03  0.7818608E-02  0.9821876E-01
          2   -1    0    0  501    0  0.00000000000E+00  0.00000000000E+00  0.11086886136E+04  0.11086886136E+04  0.25500000000E-02 0.  1.
         -2   -1    0    0    0  501 -0.00000000000E+00 -0.00000000000E+00 -0.92944372835E+02  0.92944372870E+02  0.25500000000E-02 0. -1.
    5000001    1    1    2    0    0  0.67353469754E+02  0.25091521025E+03  0.53482882465E+03  0.62360308233E+03  0.18800000000E+03 0.  0.
   -5000001    1    1    2    0    0 -0.67353469754E+02 -0.25091521025E+03  0.48091541611E+03  0.57802990413E+03  0.18800000000E+03 0.  0.
<mgrwt>
<rscale>  0 0.64201672E+03</rscale>
<asrwt>0</asrwt>
<pdfrwt beam="1">  1        2 0.15838407E+00 0.64201672E+03</pdfrwt>
<pdfrwt beam="2">  1       -2 0.13277769E-01 0.64201672E+03</pdfrwt>
<totfact> 0.10449821E+03</totfact>
</mgrwt>
</event>
<event>
 4    1  0.2209668E-005  0.5501321E+03  0.7818608E-02  0.1001463E+00
          2   -1    0    0  501    0  0.00000000000E+00  0.00000000000E+00  0.32492965333E+03  0.32492965334E+03  0.25500000000E-02 0.  1.
         -2   -1    0    0    0  501 -0.00000000000E+00 -0.00000000000E+00 -0.23285451990E+03  0.23285451992E+03  0.25500000000E-02 0. -1.
    5000001    1    1    2    0    0 -0.17944541247E+03 -0.82282574448E+02  0.88357880269E+01  0.27275107564E+03  0.18800000000E+03 0.  0.
   -5000001    1    1    2    0    0  0.17944541247E+03  0.82282574448E+02  0.83239345398E+02  0.28503309762E+03  0.18800000000E+03 0.  0.
<mgrwt>
<rscale>  0 0.55013212E+03</rscale>
<asrwt>0</asrwt>
<pdfrwt beam="1">  1        2 0.46418521E-01 0.55013212E+03</pdfrwt>
<pdfrwt beam="2">  1       -2 0.33264932E-01 0.55013212E+03</pdfrwt>
<totfact> 0.92329133E+02</totfact>
</mgrwt>
</event>
<event>
 4    1  0.2209668E-005  0.4765633E+03  0.7818608E-02  0.1020084E+00
         -2   -1    0    0    0  501 -0.00000000000E+00  0.00000000000E+00  0.10841175578E+03  0.10841175581E+03  0.25500000000E-02 0. -1.
          2   -1    0    0  501    0  0.00000000000E+00 -0.00000000000E+00 -0.52372679093E+03  0.52372679094E+03  0.25500000000E-02 0.  1.
    5000001    1    1    2    0    0  0.13805607620E+03  0.21753115486E+02 -0.26549849258E+03  0.35407079486E+03  0.18800000000E+03 0.  0.
   -5000001    1    1    2    0    0 -0.13805607620E+03 -0.21753115486E+02 -0.14981654257E+03  0.27806775188E+03  0.18800000000E+03 0.  0.
<mgrwt>
<rscale>  0 0.47656328E+03</rscale>
<asrwt>0</asrwt>
<pdfrwt beam="1">  1        2 0.74818112E-01 0.47656328E+03</pdfrwt>
<pdfrwt beam="2">  1       -2 0.15487394E-01 0.47656328E+03</pdfrwt>
<totfact> 0.20996169E+03</totfact>
</mgrwt>
</event>
<event>
 4    1  0.2209668E-005  0.5390143E+03  0.7818608E-02  0.1004069E+00
         -2   -1    0    0    0  501 -0.00000000000E+00  0.00000000000E+00  0.10910787849E+03  0.10910787852E+03  0.25500000000E-02 0. -1.
          2   -1    0    0  501    0  0.00000000000E+00 -0.00000000000E+00 -0.66570895202E+03  0.66570895202E+03  0.25500000000E-02 0.  1.
    5000001    1    1    2    0    0  0.15820249085E+03  0.67064748706E+02 -0.40496426479E+03  0.47839916846E+03  0.18800000000E+03 0.  0.
   -5000001    1    1    2    0    0 -0.15820249085E+03 -0.67064748706E+02 -0.15163680874E+03  0.29641766208E+03  0.18800000000E+03 0.  0.
<mgrwt>
<rscale>  0 0.53901425E+03</rscale>
<asrwt>0</asrwt>
<pdfrwt beam="1">  1        2 0.95101277E-01 0.53901425E+03</pdfrwt>
<pdfrwt beam="2">  1       -2 0.15586840E-01 0.53901425E+03</pdfrwt>
<totfact> 0.15703907E+03</totfact>
</mgrwt>
</event>
<event>
 4    1  0.2209668E-005  0.4603794E+03  0.7818608E-02  0.1024671E+00
          2   -1    0    0  501    0  0.00000000000E+00  0.00000000000E+00  0.59953899456E+03  0.59953899456E+03  0.25500000000E-02 0.  1.
         -2   -1    0    0    0  501 -0.00000000000E+00 -0.00000000000E+00 -0.88380078646E+02  0.88380078683E+02  0.25500000000E-02 0. -1.
    5000001    1    1    2    0    0  0.12462139921E+03  0.45965229015E+02  0.25544508863E+03  0.34385969337E+03  0.18800000000E+03 0.  0.
   -5000001    1    1    2    0    0 -0.12462139921E+03 -0.45965229015E+02  0.25571382728E+03  0.34405937988E+03  0.18800000000E+03 0.  0.
<mgrwt>
<rscale>  0 0.46037942E+03</rscale>
<asrwt>0</asrwt>
<pdfrwt beam="1">  1        2 0.85648430E-01 0.46037942E+03</pdfrwt>
<pdfrwt beam="2">  1       -2 0.12625725E-01 0.46037942E+03</pdfrwt>
<totfact> 0.25229688E+03</totfact>
</mgrwt>
</event>
<event>
 4    1  0.2209668E-005  0.6324586E+03  0.7818608E-02  0.9840263E-01
          2   -1    0    0  501    0  0.00000000000E+00  0.00000000000E+00  0.20886510551E+04  0.20886510551E+04  0.25500000000E-02 0.  1.
         -2   -1    0    0    0  501 -0.00000000000E+00 -0.00000000000E+00 -0.47878252512E+02  0.47878252580E+02  0.25500000000E-02 0. -1.
    5000001    1    1    2    0    0 -0.23361387408E+03  0.94983384773E+02  0.11303536994E+04  0.11733033586E+04  0.18800000000E+03 0.  0.
   -5000001    1    1    2    0    0  0.23361387408E+03 -0.94983384773E+02  0.91041910322E+03  0.96322594912E+03  0.18800000000E+03 0.  0.
<mgrwt>
<rscale>  0 0.63245858E+03</rscale>
<asrwt>0</asrwt>
<pdfrwt beam="1">  1        2 0.29837873E+00 0.63245858E+03</pdfrwt>
<pdfrwt beam="2">  1       -2 0.68397502E-02 0.63245858E+03</pdfrwt>
<totfact> 0.93812276E+02</totfact>
</mgrwt>
</event>
<event>
 4    1  0.2209668E-005  0.4790692E+03  0.7818608E-02  0.1019391E+00
         -2   -1    0    0    0  501 -0.00000000000E+00  0.00000000000E+00  0.48553196016E+02  0.48553196083E+02  0.25500000000E-02 0. -1.
          2   -1    0    0  501    0  0.00000000000E+00 -0.00000000000E+00 -0.11817312869E+04  0.11817312869E+04  0.25500000000E-02 0.  1.
    5000001    1    1    2    0    0  0.13069165911E+03  0.50169584160E+02 -0.43985177090E+03  0.49840834393E+03  0.18800000000E+03 0.  0.
   -5000001    1    1    2    0    0 -0.13069165911E+03 -0.50169584160E+02 -0.69332631997E+03  0.73187613904E+03  0.18800000000E+03 0.  0.
<mgrwt>
<rscale>  0 0.47906923E+03</rscale>
<asrwt>0</asrwt>
<pdfrwt beam="1">  1        2 0.16881874E+00 0.47906923E+03</pdfrwt>
<pdfrwt beam="2">  1       -2 0.69361716E-02 0.47906923E+03</pdfrwt>
<totfact> 0.27163913E+03</totfact>
</mgrwt>
</event>
<event>
 4    1  0.2209668E-005  0.5982864E+03  0.7818608E-02  0.9908968E-01
         -2   -1    0    0    0  501 -0.00000000000E+00  0.00000000000E+00  0.20924156971E+02  0.20924157126E+02  0.25500000000E-02 0. -1.
          2   -1    0    0  501    0  0.00000000000E+00 -0.00000000000E+00 -0.42767154396E+04  0.42767154396E+04  0.25500000000E-02 0.  1.
    5000001    1    1    2    0    0 -0.18758300644E+03 -0.10199134618E+03 -0.27922216429E+04  0.28066769180E+04  0.18800000000E+03 0.  0.
   -5000001    1    1    2    0    0  0.18758300644E+03  0.10199134618E+03 -0.14635696398E+04  0.14909626788E+04  0.18800000000E+03 0.  0.
<mgrwt>
<rscale>  0 0.59828644E+03</rscale>
<asrwt>0</asrwt>
<pdfrwt beam="1">  1        2 0.61095879E+00 0.59828644E+03</pdfrwt>
<pdfrwt beam="2">  1       -2 0.29891680E-02 0.59828644E+03</pdfrwt>
<totfact> 0.18516983E+02</totfact>
</mgrwt>
</event>
