<event>
 4    1  0.1025337E-004  0.4572193E+03  0.7818608E-02  0.1025591E+00
         -2   -1    0    0    0  501 -0.00000000000E+00  0.00000000000E+00  0.12228261419E+02  0.12228261685E+02  0.25500000000E-02 0. -1.
          2   -1    0    0  501    0  0.00000000000E+00 -0.00000000000E+00 -0.42739002167E+04  0.42739002167E+04  0.25500000000E-02 0.  1.
    5000001    1    1    2    0    0 -0.14815174127E+03 -0.54009463252E+02 -0.22535679258E+04  0.22650958824E+04  0.16500000000E+03 0.  0.
   -5000001    1    1    2    0    0  0.14815174127E+03  0.54009463252E+02 -0.20081040295E+04  0.20210325960E+04  0.16500000000E+03 0.  0.
<mgrwt>
<rscale>  0 0.45721929E+03</rscale>
<asrwt>0</asrwt>
<pdfrwt beam="1">  1        2 0.61055622E+00 0.45721929E+03</pdfrwt>
<pdfrwt beam="2">  1       -2 0.17468972E-02 0.45721929E+03</pdfrwt>
<totfact> 0.42729041E+02</totfact>
</mgrwt>
</event>
<event>
 4    1  0.1025337E-004  0.6306466E+03  0.7818608E-02  0.9843788E-01
         -2   -1    0    0    0  501 -0.00000000000E+00  0.00000000000E+00  0.80225171617E+02  0.80225171658E+02  0.25500000000E-02 0. -1.
          2   -1    0    0  501    0  0.00000000000E+00 -0.00000000000E+00 -0.12393713204E+04  0.12393713204E+04  0.25500000000E-02 0.  1.
    5000001    1    1    2    0    0 -0.54202489039E+01  0.24977973173E+03 -0.78655101388E+03  0.84160964284E+03  0.16500000000E+03 0.  0.
   -5000001    1    1    2    0    0  0.54202489039E+01 -0.24977973173E+03 -0.37259513493E+03  0.47798684925E+03  0.16500000000E+03 0.  0.
<mgrwt>
<rscale>  0 0.63064658E+03</rscale>
<asrwt>0</asrwt>
<pdfrwt beam="1">  1        2 0.17705303E+00 0.63064658E+03</pdfrwt>
<pdfrwt beam="2">  1       -2 0.11460740E-01 0.63064658E+03</pdfrwt>
<totfact> 0.11240340E+03</totfact>
</mgrwt>
</event>
<event>
 4    1  0.1025337E-004  0.8550031E+03  0.7818608E-02  0.9483646E-01
         -2   -1    0    0    0  501 -0.00000000000E+00  0.00000000000E+00  0.21126503857E+03  0.21126503859E+03  0.25500000000E-02 0. -1.
          2   -1    0    0  501    0  0.00000000000E+00 -0.00000000000E+00 -0.86506312996E+03  0.86506312996E+03  0.25500000000E-02 0.  1.
    5000001    1    1    2    0    0  0.24209813181E+03  0.24842626272E+03 -0.90697823346E+02  0.39468748219E+03  0.16500000000E+03 0.  0.
   -5000001    1    1    2    0    0 -0.24209813181E+03 -0.24842626272E+03 -0.56310026804E+03  0.68164068636E+03  0.16500000000E+03 0.  0.
<mgrwt>
<rscale>  0 0.85500315E+03</rscale>
<asrwt>0</asrwt>
<pdfrwt beam="1">  1        2 0.12358045E+00 0.85500315E+03</pdfrwt>
<pdfrwt beam="2">  1       -2 0.30180720E-01 0.85500315E+03</pdfrwt>
<totfact> 0.34815330E+02</totfact>
</mgrwt>
</event>
<event>
 4    1  0.1025337E-004  0.7693227E+03  0.7818608E-02  0.9605515E-01
          2   -1    0    0  501    0  0.00000000000E+00  0.00000000000E+00  0.38281223750E+03  0.38281223751E+03  0.25500000000E-02 0.  1.
         -2   -1    0    0    0  501 -0.00000000000E+00 -0.00000000000E+00 -0.38651934993E+03  0.38651934994E+03  0.25500000000E-02 0. -1.
    5000001    1    1    2    0    0  0.16165225459E+03 -0.30189218546E+03  0.57045295068E+02  0.38438198286E+03  0.16500000000E+03 0.  0.
   -5000001    1    1    2    0    0 -0.16165225459E+03  0.30189218546E+03 -0.60752407493E+02  0.38494960459E+03  0.16500000000E+03 0.  0.
<mgrwt>
<rscale>  0 0.76932266E+03</rscale>
<asrwt>0</asrwt>
<pdfrwt beam="1">  1        2 0.54687463E-01 0.76932266E+03</pdfrwt>
<pdfrwt beam="2">  1       -2 0.55217049E-01 0.76932266E+03</pdfrwt>
<totfact> 0.28224130E+02</totfact>
</mgrwt>
</event>
<event>
 4    1  0.1025337E-004  0.7753411E+03  0.7818608E-02  0.9596412E-01
         -2   -1    0    0    0  501 -0.00000000000E+00  0.00000000000E+00  0.55152762764E+03  0.55152762765E+03  0.25500000000E-02 0. -1.
          2   -1    0    0  501    0  0.00000000000E+00 -0.00000000000E+00 -0.27249486901E+03  0.27249486902E+03  0.25500000000E-02 0.  1.
    5000001    1    1    2    0    0 -0.39074327588E+02 -0.34590907814E+03  0.93391477716E+02  0.39639230760E+03  0.16500000000E+03 0.  0.
   -5000001    1    1    2    0    0  0.39074327588E+02  0.34590907814E+03  0.18564128092E+03  0.42763018906E+03  0.16500000000E+03 0.  0.
<mgrwt>
<rscale>  0 0.77534108E+03</rscale>
<asrwt>0</asrwt>
<pdfrwt beam="1">  1        2 0.38927839E-01 0.77534108E+03</pdfrwt>
<pdfrwt beam="2">  1       -2 0.78789660E-01 0.77534108E+03</pdfrwt>
<totfact> 0.19143502E+02</totfact>
</mgrwt>
</event>
<event>
 4    1  0.1025337E-004  0.3741228E+03  0.7818608E-02  0.1053128E+00
          2   -1    0    0  501    0  0.00000000000E+00  0.00000000000E+00  0.12868569223E+03  0.12868569226E+03  0.25500000000E-02 0.  1.
         -2   -1    0    0    0  501 -0.00000000000E+00 -0.00000000000E+00 -0.27191812928E+03  0.27191812930E+03  0.25500000000E-02 0. -1.
    5000001    1    1    2    0    0 -0.48203990070E+02  0.64955408798E+02 -0.10908045968E+03  0.21369692668E+03  0.16500000000E+03 0.  0.
   -5000001    1    1    2    0    0  0.48203990070E+02 -0.64955408798E+02 -0.34151977377E+02  0.18690689487E+03  0.16500000000E+03 0.  0.
<mgrwt>
<rscale>  0 0.37412283E+03</rscale>
<asrwt>0</asrwt>
<pdfrwt beam="1">  1        2 0.18383670E-01 0.37412283E+03</pdfrwt>
<pdfrwt beam="2">  1       -2 0.38845447E-01 0.37412283E+03</pdfrwt>
<totfact> 0.19434728E+03</totfact>
</mgrwt>
</event>
<event>
 4    1  0.1025337E-004  0.4472919E+03  0.7818608E-02  0.1028533E+00
         -2   -1    0    0    0  501 -0.00000000000E+00  0.00000000000E+00  0.14828682429E+03  0.14828682432E+03  0.25500000000E-02 0. -1.
          2   -1    0    0  501    0  0.00000000000E+00 -0.00000000000E+00 -0.33730242866E+03  0.33730242867E+03  0.25500000000E-02 0.  1.
    5000001    1    1    2    0    0  0.14917034342E+02 -0.14412617574E+03 -0.48479110055E+02  0.22487795925E+03  0.16500000000E+03 0.  0.
   -5000001    1    1    2    0    0 -0.14917034342E+02  0.14412617574E+03 -0.14053649431E+03  0.26071129373E+03  0.16500000000E+03 0.  0.
<mgrwt>
<rscale>  0 0.44729188E+03</rscale>
<asrwt>0</asrwt>
<pdfrwt beam="1">  1        2 0.48186061E-01 0.44729188E+03</pdfrwt>
<pdfrwt beam="2">  1       -2 0.21183832E-01 0.44729188E+03</pdfrwt>
<totfact> 0.20009175E+03</totfact>
</mgrwt>
</event>
<event>
 4    1  0.1025337E-004  0.9316225E+03  0.7818608E-02  0.9386893E-01
          2   -1    0    0  501    0  0.00000000000E+00  0.00000000000E+00  0.65639173300E+03  0.65639173301E+03  0.25500000000E-02 0.  1.
         -2   -1    0    0    0  501 -0.00000000000E+00 -0.00000000000E+00 -0.33056497019E+03  0.33056497020E+03  0.25500000000E-02 0. -1.
    5000001    1    1    2    0    0  0.24108486895E+03 -0.35650790330E+03  0.91568660451E+02  0.46992512034E+03  0.16500000000E+03 0.  0.
   -5000001    1    1    2    0    0 -0.24108486895E+03  0.35650790330E+03  0.23425810236E+03  0.51703158286E+03  0.16500000000E+03 0.  0.
<mgrwt>
<rscale>  0 0.93162249E+03</rscale>
<asrwt>0</asrwt>
<pdfrwt beam="1">  1        2 0.93770247E-01 0.93162249E+03</pdfrwt>
<pdfrwt beam="2">  1       -2 0.47223567E-01 0.93162249E+03</pdfrwt>
<totfact> 0.20722652E+02</totfact>
</mgrwt>
</event>
<event>
 4    1  0.1025337E-004  0.4690467E+03  0.7818608E-02  0.1022190E+00
          2   -1    0    0  501    0  0.00000000000E+00  0.00000000000E+00  0.17958205674E+04  0.17958205674E+04  0.25500000000E-02 0.  1.
         -2   -1    0    0    0  501 -0.00000000000E+00 -0.00000000000E+00 -0.30627338213E+02  0.30627338320E+02  0.25500000000E-02 0. -1.
    5000001    1    1    2    0    0 -0.12682473580E+03  0.62897157604E+02  0.12250798071E+04  0.12442210816E+04  0.16500000000E+03 0.  0.
   -5000001    1    1    2    0    0  0.12682473580E+03 -0.62897157604E+02  0.54011342205E+03  0.58222682412E+03  0.16500000000E+03 0.  0.
<mgrwt>
<rscale>  0 0.46904671E+03</rscale>
<asrwt>0</asrwt>
<pdfrwt beam="1">  1        2 0.25654590E+00 0.46904671E+03</pdfrwt>
<pdfrwt beam="2">  1       -2 0.43753322E-02 0.46904671E+03</pdfrwt>
<totfact> 0.26550388E+03</totfact>
</mgrwt>
</event>
<event>
 4    1  0.1025337E-004  0.8595852E+03  0.7818608E-02  0.9477562E-01
          2   -1    0    0  501    0  0.00000000000E+00  0.00000000000E+00  0.13001495325E+03  0.13001495328E+03  0.25500000000E-02 0.  1.
         -2   -1    0    0    0  501 -0.00000000000E+00 -0.00000000000E+00 -0.14207727254E+04  0.14207727254E+04  0.25500000000E-02 0. -1.
    5000001    1    1    2    0    0 -0.13055490405E+03 -0.36713882197E+03 -0.78112196975E+03  0.88837606294E+03  0.16500000000E+03 0.  0.
   -5000001    1    1    2    0    0  0.13055490405E+03  0.36713882197E+03 -0.50963580236E+03  0.66241161571E+03  0.16500000000E+03 0.  0.
<mgrwt>
<rscale>  0 0.85958525E+03</rscale>
<asrwt>0</asrwt>
<pdfrwt beam="1">  1        2 0.18573566E-01 0.85958525E+03</pdfrwt>
<pdfrwt beam="2">  1       -2 0.20296752E+00 0.85958525E+03</pdfrwt>
<totfact> 0.39876900E+01</totfact>
</mgrwt>
</event>
<event>
 4    1  0.1025337E-004  0.4170337E+03  0.7818608E-02  0.1038036E+00
         -2   -1    0    0    0  501 -0.00000000000E+00  0.00000000000E+00  0.76972056817E+02  0.76972056859E+02  0.25500000000E-02 0. -1.
          2   -1    0    0  501    0  0.00000000000E+00 -0.00000000000E+00 -0.56487081005E+03  0.56487081006E+03  0.25500000000E-02 0.  1.
    5000001    1    1    2    0    0 -0.63099565905E+02  0.10360570383E+03 -0.30431871062E+03  0.36681136121E+03  0.16500000000E+03 0.  0.
   -5000001    1    1    2    0    0  0.63099565905E+02 -0.10360570383E+03 -0.18358004262E+03  0.27503150571E+03  0.16500000000E+03 0.  0.
<mgrwt>
<rscale>  0 0.41703366E+03</rscale>
<asrwt>0</asrwt>
<pdfrwt beam="1">  1        2 0.80695828E-01 0.41703366E+03</pdfrwt>
<pdfrwt beam="2">  1       -2 0.10996008E-01 0.41703366E+03</pdfrwt>
<totfact> 0.33825744E+03</totfact>
</mgrwt>
</event>
<event>
 4    1  0.1025337E-004  0.4544178E+03  0.7818608E-02  0.1026413E+00
          2   -1    0    0  501    0  0.00000000000E+00  0.00000000000E+00  0.10412285271E+04  0.10412285271E+04  0.25500000000E-02 0.  1.
         -2   -1    0    0    0  501 -0.00000000000E+00 -0.00000000000E+00 -0.49579786466E+02  0.49579786531E+02  0.25500000000E-02 0. -1.
    5000001    1    1    2    0    0 -0.81361981144E+02  0.12485269222E+03  0.38346572834E+03  0.44325944044E+03  0.16500000000E+03 0.  0.
   -5000001    1    1    2    0    0  0.81361981144E+02 -0.12485269222E+03  0.60818301230E+03  0.64754887319E+03  0.16500000000E+03 0.  0.
<mgrwt>
<rscale>  0 0.45441782E+03</rscale>
<asrwt>0</asrwt>
<pdfrwt beam="1">  1        2 0.14874691E+00 0.45441782E+03</pdfrwt>
<pdfrwt beam="2">  1       -2 0.70828276E-02 0.45441782E+03</pdfrwt>
<totfact> 0.31646375E+03</totfact>
</mgrwt>
</event>
<event>
 4    1  0.1025337E-004  0.4503540E+03  0.7818608E-02  0.1027617E+00
          2   -1    0    0  501    0  0.00000000000E+00  0.00000000000E+00  0.15976992693E+04  0.15976992693E+04  0.25500000000E-02 0.  1.
         -2   -1    0    0    0  501 -0.00000000000E+00 -0.00000000000E+00 -0.31736065683E+02  0.31736065786E+02  0.25500000000E-02 0. -1.
    5000001    1    1    2    0    0 -0.15143782197E+03 -0.20131543488E+02  0.74001939518E+03  0.77342898717E+03  0.16500000000E+03 0.  0.
   -5000001    1    1    2    0    0  0.15143782197E+03  0.20131543488E+02  0.82594380844E+03  0.85600634791E+03  0.16500000000E+03 0.  0.
<mgrwt>
<rscale>  0 0.45035403E+03</rscale>
<asrwt>0</asrwt>
<pdfrwt beam="1">  1        2 0.22824274E+00 0.45035403E+03</pdfrwt>
<pdfrwt beam="2">  1       -2 0.45337240E-02 0.45035403E+03</pdfrwt>
<totfact> 0.31652021E+03</totfact>
</mgrwt>
</event>
<event>
 4    1  0.1025337E-004  0.7223577E+03  0.7818608E-02  0.9679743E-01
         -2   -1    0    0    0  501 -0.00000000000E+00  0.00000000000E+00  0.37291608773E+03  0.37291608774E+03  0.25500000000E-02 0.  1.
          2   -1    0    0  501    0  0.00000000000E+00 -0.00000000000E+00 -0.34981107686E+03  0.34981107687E+03  0.25500000000E-02 0. -1.
    5000001    1    1    2    0    0  0.31838676242E+03  0.23797299788E+02  0.47469837605E+02  0.36251183076E+03  0.16500000000E+03 0.  0.
   -5000001    1    1    2    0    0 -0.31838676242E+03 -0.23797299788E+02 -0.24364826740E+02  0.36021533385E+03  0.16500000000E+03 0.  0.
<mgrwt>
<rscale>  0 0.72235775E+03</rscale>
<asrwt>0</asrwt>
<pdfrwt beam="1">  1        2 0.49973011E-01 0.72235775E+03</pdfrwt>
<pdfrwt beam="2">  1       -2 0.53273727E-01 0.72235775E+03</pdfrwt>
<totfact> 0.33651931E+02</totfact>
</mgrwt>
</event>
<event>
 4    1  0.1025337E-004  0.9705610E+03  0.7818608E-02  0.9341436E-01
         -2   -1    0    0    0  501 -0.00000000000E+00  0.00000000000E+00  0.23605421322E+03  0.23605421323E+03  0.25500000000E-02 0. -1.
          2   -1    0    0  501    0  0.00000000000E+00 -0.00000000000E+00 -0.99764017740E+03  0.99764017741E+03  0.25500000000E-02 0.  1.
    5000001    1    1    2    0    0  0.39150672726E+03 -0.20251328412E+03 -0.53110206715E+03  0.70963621206E+03  0.16500000000E+03 0.  0.
   -5000001    1    1    2    0    0 -0.39150672726E+03  0.20251328412E+03 -0.23048389704E+03  0.52405817858E+03  0.16500000000E+03 0.  0.
<mgrwt>
<rscale>  0 0.97056101E+03</rscale>
<asrwt>0</asrwt>
<pdfrwt beam="1">  1        2 0.14252002E+00 0.97056101E+03</pdfrwt>
<pdfrwt beam="2">  1       -2 0.33722031E-01 0.97056101E+03</pdfrwt>
<totfact> 0.23114236E+02</totfact>
</mgrwt>
</event>
<event>
 4    1  0.1025337E-004  0.3513052E+03  0.7818608E-02  0.1062081E+00
          2   -1    0    0  501    0  0.00000000000E+00  0.00000000000E+00  0.14662305265E+04  0.14662305265E+04  0.25500000000E-02 0.  1.
         -2   -1    0    0    0  501 -0.00000000000E+00 -0.00000000000E+00 -0.21042969452E+02  0.21042969606E+02  0.25500000000E-02 0. -1.
    5000001    1    1    2    0    0  0.20186489036E+02 -0.84786411856E+01  0.48500581832E+03  0.51277190397E+03  0.16500000000E+03 0.  0.
   -5000001    1    1    2    0    0 -0.20186489036E+02  0.84786411856E+01  0.96018173874E+03  0.97450159215E+03  0.16500000000E+03 0.  0.
<mgrwt>
<rscale>  0 0.35130525E+03</rscale>
<asrwt>0</asrwt>
<pdfrwt beam="1">  1        2 0.20946155E+00 0.35130525E+03</pdfrwt>
<pdfrwt beam="2">  1       -2 0.30061379E-02 0.35130525E+03</pdfrwt>
<totfact> 0.68809958E+03</totfact>
</mgrwt>
</event>
<event>
 4    1  0.1025337E-004  0.5859269E+03  0.7818608E-02  0.9935041E-01
         -2   -1    0    0    0  501 -0.00000000000E+00  0.00000000000E+00  0.23968417903E+03  0.23968417904E+03  0.25500000000E-02 0. -1.
          2   -1    0    0  501    0  0.00000000000E+00 -0.00000000000E+00 -0.35808611907E+03  0.35808611907E+03  0.25500000000E-02 0.  1.
    5000001    1    1    2    0    0  0.13051723520E+02  0.23881800059E+03 -0.97349201225E+02  0.30644126986E+03  0.16500000000E+03 0.  0.
   -5000001    1    1    2    0    0 -0.13051723520E+02 -0.23881800059E+03 -0.21052738813E+02  0.29132902826E+03  0.16500000000E+03 0.  0.
<mgrwt>
<rscale>  0 0.58592688E+03</rscale>
<asrwt>0</asrwt>
<pdfrwt beam="1">  1        2 0.51155160E-01 0.58592688E+03</pdfrwt>
<pdfrwt beam="2">  1       -2 0.34240597E-01 0.58592688E+03</pdfrwt>
<totfact> 0.78533226E+02</totfact>
</mgrwt>
</event>
<event>
 4    1  0.1025337E-004  0.1409558E+04  0.7818608E-02  0.8946929E-01
         -2   -1    0    0    0  501 -0.00000000000E+00  0.00000000000E+00  0.76037043443E+03  0.76037043444E+03  0.25500000000E-02 0. -1.
          2   -1    0    0  501    0  0.00000000000E+00 -0.00000000000E+00 -0.65325175396E+03  0.65325175397E+03  0.25500000000E-02 0.  1.
    5000001    1    1    2    0    0  0.62190094158E+03 -0.21527004889E+03 -0.13774273015E+03  0.69231498236E+03  0.16500000000E+03 0.  0.
   -5000001    1    1    2    0    0 -0.62190094158E+03  0.21527004889E+03  0.24486141062E+03  0.72130720605E+03  0.16500000000E+03 0.  0.
<mgrwt>
<rscale>  0 0.14095578E+04</rscale>
<asrwt>0</asrwt>
<pdfrwt beam="1">  1        2 0.93321679E-01 0.14095578E+04</pdfrwt>
<pdfrwt beam="2">  1       -2 0.10862435E+00 0.14095578E+04</pdfrwt>
<totfact> 0.32332842E+01</totfact>
</mgrwt>
</event>
<event>
 4    1  0.1025337E-004  0.4421442E+03  0.7818608E-02  0.1030091E+00
         -2   -1    0    0    0  501 -0.00000000000E+00  0.00000000000E+00  0.70230867353E+02  0.70230867400E+02  0.25500000000E-02 0. -1.
          2   -1    0    0  501    0  0.00000000000E+00 -0.00000000000E+00 -0.69588887407E+03  0.69588887407E+03  0.25500000000E-02 0.  1.
    5000001    1    1    2    0    0  0.74431047127E+02 -0.12663196483E+03 -0.32755665107E+03  0.39508732573E+03  0.16500000000E+03 0.  0.
   -5000001    1    1    2    0    0 -0.74431047127E+02  0.12663196483E+03 -0.29810135565E+03  0.37103241574E+03  0.16500000000E+03 0.  0.
<mgrwt>
<rscale>  0 0.44214423E+03</rscale>
<asrwt>0</asrwt>
<pdfrwt beam="1">  1        2 0.99412692E-01 0.44214423E+03</pdfrwt>
<pdfrwt beam="2">  1       -2 0.10032981E-01 0.44214423E+03</pdfrwt>
<totfact> 0.30715105E+03</totfact>
</mgrwt>
</event>
<event>
 4    1  0.1025337E-004  0.4053697E+03  0.7818608E-02  0.1041936E+00
          2   -1    0    0  501    0  0.00000000000E+00  0.00000000000E+00  0.38504453568E+04  0.38504453568E+04  0.25500000000E-02 0.  1.
         -2   -1    0    0    0  501 -0.00000000000E+00 -0.00000000000E+00 -0.10669191850E+02  0.10669192155E+02  0.25500000000E-02 0. -1.
    5000001    1    1    2    0    0 -0.84810530027E+02 -0.49320335923E+02  0.25394342572E+04  0.25466795378E+04  0.16500000000E+03 0.  0.
   -5000001    1    1    2    0    0  0.84810530027E+02  0.49320335923E+02  0.13003419078E+04  0.13144350112E+04  0.16500000000E+03 0.  0.
<mgrwt>
<rscale>  0 0.40536966E+03</rscale>
<asrwt>0</asrwt>
<pdfrwt beam="1">  1        2 0.55006323E+00 0.40536966E+03</pdfrwt>
<pdfrwt beam="2">  1       -2 0.15241714E-02 0.40536966E+03</pdfrwt>
<totfact> 0.10166279E+03</totfact>
</mgrwt>
</event>
<event>
 4    1  0.1025337E-004  0.4999314E+03  0.7818608E-02  0.1013797E+00
          2   -1    0    0  501    0  0.00000000000E+00  0.00000000000E+00  0.11499206039E+03  0.11499206042E+03  0.25500000000E-02 0.  1.
         -2   -1    0    0    0  501 -0.00000000000E+00 -0.00000000000E+00 -0.54336671398E+03  0.54336671398E+03  0.25500000000E-02 0. -1.
    5000001    1    1    2    0    0 -0.49049043052E+02  0.17588123004E+03 -0.27185847993E+03  0.36670430706E+03  0.16500000000E+03 0.  0.
   -5000001    1    1    2    0    0  0.49049043052E+02 -0.17588123004E+03 -0.15651617366E+03  0.29165446735E+03  0.16500000000E+03 0.  0.
<mgrwt>
<rscale>  0 0.49993143E+03</rscale>
<asrwt>0</asrwt>
<pdfrwt beam="1">  1        2 0.16427437E-01 0.49993143E+03</pdfrwt>
<pdfrwt beam="2">  1       -2 0.77623815E-01 0.49993143E+03</pdfrwt>
<totfact> 0.53562791E+02</totfact>
</mgrwt>
</event>
<event>
 4    1  0.1025337E-004  0.5726850E+03  0.7818608E-02  0.9963755E-01
          2   -1    0    0  501    0  0.00000000000E+00  0.00000000000E+00  0.17572811721E+04  0.17572811721E+04  0.25500000000E-02 0.  1.
         -2   -1    0    0    0  501 -0.00000000000E+00 -0.00000000000E+00 -0.46658463786E+02  0.46658463856E+02  0.25500000000E-02 0. -1.
    5000001    1    1    2    0    0 -0.18518949374E+03  0.49530119657E+02  0.43247980111E+03  0.50101113732E+03  0.16500000000E+03 0.  0.
   -5000001    1    1    2    0    0  0.18518949374E+03 -0.49530119657E+02  0.12781429072E+04  0.13029284986E+04  0.16500000000E+03 0.  0.
<mgrwt>
<rscale>  0 0.57268504E+03</rscale>
<asrwt>0</asrwt>
<pdfrwt beam="1">  1        2 0.25104016E+00 0.57268504E+03</pdfrwt>
<pdfrwt beam="2">  1       -2 0.66654950E-02 0.57268504E+03</pdfrwt>
<totfact> 0.14389414E+03</totfact>
</mgrwt>
</event>
<event>
 4    1  0.1025337E-004  0.6945617E+03  0.7818608E-02  0.9726578E-01
          2   -1    0    0  501    0  0.00000000000E+00  0.00000000000E+00  0.48011227939E+04  0.48011227939E+04  0.25500000000E-02 0.  1.
         -2   -1    0    0    0  501 -0.00000000000E+00 -0.00000000000E+00 -0.25119957109E+02  0.25119957239E+02  0.25500000000E-02 0. -1.
    5000001    1    1    2    0    0  0.28899355514E+03  0.43196438434E+02  0.30093410423E+04  0.30279930178E+04  0.16500000000E+03 0.  0.
   -5000001    1    1    2    0    0 -0.28899355514E+03 -0.43196438434E+02  0.17666617946E+04  0.17982497334E+04  0.16500000000E+03 0.  0.
<mgrwt>
<rscale>  0 0.69456173E+03</rscale>
<asrwt>0</asrwt>
<pdfrwt beam="1">  1        2 0.68587512E+00 0.69456173E+03</pdfrwt>
<pdfrwt beam="2">  1       -2 0.35885630E-02 0.69456173E+03</pdfrwt>
<totfact> 0.53151277E+01</totfact>
</mgrwt>
</event>
<event>
 4    1  0.1025337E-004  0.5875580E+03  0.7818608E-02  0.9931561E-01
         -2   -1    0    0    0  501 -0.00000000000E+00  0.00000000000E+00  0.29676017922E+03  0.29676017923E+03  0.25500000000E-02 0. -1.
          2   -1    0    0  501    0  0.00000000000E+00 -0.00000000000E+00 -0.29082775265E+03  0.29082775267E+03  0.25500000000E-02 0.  1.
    5000001    1    1    2    0    0  0.22665351776E+03  0.87790639425E+02  0.15230438884E+01  0.29377939537E+03  0.16500000000E+03 0.  0.
   -5000001    1    1    2    0    0 -0.22665351776E+03 -0.87790639425E+02  0.44093826807E+01  0.29380853653E+03  0.16500000000E+03 0.  0.
<mgrwt>
<rscale>  0 0.58755798E+03</rscale>
<asrwt>0</asrwt>
<pdfrwt beam="1">  1        2 0.41546822E-01 0.58755798E+03</pdfrwt>
<pdfrwt beam="2">  1       -2 0.42394312E-01 0.58755798E+03</pdfrwt>
<totfact> 0.65509543E+02</totfact>
</mgrwt>
</event>
<event>
 4    1  0.1025337E-004  0.5064826E+03  0.7818608E-02  0.1012101E+00
          2   -1    0    0  501    0  0.00000000000E+00  0.00000000000E+00  0.28361032926E+04  0.28361032926E+04  0.25500000000E-02 0.  1.
         -2   -1    0    0    0  501 -0.00000000000E+00 -0.00000000000E+00 -0.22612419312E+02  0.22612419456E+02  0.25500000000E-02 0. -1.
    5000001    1    1    2    0    0  0.15603872719E+03  0.85368115186E+02  0.99698834662E+03  0.10260831169E+04  0.16500000000E+03 0.  0.
   -5000001    1    1    2    0    0 -0.15603872719E+03 -0.85368115186E+02  0.18165025267E+04  0.18326325952E+04  0.16500000000E+03 0.  0.
<mgrwt>
<rscale>  0 0.50648260E+03</rscale>
<asrwt>0</asrwt>
<pdfrwt beam="1">  1        2 0.40515738E+00 0.50648260E+03</pdfrwt>
<pdfrwt beam="2">  1       -2 0.32303475E-02 0.50648260E+03</pdfrwt>
<totfact> 0.12498398E+03</totfact>
</mgrwt>
</event>
<event>
 4    1  0.1025337E-004  0.6486323E+03  0.7818608E-02  0.9809349E-01
          2   -1    0    0  501    0  0.00000000000E+00  0.00000000000E+00  0.16549847153E+04  0.16549847153E+04  0.25500000000E-02 0.  1.
         -2   -1    0    0    0  501 -0.00000000000E+00 -0.00000000000E+00 -0.63554031171E+02  0.63554031222E+02  0.25500000000E-02 0. -1.
    5000001    1    1    2    0    0 -0.14786620585E+02  0.11844251479E+03  0.14644596216E+04  0.14785514048E+04  0.16500000000E+03 0.  0.
   -5000001    1    1    2    0    0  0.14786620585E+02 -0.11844251479E+03  0.12697106257E+03  0.23998734173E+03  0.16500000000E+03 0.  0.
<mgrwt>
<rscale>  0 0.64863225E+03</rscale>
<asrwt>0</asrwt>
<pdfrwt beam="1">  1        2 0.23642636E+00 0.64863225E+03</pdfrwt>
<pdfrwt beam="2">  1       -2 0.90791482E-02 0.64863225E+03</pdfrwt>
<totfact> 0.98850937E+02</totfact>
</mgrwt>
</event>
<event>
 4    1  0.1025337E-004  0.5682772E+03  0.7818608E-02  0.9973498E-01
         -2   -1    0    0    0  501 -0.00000000000E+00  0.00000000000E+00  0.16410838660E+03  0.16410838662E+03  0.25500000000E-02 0. -1.
          2   -1    0    0  501    0  0.00000000000E+00 -0.00000000000E+00 -0.49195982160E+03  0.49195982161E+03  0.25500000000E-02 0.  1.
    5000001    1    1    2    0    0  0.36452738813E+02 -0.16408134311E+03  0.19554971755E+02  0.23634484603E+03  0.16500000000E+03 0.  0.
   -5000001    1    1    2    0    0 -0.36452738813E+02  0.16408134311E+03 -0.34740640675E+03  0.41972336220E+03  0.16500000000E+03 0.  0.
<mgrwt>
<rscale>  0 0.56827716E+03</rscale>
<asrwt>0</asrwt>
<pdfrwt beam="1">  1        2 0.70279974E-01 0.56827716E+03</pdfrwt>
<pdfrwt beam="2">  1       -2 0.23444055E-01 0.56827716E+03</pdfrwt>
<totfact> 0.11020997E+03</totfact>
</mgrwt>
</event>
<event>
 4    1  0.1025337E-004  0.4032973E+03  0.7818608E-02  0.1042644E+00
         -2   -1    0    0    0  501 -0.00000000000E+00  0.00000000000E+00  0.20856067275E+02  0.20856067431E+02  0.25500000000E-02 0. -1.
          2   -1    0    0  501    0  0.00000000000E+00 -0.00000000000E+00 -0.19496568760E+04  0.19496568760E+04  0.25500000000E-02 0.  1.
    5000001    1    1    2    0    0 -0.83906089324E+02  0.50926087054E+02 -0.66306900549E+03  0.69030370433E+03  0.16500000000E+03 0.  0.
   -5000001    1    1    2    0    0  0.83906089324E+02 -0.50926087054E+02 -0.12657318032E+04  0.12802092391E+04  0.16500000000E+03 0.  0.
<mgrwt>
<rscale>  0 0.40329729E+03</rscale>
<asrwt>0</asrwt>
<pdfrwt beam="1">  1        2 0.27852229E+00 0.40329729E+03</pdfrwt>
<pdfrwt beam="2">  1       -2 0.29794394E-02 0.40329729E+03</pdfrwt>
<totfact> 0.39949374E+03</totfact>
</mgrwt>
</event>
<event>
 4    1  0.1025337E-004  0.3577339E+03  0.7818608E-02  0.1059485E+00
          2   -1    0    0  501    0  0.00000000000E+00  0.00000000000E+00  0.43233225027E+03  0.43233225027E+03  0.25500000000E-02 0.  1.
         -2   -1    0    0    0  501 -0.00000000000E+00 -0.00000000000E+00 -0.74001859455E+02  0.74001859498E+02  0.25500000000E-02 0. -1.
    5000001    1    1    2    0    0  0.63353156922E+02 -0.17391644832E+02  0.14906358753E+03  0.23186428127E+03  0.16500000000E+03 0.  0.
   -5000001    1    1    2    0    0 -0.63353156922E+02  0.17391644832E+02  0.20926680328E+03  0.27446982850E+03  0.16500000000E+03 0.  0.
<mgrwt>
<rscale>  0 0.35773393E+03</rscale>
<asrwt>0</asrwt>
<pdfrwt beam="1">  1        2 0.61761750E-01 0.35773393E+03</pdfrwt>
<pdfrwt beam="2">  1       -2 0.10571694E-01 0.35773393E+03</pdfrwt>
<totfact> 0.48480416E+03</totfact>
</mgrwt>
</event>
<event>
 4    1  0.1025337E-004  0.6127515E+03  0.7818608E-02  0.9879298E-01
         -2   -1    0    0    0  501 -0.00000000000E+00  0.00000000000E+00  0.13538189210E+03  0.13538189212E+03  0.25500000000E-02 0. -1.
          2   -1    0    0  501    0  0.00000000000E+00 -0.00000000000E+00 -0.69334306330E+03  0.69334306330E+03  0.25500000000E-02 0.  1.
    5000001    1    1    2    0    0  0.22100572893E+03  0.10052693748E+03 -0.39759645983E+03  0.49422377750E+03  0.16500000000E+03 0.  0.
   -5000001    1    1    2    0    0 -0.22100572893E+03 -0.10052693748E+03 -0.16036471137E+03  0.33450117792E+03  0.16500000000E+03 0.  0.
<mgrwt>
<rscale>  0 0.61275149E+03</rscale>
<asrwt>0</asrwt>
<pdfrwt beam="1">  1        2 0.99049007E-01 0.61275149E+03</pdfrwt>
<pdfrwt beam="2">  1       -2 0.19340271E-01 0.61275149E+03</pdfrwt>
<totfact> 0.10329411E+03</totfact>
</mgrwt>
</event>
<event>
 4    1  0.1025337E-004  0.3844377E+03  0.7818608E-02  0.1049306E+00
          2   -1    0    0  501    0  0.00000000000E+00  0.00000000000E+00  0.25486273624E+03  0.25486273625E+03  0.25500000000E-02 0.  1.
         -2   -1    0    0    0  501 -0.00000000000E+00 -0.00000000000E+00 -0.14497246190E+03  0.14497246192E+03  0.25500000000E-02 0. -1.
    5000001    1    1    2    0    0  0.31115612301E+02 -0.44472920828E+02 -0.30674946268E+02  0.17638586776E+03  0.16500000000E+03 0.  0.
   -5000001    1    1    2    0    0 -0.31115612301E+02  0.44472920828E+02  0.14056522061E+03  0.22344933041E+03  0.16500000000E+03 0.  0.
<mgrwt>
<rscale>  0 0.38443766E+03</rscale>
<asrwt>0</asrwt>
<pdfrwt beam="1">  1        2 0.36408962E-01 0.38443766E+03</pdfrwt>
<pdfrwt beam="2">  1       -2 0.20710352E-01 0.38443766E+03</pdfrwt>
<totfact> 0.28208886E+03</totfact>
</mgrwt>
</event>
<event>
 4    1  0.1025337E-004  0.3860215E+03  0.7818608E-02  0.1048730E+00
         -2   -1    0    0    0  501 -0.00000000000E+00  0.00000000000E+00  0.43937650989E+02  0.43937651063E+02  0.25500000000E-02 0. -1.
          2   -1    0    0  501    0  0.00000000000E+00 -0.00000000000E+00 -0.84786396237E+03  0.84786396237E+03  0.25500000000E-02 0.  1.
    5000001    1    1    2    0    0 -0.72087947579E+02 -0.65648994286E+02 -0.34919617008E+03  0.39833331248E+03  0.16500000000E+03 0.  0.
   -5000001    1    1    2    0    0  0.72087947579E+02  0.65648994286E+02 -0.45473014130E+03  0.49346830095E+03  0.16500000000E+03 0.  0.
<mgrwt>
<rscale>  0 0.38602151E+03</rscale>
<asrwt>0</asrwt>
<pdfrwt beam="1">  1        2 0.12112341E+00 0.38602151E+03</pdfrwt>
<pdfrwt beam="2">  1       -2 0.62768078E-02 0.38602151E+03</pdfrwt>
<totfact> 0.50305282E+03</totfact>
</mgrwt>
</event>
<event>
 4    1  0.1025337E-004  0.9746317E+03  0.7818608E-02  0.9336814E-01
         -2   -1    0    0    0  501 -0.00000000000E+00  0.00000000000E+00  0.80686713015E+02  0.80686713055E+02  0.25500000000E-02 0. -1.
          2   -1    0    0  501    0  0.00000000000E+00 -0.00000000000E+00 -0.29431950388E+04  0.29431950388E+04  0.25500000000E-02 0.  1.
    5000001    1    1    2    0    0 -0.43707644670E+02 -0.44320929874E+03 -0.17698046923E+04  0.18324242111E+04  0.16500000000E+03 0.  0.
   -5000001    1    1    2    0    0  0.43707644670E+02  0.44320929874E+03 -0.10927036335E+04  0.11914575407E+04  0.16500000000E+03 0.  0.
<mgrwt>
<rscale>  0 0.97463169E+03</rscale>
<asrwt>0</asrwt>
<pdfrwt beam="1">  1        2 0.42045637E+00 0.97463169E+03</pdfrwt>
<pdfrwt beam="2">  1       -2 0.11526675E-01 0.97463169E+03</pdfrwt>
<totfact> 0.14110831E+02</totfact>
</mgrwt>
</event>
<event>
 4    1  0.1025337E-004  0.3557010E+03  0.7818608E-02  0.1060299E+00
          2   -1    0    0  501    0  0.00000000000E+00  0.00000000000E+00  0.56957897076E+03  0.56957897077E+03  0.25500000000E-02 0.  1.
         -2   -1    0    0    0  501 -0.00000000000E+00 -0.00000000000E+00 -0.55533661212E+02  0.55533661270E+02  0.25500000000E-02 0. -1.
    5000001    1    1    2    0    0 -0.47903798386E+01 -0.38180484639E+02  0.16197440144E+03  0.23439582732E+03  0.16500000000E+03 0.  0.
   -5000001    1    1    2    0    0  0.47903798386E+01  0.38180484639E+02  0.35207090812E+03  0.39071680472E+03  0.16500000000E+03 0.  0.
<mgrwt>
<rscale>  0 0.35570103E+03</rscale>
<asrwt>0</asrwt>
<pdfrwt beam="1">  1        2 0.81368428E-01 0.35570103E+03</pdfrwt>
<pdfrwt beam="2">  1       -2 0.79333798E-02 0.35570103E+03</pdfrwt>
<totfact> 0.56219157E+03</totfact>
</mgrwt>
</event>
<event>
 4    1  0.1025337E-004  0.9488977E+03  0.7818608E-02  0.9366440E-01
         -2   -1    0    0    0  501 -0.00000000000E+00  0.00000000000E+00  0.18281535604E+03  0.18281535606E+03  0.25500000000E-02 0. -1.
          2   -1    0    0  501    0  0.00000000000E+00 -0.00000000000E+00 -0.12313064739E+04  0.12313064739E+04  0.25500000000E-02 0.  1.
    5000001    1    1    2    0    0 -0.10602463901E+03  0.42465002770E+03 -0.64260651973E+03  0.79481885313E+03  0.16500000000E+03 0.  0.
   -5000001    1    1    2    0    0  0.10602463901E+03 -0.42465002770E+03 -0.40588459815E+03  0.61930297684E+03  0.16500000000E+03 0.  0.
<mgrwt>
<rscale>  0 0.94889774E+03</rscale>
<asrwt>0</asrwt>
<pdfrwt beam="1">  1        2 0.17590092E+00 0.94889774E+03</pdfrwt>
<pdfrwt beam="2">  1       -2 0.26116480E-01 0.94889774E+03</pdfrwt>
<totfact> 0.27107224E+02</totfact>
</mgrwt>
</event>
<event>
 4    1  0.1025337E-004  0.1106266E+04  0.7818608E-02  0.9199106E-01
          2   -1    0    0  501    0  0.00000000000E+00  0.00000000000E+00  0.95098168351E+03  0.95098168352E+03  0.25500000000E-02 0.  1.
         -2   -1    0    0    0  501 -0.00000000000E+00 -0.00000000000E+00 -0.32172689734E+03  0.32172689735E+03  0.25500000000E-02 0. -1.
    5000001    1    1    2    0    0  0.26456846093E+03  0.16534241465E+03 -0.17535900923E+03  0.39409436271E+03  0.16500000000E+03 0.  0.
   -5000001    1    1    2    0    0 -0.26456846093E+03 -0.16534241465E+03  0.80461379540E+03  0.87861421816E+03  0.16500000000E+03 0.  0.
<mgrwt>
<rscale>  0 0.11062665E+04</rscale>
<asrwt>0</asrwt>
<pdfrwt beam="1">  1        2 0.13585453E+00 0.11062665E+04</pdfrwt>
<pdfrwt beam="2">  1       -2 0.45960985E-01 0.11062665E+04</pdfrwt>
<totfact> 0.13422818E+02</totfact>
</mgrwt>
</event>
<event>
 4    1  0.1025337E-004  0.4545599E+03  0.7818608E-02  0.1026371E+00
         -2   -1    0    0    0  501 -0.00000000000E+00  0.00000000000E+00  0.20488241832E+02  0.20488241991E+02  0.25500000000E-02 0. -1.
          2   -1    0    0  501    0  0.00000000000E+00 -0.00000000000E+00 -0.25212598873E+04  0.25212598873E+04  0.25500000000E-02 0.  1.
    5000001    1    1    2    0    0  0.40519819923E+02  0.14469185572E+03 -0.10096456204E+04  0.10340149263E+04  0.16500000000E+03 0.  0.
   -5000001    1    1    2    0    0 -0.40519819923E+02 -0.14469185572E+03 -0.14911260250E+04  0.15077332030E+04  0.16500000000E+03 0.  0.
<mgrwt>
<rscale>  0 0.45455993E+03</rscale>
<asrwt>0</asrwt>
<pdfrwt beam="1">  1        2 0.36017979E+00 0.45455993E+03</pdfrwt>
<pdfrwt beam="2">  1       -2 0.29268933E-02 0.45455993E+03</pdfrwt>
<totfact> 0.21214085E+03</totfact>
</mgrwt>
</event>
<event>
 4    1  0.1025337E-004  0.8219551E+03  0.7818608E-02  0.9528771E-01
         -2   -1    0    0    0  501 -0.00000000000E+00  0.00000000000E+00  0.96405605835E+02  0.96405605868E+02  0.25500000000E-02 0. -1.
          2   -1    0    0  501    0  0.00000000000E+00 -0.00000000000E+00 -0.17519993357E+04  0.17519993357E+04  0.25500000000E-02 0.  1.
    5000001    1    1    2    0    0  0.85503307035E+02  0.29770795388E+03 -0.34686727117E+03  0.49343970769E+03  0.16500000000E+03 0.  0.
   -5000001    1    1    2    0    0 -0.85503307035E+02 -0.29770795388E+03 -0.13087264587E+04  0.13549652339E+04  0.16500000000E+03 0.  0.
<mgrwt>
<rscale>  0 0.82195513E+03</rscale>
<asrwt>0</asrwt>
<pdfrwt beam="1">  1        2 0.25028560E+00 0.82195513E+03</pdfrwt>
<pdfrwt beam="2">  1       -2 0.13772230E-01 0.82195513E+03</pdfrwt>
<totfact> 0.44051906E+02</totfact>
</mgrwt>
</event>
<event>
 4    1  0.1025337E-004  0.4890203E+03  0.7818608E-02  0.1016685E+00
          2   -1    0    0  501    0  0.00000000000E+00  0.00000000000E+00  0.22704514000E+04  0.22704514000E+04  0.25500000000E-02 0.  1.
         -2   -1    0    0    0  501 -0.00000000000E+00 -0.00000000000E+00 -0.26331866822E+02  0.26331866946E+02  0.25500000000E-02 0. -1.
    5000001    1    1    2    0    0  0.49471251959E+02 -0.97152798073E+02  0.44674390059E+03  0.48856031732E+03  0.16500000000E+03 0.  0.
   -5000001    1    1    2    0    0 -0.49471251959E+02  0.97152798073E+02  0.17973756326E+04  0.18082229497E+04  0.16500000000E+03 0.  0.
<mgrwt>
<rscale>  0 0.48902034E+03</rscale>
<asrwt>0</asrwt>
<pdfrwt beam="1">  1        2 0.32435017E+00 0.48902034E+03</pdfrwt>
<pdfrwt beam="2">  1       -2 0.37616956E-02 0.48902034E+03</pdfrwt>
<totfact> 0.19370976E+03</totfact>
</mgrwt>
</event>
<event>
 4    1  0.1025337E-004  0.6530249E+03  0.7818608E-02  0.9801120E-01
         -2   -1    0    0    0  501 -0.00000000000E+00  0.00000000000E+00  0.27556383230E+02  0.27556383348E+02  0.25500000000E-02 0. -1.
          2   -1    0    0  501    0  0.00000000000E+00 -0.00000000000E+00 -0.38688092526E+04  0.38688092526E+04  0.25500000000E-02 0.  1.
    5000001    1    1    2    0    0  0.20205606724E+03  0.17694405024E+03 -0.14126013591E+04  0.14473435842E+04  0.16500000000E+03 0.  0.
   -5000001    1    1    2    0    0 -0.20205606724E+03 -0.17694405024E+03 -0.24286515103E+04  0.24490220517E+04  0.16500000000E+03 0.  0.
<mgrwt>
<rscale>  0 0.65302493E+03</rscale>
<asrwt>0</asrwt>
<pdfrwt beam="1">  1        2 0.55268669E+00 0.65302493E+03</pdfrwt>
<pdfrwt beam="2">  1       -2 0.39366287E-02 0.65302493E+03</pdfrwt>
<totfact> 0.22880119E+02</totfact>
</mgrwt>
</event>
<event>
 4    1  0.1025337E-004  0.4595800E+03  0.7818608E-02  0.1024903E+00
          2   -1    0    0  501    0  0.00000000000E+00  0.00000000000E+00  0.37870910700E+03  0.37870910701E+03  0.25500000000E-02 0.  1.
         -2   -1    0    0    0  501 -0.00000000000E+00 -0.00000000000E+00 -0.13943010076E+03  0.13943010078E+03  0.25500000000E-02 0. -1.
    5000001    1    1    2    0    0 -0.28949663694E+01 -0.97072311753E+02 -0.23622725039E+02  0.19291046544E+03  0.16500000000E+03 0.  0.
   -5000001    1    1    2    0    0  0.28949663694E+01  0.97072311753E+02  0.26290173128E+03  0.32522874235E+03  0.16500000000E+03 0.  0.
<mgrwt>
<rscale>  0 0.45958002E+03</rscale>
<asrwt>0</asrwt>
<pdfrwt beam="1">  1        2 0.54101302E-01 0.45958002E+03</pdfrwt>
<pdfrwt beam="2">  1       -2 0.19918586E-01 0.45958002E+03</pdfrwt>
<totfact> 0.19617914E+03</totfact>
</mgrwt>
</event>
<event>
 4    1  0.1025337E-004  0.8383369E+03  0.7818608E-02  0.9506126E-01
         -2   -1    0    0    0  501 -0.00000000000E+00  0.00000000000E+00  0.61859560698E+02  0.61859560750E+02  0.25500000000E-02 0. -1.
          2   -1    0    0  501    0  0.00000000000E+00 -0.00000000000E+00 -0.28403400971E+04  0.28403400971E+04  0.25500000000E-02 0.  1.
    5000001    1    1    2    0    0 -0.28761064702E+03 -0.25629609026E+03 -0.13603549310E+04  0.14234458572E+04  0.16500000000E+03 0.  0.
   -5000001    1    1    2    0    0  0.28761064702E+03  0.25629609026E+03 -0.14181256054E+04  0.14787538006E+04  0.16500000000E+03 0.  0.
<mgrwt>
<rscale>  0 0.83833690E+03</rscale>
<asrwt>0</asrwt>
<pdfrwt beam="1">  1        2 0.40576279E+00 0.83833690E+03</pdfrwt>
<pdfrwt beam="2">  1       -2 0.88370819E-02 0.83833690E+03</pdfrwt>
<totfact> 0.25076307E+02</totfact>
</mgrwt>
</event>
<event>
 4    1  0.1025337E-004  0.8506524E+03  0.7818608E-02  0.9489462E-01
         -2   -1    0    0    0  501 -0.00000000000E+00  0.00000000000E+00  0.82085124306E+02  0.82085124345E+02  0.25500000000E-02 0. -1.
          2   -1    0    0  501    0  0.00000000000E+00 -0.00000000000E+00 -0.22038387784E+04  0.22038387784E+04  0.25500000000E-02 0.  1.
    5000001    1    1    2    0    0 -0.36578251857E+03  0.13451973260E+03 -0.94734302360E+03  0.10375819070E+04  0.16500000000E+03 0.  0.
   -5000001    1    1    2    0    0  0.36578251857E+03 -0.13451973260E+03 -0.11744106305E+04  0.12483419958E+04  0.16500000000E+03 0.  0.
<mgrwt>
<rscale>  0 0.85065241E+03</rscale>
<asrwt>0</asrwt>
<pdfrwt beam="1">  1        2 0.31483407E+00 0.85065241E+03</pdfrwt>
<pdfrwt beam="2">  1       -2 0.11726448E-01 0.85065241E+03</pdfrwt>
<totfact> 0.33854515E+02</totfact>
</mgrwt>
</event>
<event>
 4    1  0.1025337E-004  0.6135972E+03  0.7818608E-02  0.9877591E-01
         -2   -1    0    0    0  501 -0.00000000000E+00  0.00000000000E+00  0.37822102225E+03  0.37822102226E+03  0.25500000000E-02 0. -1.
          2   -1    0    0  501    0  0.00000000000E+00 -0.00000000000E+00 -0.24886340931E+03  0.24886340933E+03  0.25500000000E-02 0.  1.
    5000001    1    1    2    0    0 -0.39440925387E+02 -0.23103041517E+03  0.17648990464E+03  0.33660707920E+03  0.16500000000E+03 0.  0.
   -5000001    1    1    2    0    0  0.39440925387E+02  0.23103041517E+03 -0.47132291699E+02  0.29047735239E+03  0.16500000000E+03 0.  0.
<mgrwt>
<rscale>  0 0.61359717E+03</rscale>
<asrwt>0</asrwt>
<pdfrwt beam="1">  1        2 0.35551916E-01 0.61359717E+03</pdfrwt>
<pdfrwt beam="2">  1       -2 0.54031575E-01 0.61359717E+03</pdfrwt>
<totfact> 0.47802249E+02</totfact>
</mgrwt>
</event>
<event>
 4    1  0.1025337E-004  0.5545182E+03  0.7818608E-02  0.1000454E+00
         -2   -1    0    0    0  501 -0.00000000000E+00  0.00000000000E+00  0.74578413585E+02  0.74578413628E+02  0.25500000000E-02 0. -1.
          2   -1    0    0  501    0  0.00000000000E+00 -0.00000000000E+00 -0.10307620206E+04  0.10307620206E+04  0.25500000000E-02 0.  1.
    5000001    1    1    2    0    0 -0.89391358065E+01  0.20128314227E+03 -0.66774989900E+03  0.71673547361E+03  0.16500000000E+03 0.  0.
   -5000001    1    1    2    0    0  0.89391358065E+01 -0.20128314227E+03 -0.28843370805E+03  0.38860496066E+03  0.16500000000E+03 0.  0.
<mgrwt>
<rscale>  0 0.55451816E+03</rscale>
<asrwt>0</asrwt>
<pdfrwt beam="1">  1        2 0.14725171E+00 0.55451816E+03</pdfrwt>
<pdfrwt beam="2">  1       -2 0.10654060E-01 0.55451816E+03</pdfrwt>
<totfact> 0.16716998E+03</totfact>
</mgrwt>
</event>
<event>
 4    1  0.1025337E-004  0.4727221E+03  0.7818608E-02  0.1021155E+00
          2   -1    0    0  501    0  0.00000000000E+00  0.00000000000E+00  0.12604264337E+03  0.12604264340E+03  0.25500000000E-02 0.  1.
         -2   -1    0    0    0  501 -0.00000000000E+00 -0.00000000000E+00 -0.44323522233E+03  0.44323522234E+03  0.25500000000E-02 0. -1.
    5000001    1    1    2    0    0 -0.16745785907E+03  0.11141163027E+02 -0.13234245602E+03  0.27001071413E+03  0.16500000000E+03 0.  0.
   -5000001    1    1    2    0    0  0.16745785907E+03 -0.11141163027E+02 -0.18485012294E+03  0.29926715161E+03  0.16500000000E+03 0.  0.
<mgrwt>
<rscale>  0 0.47272207E+03</rscale>
<asrwt>0</asrwt>
<pdfrwt beam="1">  1        2 0.18006092E-01 0.47272207E+03</pdfrwt>
<pdfrwt beam="2">  1       -2 0.63319317E-01 0.47272207E+03</pdfrwt>
<totfact> 0.74688583E+02</totfact>
</mgrwt>
</event>
<event>
 4    1  0.1025337E-004  0.7537826E+03  0.7818608E-02  0.9629435E-01
          2   -1    0    0  501    0  0.00000000000E+00  0.00000000000E+00  0.62842096384E+03  0.62842096384E+03  0.25500000000E-02 0.  1.
         -2   -1    0    0    0  501 -0.00000000000E+00 -0.00000000000E+00 -0.22603806804E+03  0.22603806806E+03  0.25500000000E-02 0. -1.
    5000001    1    1    2    0    0 -0.12579784289E+03  0.28429700880E+03  0.35400031923E+03  0.49919045715E+03  0.16500000000E+03 0.  0.
   -5000001    1    1    2    0    0  0.12579784289E+03 -0.28429700880E+03  0.48382576561E+02  0.35526857475E+03  0.16500000000E+03 0.  0.
<mgrwt>
<rscale>  0 0.75378262E+03</rscale>
<asrwt>0</asrwt>
<pdfrwt beam="1">  1        2 0.89774425E-01 0.75378262E+03</pdfrwt>
<pdfrwt beam="2">  1       -2 0.32291152E-01 0.75378262E+03</pdfrwt>
<totfact> 0.46033423E+02</totfact>
</mgrwt>
</event>
<event>
 4    1  0.1025337E-004  0.3657955E+03  0.7818608E-02  0.1056312E+00
          2   -1    0    0  501    0  0.00000000000E+00  0.00000000000E+00  0.41817001500E+03  0.41817001501E+03  0.25500000000E-02 0.  1.
         -2   -1    0    0    0  501 -0.00000000000E+00 -0.00000000000E+00 -0.79995191621E+02  0.79995191661E+02  0.25500000000E-02 0. -1.
    5000001    1    1    2    0    0 -0.28149157651E+02 -0.72429082107E+02  0.18777249261E+03  0.26176679697E+03  0.16500000000E+03 0.  0.
   -5000001    1    1    2    0    0  0.28149157651E+02  0.72429082107E+02  0.15040233077E+03  0.23639840971E+03  0.16500000000E+03 0.  0.
<mgrwt>
<rscale>  0 0.36579552E+03</rscale>
<asrwt>0</asrwt>
<pdfrwt beam="1">  1        2 0.59738575E-01 0.36579552E+03</pdfrwt>
<pdfrwt beam="2">  1       -2 0.11427884E-01 0.36579552E+03</pdfrwt>
<totfact> 0.44370423E+03</totfact>
</mgrwt>
</event>
<event>
 4    1  0.1025337E-004  0.4282566E+03  0.7818608E-02  0.1034412E+00
          2   -1    0    0  501    0  0.00000000000E+00  0.00000000000E+00  0.90747693222E+02  0.90747693258E+02  0.25500000000E-02 0.  1.
         -2   -1    0    0    0  501 -0.00000000000E+00 -0.00000000000E+00 -0.50525733270E+03  0.50525733270E+03  0.25500000000E-02 0. -1.
    5000001    1    1    2    0    0  0.12553384497E+03  0.11168506762E+02 -0.13437360138E+03  0.24731507541E+03  0.16500000000E+03 0.  0.
   -5000001    1    1    2    0    0 -0.12553384497E+03 -0.11168506762E+02 -0.28013603810E+03  0.34868995055E+03  0.16500000000E+03 0.  0.
<mgrwt>
<rscale>  0 0.42825664E+03</rscale>
<asrwt>0</asrwt>
<pdfrwt beam="1">  1        2 0.12963956E-01 0.42825664E+03</pdfrwt>
<pdfrwt beam="2">  1       -2 0.72179618E-01 0.42825664E+03</pdfrwt>
<totfact> 0.83625086E+02</totfact>
</mgrwt>
</event>
<event>
 4    1  0.1025337E-004  0.6796687E+03  0.7818608E-02  0.9752647E-01
         -2   -1    0    0    0  501 -0.00000000000E+00  0.00000000000E+00  0.78017844676E+02  0.78017844717E+02  0.25500000000E-02 0. -1.
          2   -1    0    0  501    0  0.00000000000E+00 -0.00000000000E+00 -0.14802686657E+04  0.14802686658E+04  0.25500000000E-02 0.  1.
    5000001    1    1    2    0    0 -0.75297239943E+02  0.18460637084E+03 -0.19613868808E+03  0.32472229898E+03  0.16500000000E+03 0.  0.
   -5000001    1    1    2    0    0  0.75297239943E+02 -0.18460637084E+03 -0.12061121330E+04  0.12335642115E+04  0.16500000000E+03 0.  0.
<mgrwt>
<rscale>  0 0.67966866E+03</rscale>
<asrwt>0</asrwt>
<pdfrwt beam="1">  1        2 0.21146694E+00 0.67966866E+03</pdfrwt>
<pdfrwt beam="2">  1       -2 0.11145407E-01 0.67966866E+03</pdfrwt>
<totfact> 0.87133945E+02</totfact>
</mgrwt>
</event>
<event>
 4    1  0.1025337E-004  0.4529596E+03  0.7818608E-02  0.1026843E+00
         -2   -1    0    0    0  501 -0.00000000000E+00  0.00000000000E+00  0.11006246832E+03  0.11006246835E+03  0.25500000000E-02 0. -1.
          2   -1    0    0  501    0  0.00000000000E+00 -0.00000000000E+00 -0.46603628345E+03  0.46603628345E+03  0.25500000000E-02 0.  1.
    5000001    1    1    2    0    0  0.60195114811E+02  0.96628389123E+02 -0.43942812337E+02  0.20522297188E+03  0.16500000000E+03 0.  0.
   -5000001    1    1    2    0    0 -0.60195114811E+02 -0.96628389123E+02 -0.31203100279E+03  0.37087577992E+03  0.16500000000E+03 0.  0.
<mgrwt>
<rscale>  0 0.45295962E+03</rscale>
<asrwt>0</asrwt>
<pdfrwt beam="1">  1        2 0.66576611E-01 0.45295962E+03</pdfrwt>
<pdfrwt beam="2">  1       -2 0.15723210E-01 0.45295962E+03</pdfrwt>
<totfact> 0.23335516E+03</totfact>
</mgrwt>
</event>
<event>
 4    1  0.1025337E-004  0.4769548E+03  0.7818608E-02  0.1019975E+00
          2   -1    0    0  501    0  0.00000000000E+00  0.00000000000E+00  0.12077695353E+04  0.12077695353E+04  0.25500000000E-02 0.  1.
         -2   -1    0    0    0  501 -0.00000000000E+00 -0.00000000000E+00 -0.47088023599E+02  0.47088023669E+02  0.25500000000E-02 0. -1.
    5000001    1    1    2    0    0 -0.17502509722E+02 -0.17077574850E+03  0.54545808857E+03  0.59516402824E+03  0.16500000000E+03 0.  0.
   -5000001    1    1    2    0    0  0.17502509722E+02  0.17077574850E+03  0.61522342316E+03  0.65969353076E+03  0.16500000000E+03 0.  0.
<mgrwt>
<rscale>  0 0.47695484E+03</rscale>
<asrwt>0</asrwt>
<pdfrwt beam="1">  1        2 0.17253851E+00 0.47695484E+03</pdfrwt>
<pdfrwt beam="2">  1       -2 0.67268602E-02 0.47695484E+03</pdfrwt>
<totfact> 0.27566909E+03</totfact>
</mgrwt>
</event>
<event>
 4    1  0.1025337E-004  0.4015305E+03  0.7818608E-02  0.1043251E+00
         -2   -1    0    0    0  501 -0.00000000000E+00  0.00000000000E+00  0.49123672240E+03  0.49123672241E+03  0.25500000000E-02 0. -1.
          2   -1    0    0  501    0  0.00000000000E+00 -0.00000000000E+00 -0.82051460733E+02  0.82051460772E+02  0.25500000000E-02 0.  1.
    5000001    1    1    2    0    0  0.54113169701E+02  0.78924027992E+02  0.11515011486E+03  0.22280436773E+03  0.16500000000E+03 0.  0.
   -5000001    1    1    2    0    0 -0.54113169701E+02 -0.78924027992E+02  0.29403514682E+03  0.35048381545E+03  0.16500000000E+03 0.  0.
<mgrwt>
<rscale>  0 0.40153053E+03</rscale>
<asrwt>0</asrwt>
<pdfrwt beam="1">  1        2 0.11721638E-01 0.40153053E+03</pdfrwt>
<pdfrwt beam="2">  1       -2 0.70176672E-01 0.40153053E+03</pdfrwt>
<totfact> 0.10054873E+03</totfact>
</mgrwt>
</event>
<event>
 4    1  0.1025337E-004  0.1281429E+04  0.7818608E-02  0.9044423E-01
          2   -1    0    0  501    0  0.00000000000E+00  0.00000000000E+00  0.11419934525E+04  0.11419934525E+04  0.25500000000E-02 0.  1.
         -2   -1    0    0    0  501 -0.00000000000E+00 -0.00000000000E+00 -0.35947239885E+03  0.35947239886E+03  0.25500000000E-02 0. -1.
    5000001    1    1    2    0    0 -0.23771327491E+03 -0.53812875849E+03  0.16526900754E+03  0.63295261011E+03  0.16500000000E+03 0.  0.
   -5000001    1    1    2    0    0  0.23771327491E+03  0.53812875849E+03  0.61725204608E+03  0.86851324122E+03  0.16500000000E+03 0.  0.
<mgrwt>
<rscale>  0 0.12814291E+04</rscale>
<asrwt>0</asrwt>
<pdfrwt beam="1">  1        2 0.16314192E+00 0.12814291E+04</pdfrwt>
<pdfrwt beam="2">  1       -2 0.51353199E-01 0.12814291E+04</pdfrwt>
<totfact> 0.81196583E+01</totfact>
</mgrwt>
</event>
<event>
 4    1  0.1025337E-004  0.4912562E+03  0.7818608E-02  0.1016087E+00
          2   -1    0    0  501    0  0.00000000000E+00  0.00000000000E+00  0.44485776561E+02  0.44485776634E+02  0.25500000000E-02 0.  1.
         -2   -1    0    0    0  501 -0.00000000000E+00 -0.00000000000E+00 -0.13562348872E+04  0.13562348872E+04  0.25500000000E-02 0. -1.
    5000001    1    1    2    0    0  0.65737240537E+02 -0.14855182075E+03 -0.88959685225E+03  0.91923695953E+03  0.16500000000E+03 0.  0.
   -5000001    1    1    2    0    0 -0.65737240537E+02  0.14855182075E+03 -0.42215225835E+03  0.48148370426E+03  0.16500000000E+03 0.  0.
<mgrwt>
<rscale>  0 0.49125619E+03</rscale>
<asrwt>0</asrwt>
<pdfrwt beam="1">  1        2 0.63551118E-02 0.49125619E+03</pdfrwt>
<pdfrwt beam="2">  1       -2 0.19374782E+00 0.49125619E+03</pdfrwt>
<totfact> 0.18015502E+02</totfact>
</mgrwt>
</event>
<event>
 4    1  0.1025337E-004  0.4192162E+03  0.7818608E-02  0.1037322E+00
          2   -1    0    0  501    0  0.00000000000E+00  0.00000000000E+00  0.53973923080E+03  0.53973923081E+03  0.25500000000E-02 0.  1.
         -2   -1    0    0    0  501 -0.00000000000E+00 -0.00000000000E+00 -0.81401445014E+02  0.81401445054E+02  0.25500000000E-02 0. -1.
    5000001    1    1    2    0    0  0.70166090882E+02  0.10851680298E+03  0.22417135440E+03  0.30688266971E+03  0.16500000000E+03 0.  0.
   -5000001    1    1    2    0    0 -0.70166090882E+02 -0.10851680298E+03  0.23416643139E+03  0.31425800615E+03  0.16500000000E+03 0.  0.
<mgrwt>
<rscale>  0 0.41921619E+03</rscale>
<asrwt>0</asrwt>
<pdfrwt beam="1">  1        2 0.77105603E-01 0.41921619E+03</pdfrwt>
<pdfrwt beam="2">  1       -2 0.11628778E-01 0.41921619E+03</pdfrwt>
<totfact> 0.32539491E+03</totfact>
</mgrwt>
</event>
<event>
 4    1  0.1025337E-004  0.5990344E+03  0.7818608E-02  0.9907411E-01
         -2   -1    0    0    0  501 -0.00000000000E+00  0.00000000000E+00  0.51118294132E+03  0.51118294132E+03  0.25500000000E-02 0. -1.
          2   -1    0    0  501    0  0.00000000000E+00 -0.00000000000E+00 -0.17549599142E+03  0.17549599144E+03  0.25500000000E-02 0.  1.
    5000001    1    1    2    0    0  0.91662830963E+02 -0.22899387063E+03  0.12134666651E+03  0.32060923386E+03  0.16500000000E+03 0.  0.
   -5000001    1    1    2    0    0 -0.91662830963E+02  0.22899387063E+03  0.21434028339E+03  0.36606969890E+03  0.16500000000E+03 0.  0.
<mgrwt>
<rscale>  0 0.59903441E+03</rscale>
<asrwt>0</asrwt>
<pdfrwt beam="1">  1        2 0.25070856E-01 0.59903441E+03</pdfrwt>
<pdfrwt beam="2">  1       -2 0.73026133E-01 0.59903441E+03</pdfrwt>
<totfact> 0.37362377E+02</totfact>
</mgrwt>
</event>
<event>
 4    1  0.1025337E-004  0.8415880E+03  0.7818608E-02  0.9501697E-01
         -2   -1    0    0    0  501 -0.00000000000E+00  0.00000000000E+00  0.66644760673E+02  0.66644760722E+02  0.25500000000E-02 0. -1.
          2   -1    0    0  501    0  0.00000000000E+00 -0.00000000000E+00 -0.26568871250E+04  0.26568871250E+04  0.25500000000E-02 0.  1.
    5000001    1    1    2    0    0 -0.54375308915E+02 -0.24337351919E+03 -0.33699676626E+03  0.45053209045E+03  0.16500000000E+03 0.  0.
   -5000001    1    1    2    0    0  0.54375308915E+02  0.24337351919E+03 -0.22532455981E+04  0.22729997953E+04  0.16500000000E+03 0.  0.
<mgrwt>
<rscale>  0 0.84158804E+03</rscale>
<asrwt>0</asrwt>
<pdfrwt beam="1">  1        2 0.37955524E+00 0.84158804E+03</pdfrwt>
<pdfrwt beam="2">  1       -2 0.95206818E-02 0.84158804E+03</pdfrwt>
<totfact> 0.27812547E+02</totfact>
</mgrwt>
</event>
<event>
 4    1  0.1025337E-004  0.5336086E+03  0.7818608E-02  0.1005361E+00
         -2   -1    0    0    0  501 -0.00000000000E+00  0.00000000000E+00  0.16728642854E+03  0.16728642856E+03  0.25500000000E-02 0. -1.
          2   -1    0    0  501    0  0.00000000000E+00 -0.00000000000E+00 -0.42552492844E+03  0.42552492845E+03  0.25500000000E-02 0.  1.
    5000001    1    1    2    0    0 -0.18871905209E+03  0.38786389034E+02 -0.37237209545E+02  0.25638033149E+03  0.16500000000E+03 0.  0.
   -5000001    1    1    2    0    0  0.18871905209E+03 -0.38786389034E+02 -0.22100129035E+03  0.33643102552E+03  0.16500000000E+03 0.  0.
<mgrwt>
<rscale>  0 0.53360864E+03</rscale>
<asrwt>0</asrwt>
<pdfrwt beam="1">  1        2 0.60789275E-01 0.53360864E+03</pdfrwt>
<pdfrwt beam="2">  1       -2 0.23898061E-01 0.53360864E+03</pdfrwt>
<totfact> 0.12536069E+03</totfact>
</mgrwt>
</event>
<event>
 4    1  0.1025337E-004  0.4028371E+03  0.7818608E-02  0.1042802E+00
         -2   -1    0    0    0  501 -0.00000000000E+00  0.00000000000E+00  0.25610058504E+03  0.25610058505E+03  0.25500000000E-02 0. -1.
          2   -1    0    0  501    0  0.00000000000E+00 -0.00000000000E+00 -0.15841206530E+03  0.15841206532E+03  0.25500000000E-02 0.  1.
    5000001    1    1    2    0    0  0.65692143382E+02  0.55990778200E+02  0.12784176209E+03  0.22587372817E+03  0.16500000000E+03 0.  0.
   -5000001    1    1    2    0    0 -0.65692143382E+02 -0.55990778200E+02 -0.30153242346E+02  0.18863892220E+03  0.16500000000E+03 0.  0.
<mgrwt>
<rscale>  0 0.40283705E+03</rscale>
<asrwt>0</asrwt>
<pdfrwt beam="1">  1        2 0.22630295E-01 0.40283705E+03</pdfrwt>
<pdfrwt beam="2">  1       -2 0.36585797E-01 0.40283705E+03</pdfrwt>
<totfact> 0.17154231E+03</totfact>
</mgrwt>
</event>
<event>
 4    1  0.1025337E-004  0.4728804E+03  0.7818608E-02  0.1021110E+00
         -2   -1    0    0    0  501 -0.00000000000E+00  0.00000000000E+00  0.26827824808E+03  0.26827824809E+03  0.25500000000E-02 0. -1.
          2   -1    0    0  501    0  0.00000000000E+00 -0.00000000000E+00 -0.20838052247E+03  0.20838052249E+03  0.25500000000E-02 0.  1.
    5000001    1    1    2    0    0  0.16354399166E+03  0.10895687360E+02 -0.12977891004E+02  0.23293513876E+03  0.16500000000E+03 0.  0.
   -5000001    1    1    2    0    0 -0.16354399166E+03 -0.10895687360E+02  0.72875616612E+02  0.24372363182E+03  0.16500000000E+03 0.  0.
<mgrwt>
<rscale>  0 0.47288037E+03</rscale>
<asrwt>0</asrwt>
<pdfrwt beam="1">  1        2 0.29768646E-01 0.47288037E+03</pdfrwt>
<pdfrwt beam="2">  1       -2 0.38325464E-01 0.47288037E+03</pdfrwt>
<totfact> 0.11534873E+03</totfact>
</mgrwt>
</event>
<event>
 4    1  0.1025337E-004  0.7217066E+03  0.7818608E-02  0.9680815E-01
         -2   -1    0    0    0  501 -0.00000000000E+00  0.00000000000E+00  0.37640738465E+03  0.37640738466E+03  0.25500000000E-02 0. -1.
          2   -1    0    0  501    0  0.00000000000E+00 -0.00000000000E+00 -0.34594192467E+03  0.34594192468E+03  0.25500000000E-02 0.  1.
    5000001    1    1    2    0    0 -0.27616059577E+03  0.15330070635E+03 -0.41600881871E+02  0.35877766736E+03  0.16500000000E+03 0.  0.
   -5000001    1    1    2    0    0  0.27616059577E+03 -0.15330070635E+03  0.72066341849E+02  0.36357164198E+03  0.16500000000E+03 0.  0.
<mgrwt>
<rscale>  0 0.72170658E+03</rscale>
<asrwt>0</asrwt>
<pdfrwt beam="1">  1        2 0.49420275E-01 0.72170658E+03</pdfrwt>
<pdfrwt beam="2">  1       -2 0.53772483E-01 0.72170658E+03</pdfrwt>
<totfact> 0.33422921E+02</totfact>
</mgrwt>
</event>
<event>
 4    1  0.1025337E-004  0.4108704E+03  0.7818608E-02  0.1040079E+00
         -2   -1    0    0    0  501 -0.00000000000E+00  0.00000000000E+00  0.20712550509E+02  0.20712550666E+02  0.25500000000E-02 0. -1.
          2   -1    0    0  501    0  0.00000000000E+00 -0.00000000000E+00 -0.20375865308E+04  0.20375865308E+04  0.25500000000E-02 0.  1.
    5000001    1    1    2    0    0  0.43961364030E+02 -0.79804969280E+02 -0.14177920727E+04  0.14302659878E+04  0.16500000000E+03 0.  0.
   -5000001    1    1    2    0    0 -0.43961364030E+02  0.79804969280E+02 -0.59908190760E+03  0.62803309360E+03  0.16500000000E+03 0.  0.
<mgrwt>
<rscale>  0 0.41087036E+03</rscale>
<asrwt>0</asrwt>
<pdfrwt beam="1">  1        2 0.29108366E+00 0.41087036E+03</pdfrwt>
<pdfrwt beam="2">  1       -2 0.29589371E-02 0.41087036E+03</pdfrwt>
<totfact> 0.36511040E+03</totfact>
</mgrwt>
</event>
<event>
 4    1  0.1025337E-004  0.4571559E+03  0.7818608E-02  0.1025609E+00
          2   -1    0    0  501    0  0.00000000000E+00  0.00000000000E+00  0.16328535977E+03  0.16328535979E+03  0.25500000000E-02 0.  1.
         -2   -1    0    0    0  501 -0.00000000000E+00 -0.00000000000E+00 -0.31997894714E+03  0.31997894715E+03  0.25500000000E-02 0. -1.
    5000001    1    1    2    0    0 -0.47102940546E+02  0.11989385743E+03 -0.17540343506E+03  0.27310179254E+03  0.16500000000E+03 0.  0.
   -5000001    1    1    2    0    0  0.47102940546E+02 -0.11989385743E+03  0.18709847693E+02  0.21016251440E+03  0.16500000000E+03 0.  0.
<mgrwt>
<rscale>  0 0.45715589E+03</rscale>
<asrwt>0</asrwt>
<pdfrwt beam="1">  1        2 0.23326480E-01 0.45715589E+03</pdfrwt>
<pdfrwt beam="2">  1       -2 0.45711278E-01 0.45715589E+03</pdfrwt>
<totfact> 0.10776680E+03</totfact>
</mgrwt>
</event>
<event>
 4    1  0.1025337E-004  0.5492057E+03  0.7818608E-02  0.1001678E+00
         -2   -1    0    0    0  501 -0.00000000000E+00  0.00000000000E+00  0.58544194715E+02  0.58544194770E+02  0.25500000000E-02 0. -1.
          2   -1    0    0  501    0  0.00000000000E+00 -0.00000000000E+00 -0.12880306345E+04  0.12880306345E+04  0.25500000000E-02 0.  1.
    5000001    1    1    2    0    0  0.11743849276E+03  0.17811103496E+03 -0.74134976961E+03  0.78888517622E+03  0.16500000000E+03 0.  0.
   -5000001    1    1    2    0    0 -0.11743849276E+03 -0.17811103496E+03 -0.48813667017E+03  0.55768965305E+03  0.16500000000E+03 0.  0.
<mgrwt>
<rscale>  0 0.54920567E+03</rscale>
<asrwt>0</asrwt>
<pdfrwt beam="1">  1        2 0.18400436E+00 0.54920567E+03</pdfrwt>
<pdfrwt beam="2">  1       -2 0.83634572E-02 0.54920567E+03</pdfrwt>
<totfact> 0.17634491E+03</totfact>
</mgrwt>
</event>
<event>
 4    1  0.1025337E-004  0.5734320E+03  0.7818608E-02  0.9962113E-01
          2   -1    0    0  501    0  0.00000000000E+00  0.00000000000E+00  0.21859464763E+04  0.21859464763E+04  0.25500000000E-02 0. -1.
         -2   -1    0    0    0  501 -0.00000000000E+00 -0.00000000000E+00 -0.37606623381E+02  0.37606623468E+02  0.25500000000E-02 0.  1.
    5000001    1    1    2    0    0  0.51222040670E+02 -0.18026800611E+03  0.52770272097E+03  0.58379398181E+03  0.16500000000E+03 0.  0.
   -5000001    1    1    2    0    0 -0.51222040670E+02  0.18026800611E+03  0.16206371320E+04  0.16397591180E+04  0.16500000000E+03 0.  0.
<mgrwt>
<rscale>  0 0.57343200E+03</rscale>
<asrwt>0</asrwt>
<pdfrwt beam="1">  1        2 0.31227815E+00 0.57343200E+03</pdfrwt>
<pdfrwt beam="2">  1       -2 0.53723733E-02 0.57343200E+03</pdfrwt>
<totfact> 0.12280408E+03</totfact>
</mgrwt>
</event>
<event>
 4    1  0.1025337E-004  0.4679608E+03  0.7818608E-02  0.1022497E+00
         -2   -1    0    0    0  501 -0.00000000000E+00  0.00000000000E+00  0.30710014674E+03  0.30710014676E+03  0.25500000000E-02 0. -1.
          2   -1    0    0  501    0  0.00000000000E+00 -0.00000000000E+00 -0.17827030606E+03  0.17827030608E+03  0.25500000000E-02 0.  1.
    5000001    1    1    2    0    0 -0.45847151111E+01 -0.14378967360E+03 -0.21274301702E+02  0.21994109611E+03  0.16500000000E+03 0.  0.
   -5000001    1    1    2    0    0  0.45847151111E+01  0.14378967360E+03  0.15010414239E+03  0.26542935672E+03  0.16500000000E+03 0.  0.
<mgrwt>
<rscale>  0 0.46796084E+03</rscale>
<asrwt>0</asrwt>
<pdfrwt beam="1">  1        2 0.25467187E-01 0.46796084E+03</pdfrwt>
<pdfrwt beam="2">  1       -2 0.43871449E-01 0.46796084E+03</pdfrwt>
<totfact> 0.10576015E+03</totfact>
</mgrwt>
</event>
<event>
 4    1  0.1025337E-004  0.6911638E+03  0.7818608E-02  0.9732464E-01
          2   -1    0    0  501    0  0.00000000000E+00  0.00000000000E+00  0.93330569534E+03  0.93330569535E+03  0.25500000000E-02 0.  1.
         -2   -1    0    0    0  501 -0.00000000000E+00 -0.00000000000E+00 -0.12796114480E+03  0.12796114482E+03  0.25500000000E-02 0. -1.
    5000001    1    1    2    0    0  0.26086002750E+03  0.34168928508E+02  0.16987439526E+03  0.35397426430E+03  0.16500000000E+03 0.  0.
   -5000001    1    1    2    0    0 -0.26086002750E+03 -0.34168928508E+02  0.63547015529E+03  0.70729257587E+03  0.16500000000E+03 0.  0.
<mgrwt>
<rscale>  0 0.69116385E+03</rscale>
<asrwt>0</asrwt>
<pdfrwt beam="1">  1        2 0.13332938E+00 0.69116385E+03</pdfrwt>
<pdfrwt beam="2">  1       -2 0.18280164E-01 0.69116385E+03</pdfrwt>
<totfact> 0.77540596E+02</totfact>
</mgrwt>
</event>
<event>
 4    1  0.1025337E-004  0.5528754E+03  0.7818608E-02  0.1000831E+00
          2   -1    0    0  501    0  0.00000000000E+00  0.00000000000E+00  0.10463896236E+04  0.10463896236E+04  0.25500000000E-02 0.  1.
         -2   -1    0    0    0  501 -0.00000000000E+00 -0.00000000000E+00 -0.73029979288E+02  0.73029979332E+02  0.25500000000E-02 0. -1.
    5000001    1    1    2    0    0 -0.71058134123E+02  0.20364802891E+03  0.59132165951E+03  0.65069815054E+03  0.16500000000E+03 0.  0.
   -5000001    1    1    2    0    0  0.71058134123E+02 -0.20364802891E+03  0.38203798478E+03  0.46872145238E+03  0.16500000000E+03 0.  0.
<mgrwt>
<rscale>  0 0.55287544E+03</rscale>
<asrwt>0</asrwt>
<pdfrwt beam="1">  1        2 0.14948422E+00 0.55287544E+03</pdfrwt>
<pdfrwt beam="2">  1       -2 0.10432855E-01 0.55287544E+03</pdfrwt>
<totfact> 0.16930085E+03</totfact>
</mgrwt>
</event>
<event>
 4    1  0.1025337E-004  0.3546828E+03  0.7818608E-02  0.1060709E+00
         -2   -1    0    0    0  501 -0.00000000000E+00  0.00000000000E+00  0.61225727929E+02  0.61225727982E+02  0.25500000000E-02 0. -1.
          2   -1    0    0  501    0  0.00000000000E+00 -0.00000000000E+00 -0.51367242012E+03  0.51367242013E+03  0.25500000000E-02 0.  1.
    5000001    1    1    2    0    0 -0.20370371927E+02 -0.50122000172E+02 -0.16783114492E+03  0.24149422386E+03  0.16500000000E+03 0.  0.
   -5000001    1    1    2    0    0  0.20370371927E+02  0.50122000172E+02 -0.28461554727E+03  0.33340392425E+03  0.16500000000E+03 0.  0.
<mgrwt>
<rscale>  0 0.35468278E+03</rscale>
<asrwt>0</asrwt>
<pdfrwt beam="1">  1        2 0.73381772E-01 0.35468278E+03</pdfrwt>
<pdfrwt beam="2">  1       -2 0.87465328E-02 0.35468278E+03</pdfrwt>
<totfact> 0.54170492E+03</totfact>
</mgrwt>
</event>
<event>
 4    1  0.1025337E-004  0.6183100E+03  0.7818608E-02  0.9868130E-01
          2   -1    0    0  501    0  0.00000000000E+00  0.00000000000E+00  0.20703914037E+04  0.20703914037E+04  0.25500000000E-02 0.  1.
         -2   -1    0    0    0  501 -0.00000000000E+00 -0.00000000000E+00 -0.46163638319E+02  0.46163638389E+02  0.25500000000E-02 0. -1.
    5000001    1    1    2    0    0 -0.17087777361E+03 -0.19513397239E+03  0.11243653569E+04  0.11656324191E+04  0.16500000000E+03 0.  0.
   -5000001    1    1    2    0    0  0.17087777361E+03  0.19513397239E+03  0.89986240851E+03  0.95092262301E+03  0.16500000000E+03 0.  0.
<mgrwt>
<rscale>  0 0.61830995E+03</rscale>
<asrwt>0</asrwt>
<pdfrwt beam="1">  1        2 0.29577024E+00 0.61830995E+03</pdfrwt>
<pdfrwt beam="2">  1       -2 0.65948046E-02 0.61830995E+03</pdfrwt>
<totfact> 0.10157700E+03</totfact>
</mgrwt>
</event>
<event>
 4    1  0.1025337E-004  0.5572159E+03  0.7818608E-02  0.9998374E-01
         -2   -1    0    0    0  501 -0.00000000000E+00  0.00000000000E+00  0.83576547261E+02  0.83576547300E+02  0.25500000000E-02 0. -1.
          2   -1    0    0  501    0  0.00000000000E+00 -0.00000000000E+00 -0.92875791264E+03  0.92875791264E+03  0.25500000000E-02 0.  1.
    5000001    1    1    2    0    0 -0.29645961139E+01 -0.11928446663E+03 -0.76806327540E+03  0.79459660698E+03  0.16500000000E+03 0.  0.
   -5000001    1    1    2    0    0  0.29645961139E+01  0.11928446663E+03 -0.77118089976E+02  0.21773785296E+03  0.16500000000E+03 0.  0.
<mgrwt>
<rscale>  0 0.55721586E+03</rscale>
<asrwt>0</asrwt>
<pdfrwt beam="1">  1        2 0.13267970E+00 0.55721586E+03</pdfrwt>
<pdfrwt beam="2">  1       -2 0.11939507E-01 0.55721586E+03</pdfrwt>
<totfact> 0.16031593E+03</totfact>
</mgrwt>
</event>
<event>
 4    1  0.1025337E-004  0.6211944E+03  0.7818608E-02  0.9862385E-01
          2   -1    0    0  501    0  0.00000000000E+00  0.00000000000E+00  0.12069546296E+04  0.12069546296E+04  0.25500000000E-02 0.  1.
         -2   -1    0    0    0  501 -0.00000000000E+00 -0.00000000000E+00 -0.79928944020E+02  0.79928944060E+02  0.25500000000E-02 0. -1.
    5000001    1    1    2    0    0 -0.17126419182E+03 -0.18505926691E+03  0.40755828678E+03  0.50686005248E+03  0.16500000000E+03 0.  0.
   -5000001    1    1    2    0    0  0.17126419182E+03  0.18505926691E+03  0.71946739879E+03  0.78002352118E+03  0.16500000000E+03 0.  0.
<mgrwt>
<rscale>  0 0.62119436E+03</rscale>
<asrwt>0</asrwt>
<pdfrwt beam="1">  1        2 0.17242209E+00 0.62119436E+03</pdfrwt>
<pdfrwt beam="2">  1       -2 0.11418421E-01 0.62119436E+03</pdfrwt>
<totfact> 0.11792313E+03</totfact>
</mgrwt>
</event>
<event>
 4    1  0.1025337E-004  0.5099017E+03  0.7818608E-02  0.1011226E+00
         -2   -1    0    0    0  501 -0.00000000000E+00  0.00000000000E+00  0.33737564168E+03  0.33737564169E+03  0.25500000000E-02 0. -1.
          2   -1    0    0  501    0  0.00000000000E+00 -0.00000000000E+00 -0.19266336055E+03  0.19266336057E+03  0.25500000000E-02 0.  1.
    5000001    1    1    2    0    0  0.13329840495E+02 -0.19057445201E+03  0.10952608359E+03  0.27516771139E+03  0.16500000000E+03 0.  0.
   -5000001    1    1    2    0    0 -0.13329840495E+02  0.19057445201E+03  0.35186197539E+02  0.25487129086E+03  0.16500000000E+03 0.  0.
<mgrwt>
<rscale>  0 0.50990166E+03</rscale>
<asrwt>0</asrwt>
<pdfrwt beam="1">  1        2 0.27523338E-01 0.50990166E+03</pdfrwt>
<pdfrwt beam="2">  1       -2 0.48196519E-01 0.50990166E+03</pdfrwt>
<totfact> 0.80384608E+02</totfact>
</mgrwt>
</event>
<event>
 4    1  0.1025337E-004  0.4934399E+03  0.7818608E-02  0.1015506E+00
         -2   -1    0    0    0  501 -0.00000000000E+00  0.00000000000E+00  0.38951943563E+02  0.38951943647E+02  0.25500000000E-02 0. -1.
          2   -1    0    0  501    0  0.00000000000E+00 -0.00000000000E+00 -0.15627135096E+04  0.15627135096E+04  0.25500000000E-02 0.  1.
    5000001    1    1    2    0    0  0.16841079216E+03  0.64953198133E+02 -0.86779005512E+03  0.90159064582E+03  0.16500000000E+03 0.  0.
   -5000001    1    1    2    0    0 -0.16841079216E+03 -0.64953198133E+02 -0.65597151095E+03  0.70007480746E+03  0.16500000000E+03 0.  0.
<mgrwt>
<rscale>  0 0.49343988E+03</rscale>
<asrwt>0</asrwt>
<pdfrwt beam="1">  1        2 0.22324475E+00 0.49343988E+03</pdfrwt>
<pdfrwt beam="2">  1       -2 0.55645644E-02 0.49343988E+03</pdfrwt>
<totfact> 0.24024795E+03</totfact>
</mgrwt>
</event>
<event>
 4    1  0.1025337E-004  0.4856466E+03  0.7818608E-02  0.1017595E+00
         -2   -1    0    0    0  501 -0.00000000000E+00  0.00000000000E+00  0.37759607546E+02  0.37759607632E+02  0.25500000000E-02 0. -1.
          2   -1    0    0  501    0  0.00000000000E+00 -0.00000000000E+00 -0.15615407182E+04  0.15615407182E+04  0.25500000000E-02 0.  1.
    5000001    1    1    2    0    0  0.15609578021E+03  0.85273117204E+02 -0.72883304230E+03  0.76815363090E+03  0.16500000000E+03 0.  0.
   -5000001    1    1    2    0    0 -0.15609578021E+03 -0.85273117204E+02 -0.79494806833E+03  0.83114669491E+03  0.16500000000E+03 0.  0.
<mgrwt>
<rscale>  0 0.48564664E+03</rscale>
<asrwt>0</asrwt>
<pdfrwt beam="1">  1        2 0.22307721E+00 0.48564664E+03</pdfrwt>
<pdfrwt beam="2">  1       -2 0.53942306E-02 0.48564664E+03</pdfrwt>
<totfact> 0.25250499E+03</totfact>
</mgrwt>
</event>
<event>
 4    1  0.1025337E-004  0.6002731E+03  0.7818608E-02  0.9904840E-01
          2   -1    0    0  501    0  0.00000000000E+00  0.00000000000E+00  0.21028824996E+03  0.21028824997E+03  0.25500000000E-02 0.  1.
         -2   -1    0    0    0  501 -0.00000000000E+00 -0.00000000000E+00 -0.42837361908E+03  0.42837361909E+03  0.25500000000E-02 0. -1.
    5000001    1    1    2    0    0 -0.13325275741E+03  0.19554573445E+03 -0.20904615383E+02  0.28923422094E+03  0.16500000000E+03 0.  0.
   -5000001    1    1    2    0    0  0.13325275741E+03 -0.19554573445E+03 -0.19718075375E+03  0.34942764812E+03  0.16500000000E+03 0.  0.
<mgrwt>
<rscale>  0 0.60027307E+03</rscale>
<asrwt>0</asrwt>
<pdfrwt beam="1">  1        2 0.30041179E-01 0.60027307E+03</pdfrwt>
<pdfrwt beam="2">  1       -2 0.61196231E-01 0.60027307E+03</pdfrwt>
<totfact> 0.44522508E+02</totfact>
</mgrwt>
</event>
<event>
 4    1  0.1025337E-004  0.4562277E+03  0.7818608E-02  0.1025881E+00
          2   -1    0    0  501    0  0.00000000000E+00  0.00000000000E+00  0.41614659861E+03  0.41614659861E+03  0.25500000000E-02 0.  1.
         -2   -1    0    0    0  501 -0.00000000000E+00 -0.00000000000E+00 -0.12504228856E+03  0.12504228858E+03  0.25500000000E-02 0. -1.
    5000001    1    1    2    0    0  0.15453805803E+03  0.86998068466E+01  0.11090248976E+03  0.25195646499E+03  0.16500000000E+03 0.  0.
   -5000001    1    1    2    0    0 -0.15453805803E+03 -0.86998068466E+01  0.18020182029E+03  0.28923242221E+03  0.16500000000E+03 0.  0.
<mgrwt>
<rscale>  0 0.45622768E+03</rscale>
<asrwt>0</asrwt>
<pdfrwt beam="1">  1        2 0.59449515E-01 0.45622768E+03</pdfrwt>
<pdfrwt beam="2">  1       -2 0.17863184E-01 0.45622768E+03</pdfrwt>
<totfact> 0.21319880E+03</totfact>
</mgrwt>
</event>
<event>
 4    1  0.1025337E-004  0.4780482E+03  0.7818608E-02  0.1019673E+00
         -2   -1    0    0    0  501 -0.00000000000E+00  0.00000000000E+00  0.97257094109E+02  0.97257094142E+02  0.25500000000E-02 0. -1.
          2   -1    0    0  501    0  0.00000000000E+00 -0.00000000000E+00 -0.58743806998E+03  0.58743806998E+03  0.25500000000E-02 0.  1.
    5000001    1    1    2    0    0 -0.16091306835E+03 -0.50084442192E+02 -0.30067395953E+03  0.38214041510E+03  0.16500000000E+03 0.  0.
   -5000001    1    1    2    0    0  0.16091306835E+03  0.50084442192E+02 -0.18950701634E+03  0.30255474903E+03  0.16500000000E+03 0.  0.
<mgrwt>
<rscale>  0 0.47804820E+03</rscale>
<asrwt>0</asrwt>
<pdfrwt beam="1">  1        2 0.83919722E-01 0.47804820E+03</pdfrwt>
<pdfrwt beam="2">  1       -2 0.13893871E-01 0.47804820E+03</pdfrwt>
<totfact> 0.22061835E+03</totfact>
</mgrwt>
</event>
<event>
 4    1  0.1025337E-004  0.6076600E+03  0.7818608E-02  0.9889640E-01
          2   -1    0    0  501    0  0.00000000000E+00  0.00000000000E+00  0.28668130663E+03  0.28668130664E+03  0.25500000000E-02 0.  1.
         -2   -1    0    0    0  501 -0.00000000000E+00 -0.00000000000E+00 -0.32200448301E+03  0.32200448302E+03  0.25500000000E-02 0. -1.
    5000001    1    1    2    0    0 -0.13749116476E+03  0.22709635876E+02  0.19640016486E+03  0.29192049038E+03  0.16500000000E+03 0.  0.
   -5000001    1    1    2    0    0  0.13749116476E+03 -0.22709635876E+02 -0.23172334125E+03  0.31676529928E+03  0.16500000000E+03 0.  0.
<mgrwt>
<rscale>  0 0.60765999E+03</rscale>
<asrwt>0</asrwt>
<pdfrwt beam="1">  1        2 0.40954472E-01 0.60765999E+03</pdfrwt>
<pdfrwt beam="2">  1       -2 0.46000640E-01 0.60765999E+03</pdfrwt>
<totfact> 0.56617443E+02</totfact>
</mgrwt>
</event>
<event>
 4    1  0.1025337E-004  0.5467863E+03  0.7818608E-02  0.1002241E+00
          2   -1    0    0  501    0  0.00000000000E+00  0.00000000000E+00  0.29001702424E+04  0.29001702424E+04  0.25500000000E-02 0.  1.
         -2   -1    0    0    0  501 -0.00000000000E+00 -0.00000000000E+00 -0.25772218791E+02  0.25772218917E+02  0.25500000000E-02 0. -1.
    5000001    1    1    2    0    0  0.11532568991E+03 -0.58270868494E+02  0.49771845826E+03  0.54004089897E+03  0.16500000000E+03 0.  0.
   -5000001    1    1    2    0    0 -0.11532568991E+03  0.58270868494E+02  0.23766795654E+04  0.23859015624E+04  0.16500000000E+03 0.  0.
<mgrwt>
<rscale>  0 0.54678633E+03</rscale>
<asrwt>0</asrwt>
<pdfrwt beam="1">  1        2 0.41430977E+00 0.54678633E+03</pdfrwt>
<pdfrwt beam="2">  1       -2 0.36817479E-02 0.54678633E+03</pdfrwt>
<totfact> 0.94354897E+02</totfact>
</mgrwt>
</event>
<event>
 4    1  0.1025337E-004  0.1067905E+04  0.7818608E-02  0.9237051E-01
          2   -1    0    0  501    0  0.00000000000E+00  0.00000000000E+00  0.10739092489E+04  0.10739092489E+04  0.25500000000E-02 0.  1.
         -2   -1    0    0    0  501 -0.00000000000E+00 -0.00000000000E+00 -0.26548369465E+03  0.26548369467E+03  0.25500000000E-02 0. -1.
    5000001    1    1    2    0    0 -0.48553208526E+03  0.12274956195E+03  0.29874200610E+03  0.60603683632E+03  0.16500000000E+03 0.  0.
   -5000001    1    1    2    0    0  0.48553208526E+03 -0.12274956195E+03  0.50968354812E+03  0.73335610722E+03  0.16500000000E+03 0.  0.
<mgrwt>
<rscale>  0 0.10679052E+04</rscale>
<asrwt>0</asrwt>
<pdfrwt beam="1">  1        2 0.15341561E+00 0.10679052E+04</pdfrwt>
<pdfrwt beam="2">  1       -2 0.37926243E-01 0.10679052E+04</pdfrwt>
<totfact> 0.16500996E+02</totfact>
</mgrwt>
</event>
<event>
 4    1  0.1025337E-004  0.5372654E+03  0.7818608E-02  0.1004485E+00
         -2   -1    0    0    0  501 -0.00000000000E+00  0.00000000000E+00  0.89142014712E+02  0.89142014748E+02  0.25500000000E-02 0. -1.
          2   -1    0    0  501    0  0.00000000000E+00 -0.00000000000E+00 -0.80953451243E+03  0.80953451243E+03  0.25500000000E-02 0.  1.
    5000001    1    1    2    0    0  0.18463454188E+03 -0.95838132821E+02 -0.42842207913E+03  0.50402910595E+03  0.16500000000E+03 0.  0.
   -5000001    1    1    2    0    0 -0.18463454188E+03  0.95838132821E+02 -0.29197041858E+03  0.39464742123E+03  0.16500000000E+03 0.  0.
<mgrwt>
<rscale>  0 0.53726544E+03</rscale>
<asrwt>0</asrwt>
<pdfrwt beam="1">  1        2 0.11564778E+00 0.53726544E+03</pdfrwt>
<pdfrwt beam="2">  1       -2 0.12734574E-01 0.53726544E+03</pdfrwt>
<totfact> 0.17271400E+03</totfact>
</mgrwt>
</event>
<event>
 4    1  0.1025337E-004  0.4721915E+03  0.7818608E-02  0.1021303E+00
          2   -1    0    0  501    0  0.00000000000E+00  0.00000000000E+00  0.34914748111E+03  0.34914748112E+03  0.25500000000E-02 0.  1.
         -2   -1    0    0    0  501 -0.00000000000E+00 -0.00000000000E+00 -0.15964947292E+03  0.15964947294E+03  0.25500000000E-02 0. -1.
    5000001    1    1    2    0    0  0.75810501727E+02  0.13118506543E+03  0.14407025336E+02  0.22447564666E+03  0.16500000000E+03 0.  0.
   -5000001    1    1    2    0    0 -0.75810501727E+02 -0.13118506543E+03  0.17509098285E+03  0.28432130740E+03  0.16500000000E+03 0.  0.
<mgrwt>
<rscale>  0 0.47219153E+03</rscale>
<asrwt>0</asrwt>
<pdfrwt beam="1">  1        2 0.49878211E-01 0.47219153E+03</pdfrwt>
<pdfrwt beam="2">  1       -2 0.22807068E-01 0.47219153E+03</pdfrwt>
<totfact> 0.16935087E+03</totfact>
</mgrwt>
</event>
<event>
 4    1  0.1025337E-004  0.4903494E+03  0.7818608E-02  0.1016329E+00
         -2   -1    0    0    0  501 -0.00000000000E+00  0.00000000000E+00  0.48202808252E+02  0.48202808319E+02  0.25500000000E-02 0.  1.
          2   -1    0    0  501    0  0.00000000000E+00 -0.00000000000E+00 -0.12470358283E+04  0.12470358283E+04  0.25500000000E-02 0. -1.
    5000001    1    1    2    0    0 -0.12119577729E+03  0.13485164431E+03 -0.60866032238E+03  0.65617510654E+03  0.16500000000E+03 0.  0.
   -5000001    1    1    2    0    0  0.12119577729E+03 -0.13485164431E+03 -0.59017269767E+03  0.63906353008E+03  0.16500000000E+03 0.  0.
<mgrwt>
<rscale>  0 0.49034938E+03</rscale>
<asrwt>0</asrwt>
<pdfrwt beam="1">  1        2 0.17814796E+00 0.49034938E+03</pdfrwt>
<pdfrwt beam="2">  1       -2 0.68861162E-02 0.49034938E+03</pdfrwt>
<totfact> 0.25279848E+03</totfact>
</mgrwt>
</event>
<event>
 4    1  0.1025337E-004  0.4608682E+03  0.7818608E-02  0.1024530E+00
          2   -1    0    0  501    0  0.00000000000E+00  0.00000000000E+00  0.11472080736E+04  0.11472080736E+04  0.25500000000E-02 0.  1.
         -2   -1    0    0    0  501 -0.00000000000E+00 -0.00000000000E+00 -0.46286184937E+02  0.46286185007E+02  0.25500000000E-02 0. -1.
    5000001    1    1    2    0    0  0.96224821395E+02  0.93483497174E+02  0.78029284757E+03  0.80875231589E+03  0.16500000000E+03 0.  0.
   -5000001    1    1    2    0    0 -0.96224821395E+02 -0.93483497174E+02  0.32062904113E+03  0.38474194275E+03  0.16500000000E+03 0.  0.
<mgrwt>
<rscale>  0 0.46086825E+03</rscale>
<asrwt>0</asrwt>
<pdfrwt beam="1">  1        2 0.16388685E+00 0.46086825E+03</pdfrwt>
<pdfrwt beam="2">  1       -2 0.66123130E-02 0.46086825E+03</pdfrwt>
<totfact> 0.30616527E+03</totfact>
</mgrwt>
</event>
<event>
 4    1  0.1025337E-004  0.4006019E+03  0.7818608E-02  0.1043571E+00
          2   -1    0    0  501    0  0.00000000000E+00  0.00000000000E+00  0.20173373120E+04  0.20173373120E+04  0.25500000000E-02 0.  1.
         -2   -1    0    0    0  501 -0.00000000000E+00 -0.00000000000E+00 -0.19887831193E+02  0.19887831356E+02  0.25500000000E-02 0. -1.
    5000001    1    1    2    0    0  0.66299247568E+02 -0.92182797821E+02  0.10062772979E+04  0.10260176697E+04  0.16500000000E+03 0.  0.
   -5000001    1    1    2    0    0 -0.66299247568E+02  0.92182797821E+02  0.99117218299E+03  0.10112074737E+04  0.16500000000E+03 0.  0.
<mgrwt>
<rscale>  0 0.40060187E+03</rscale>
<asrwt>0</asrwt>
<pdfrwt beam="1">  1        2 0.28819121E+00 0.40060187E+03</pdfrwt>
<pdfrwt beam="2">  1       -2 0.28411172E-02 0.40060187E+03</pdfrwt>
<totfact> 0.39726224E+03</totfact>
</mgrwt>
</event>
<event>
 4    1  0.1025337E-004  0.3635021E+03  0.7818608E-02  0.1057206E+00
          2   -1    0    0  501    0  0.00000000000E+00  0.00000000000E+00  0.23510387037E+03  0.23510387039E+03  0.25500000000E-02 0.  1.
         -2   -1    0    0    0  501 -0.00000000000E+00 -0.00000000000E+00 -0.14050577459E+03  0.14050577462E+03  0.25500000000E-02 0. -1.
    5000001    1    1    2    0    0  0.64525981813E+01 -0.75134059305E+02  0.58697728652E+02  0.19067560473E+03  0.16500000000E+03 0.  0.
   -5000001    1    1    2    0    0 -0.64525981813E+01  0.75134059305E+02  0.35900367125E+02  0.18493404027E+03  0.16500000000E+03 0.  0.
<mgrwt>
<rscale>  0 0.36350214E+03</rscale>
<asrwt>0</asrwt>
<pdfrwt beam="1">  1        2 0.33586267E-01 0.36350214E+03</pdfrwt>
<pdfrwt beam="2">  1       -2 0.20072254E-01 0.36350214E+03</pdfrwt>
<totfact> 0.32496097E+03</totfact>
</mgrwt>
</event>
<event>
 4    1  0.1025337E-004  0.6961945E+03  0.7818608E-02  0.9723762E-01
          2   -1    0    0  501    0  0.00000000000E+00  0.00000000000E+00  0.69976052367E+03  0.69976052367E+03  0.25500000000E-02 0.  1.
         -2   -1    0    0    0  501 -0.00000000000E+00 -0.00000000000E+00 -0.17316168190E+03  0.17316168192E+03  0.25500000000E-02 0. -1.
    5000001    1    1    2    0    0 -0.29625716410E+03  0.78601811439E+02  0.26280233078E+03  0.43616122834E+03  0.16500000000E+03 0.  0.
   -5000001    1    1    2    0    0  0.29625716410E+03 -0.78601811439E+02  0.26379651099E+03  0.43676097726E+03  0.16500000000E+03 0.  0.
<mgrwt>
<rscale>  0 0.69619454E+03</rscale>
<asrwt>0</asrwt>
<pdfrwt beam="1">  1        2 0.99965789E-01 0.69619454E+03</pdfrwt>
<pdfrwt beam="2">  1       -2 0.24737383E-01 0.69619454E+03</pdfrwt>
<totfact> 0.66018102E+02</totfact>
</mgrwt>
</event>
<event>
 4    1  0.1025337E-004  0.4868448E+03  0.7818608E-02  0.1017271E+00
          2   -1    0    0  501    0  0.00000000000E+00  0.00000000000E+00  0.13193139599E+03  0.13193139601E+03  0.25500000000E-02 0.  1.
         -2   -1    0    0    0  501 -0.00000000000E+00 -0.00000000000E+00 -0.44913092130E+03  0.44913092131E+03  0.25500000000E-02 0. -1.
    5000001    1    1    2    0    0  0.15479313139E+03  0.77101159398E+02 -0.21360525482E+03  0.32055843023E+03  0.16500000000E+03 0.  0.
   -5000001    1    1    2    0    0 -0.15479313139E+03 -0.77101159398E+02 -0.10359427049E+03  0.26050388708E+03  0.16500000000E+03 0.  0.
<mgrwt>
<rscale>  0 0.48684482E+03</rscale>
<asrwt>0</asrwt>
<pdfrwt beam="1">  1        2 0.18847343E-01 0.48684482E+03</pdfrwt>
<pdfrwt beam="2">  1       -2 0.64161559E-01 0.48684482E+03</pdfrwt>
<totfact> 0.68828824E+02</totfact>
</mgrwt>
</event>
<event>
 4    1  0.1025337E-004  0.1075557E+04  0.7818608E-02  0.9229348E-01
          2   -1    0    0  501    0  0.00000000000E+00  0.00000000000E+00  0.47893562134E+03  0.47893562135E+03  0.25500000000E-02 0.  1.
         -2   -1    0    0    0  501 -0.00000000000E+00 -0.00000000000E+00 -0.60385135093E+03  0.60385135094E+03  0.25500000000E-02 0. -1.
    5000001    1    1    2    0    0 -0.42219788769E+03  0.18830902042E+03  0.15872230559E+03  0.51587703363E+03  0.16500000000E+03 0.  0.
   -5000001    1    1    2    0    0  0.42219788769E+03 -0.18830902042E+03 -0.28363803518E+03  0.56690993865E+03  0.16500000000E+03 0.  0.
<mgrwt>
<rscale>  0 0.10755574E+04</rscale>
<asrwt>0</asrwt>
<pdfrwt beam="1">  1        2 0.68419375E-01 0.10755574E+04</pdfrwt>
<pdfrwt beam="2">  1       -2 0.86264478E-01 0.10755574E+04</pdfrwt>
<totfact> 0.81793751E+01</totfact>
</mgrwt>
</event>
<event>
 4    1  0.1025337E-004  0.5368642E+03  0.7818608E-02  0.1004581E+00
         -2   -1    0    0    0  501 -0.00000000000E+00  0.00000000000E+00  0.35281592007E+02  0.35281592099E+02  0.25500000000E-02 0. -1.
          2   -1    0    0  501    0  0.00000000000E+00 -0.00000000000E+00 -0.20423052639E+04  0.20423052639E+04  0.25500000000E-02 0.  1.
    5000001    1    1    2    0    0 -0.10662496092E+03 -0.18125310430E+03 -0.10990283951E+04  0.11310658616E+04  0.16500000000E+03 0.  0.
   -5000001    1    1    2    0    0  0.10662496092E+03  0.18125310430E+03 -0.90799527681E+03  0.94652099439E+03  0.16500000000E+03 0.  0.
<mgrwt>
<rscale>  0 0.53686416E+03</rscale>
<asrwt>0</asrwt>
<pdfrwt beam="1">  1        2 0.29175782E+00 0.53686416E+03</pdfrwt>
<pdfrwt beam="2">  1       -2 0.50402287E-02 0.53686416E+03</pdfrwt>
<totfact> 0.16035965E+03</totfact>
</mgrwt>
</event>
<event>
 4    1  0.1025337E-004  0.6486504E+03  0.7818608E-02  0.9809315E-01
          2   -1    0    0  501    0  0.00000000000E+00  0.00000000000E+00  0.98505345269E+03  0.98505345269E+03  0.25500000000E-02 0.  1.
         -2   -1    0    0    0  501 -0.00000000000E+00 -0.00000000000E+00 -0.10678285949E+03  0.10678285952E+03  0.25500000000E-02 0. -1.
    5000001    1    1    2    0    0  0.17349591249E+03 -0.13719298728E+03  0.15229624980E+03  0.31518549318E+03  0.16500000000E+03 0.  0.
   -5000001    1    1    2    0    0 -0.17349591249E+03  0.13719298728E+03  0.72597434341E+03  0.77665081903E+03  0.16500000000E+03 0.  0.
<mgrwt>
<rscale>  0 0.64865037E+03</rscale>
<asrwt>0</asrwt>
<pdfrwt beam="1">  1        2 0.14072192E+00 0.64865037E+03</pdfrwt>
<pdfrwt beam="2">  1       -2 0.15254694E-01 0.64865037E+03</pdfrwt>
<totfact> 0.98136391E+02</totfact>
</mgrwt>
</event>
<event>
 4    1  0.1025337E-004  0.9589112E+03  0.7818608E-02  0.9354795E-01
         -2   -1    0    0    0  501 -0.00000000000E+00  0.00000000000E+00  0.28219726834E+03  0.28219726835E+03  0.25500000000E-02 0. -1.
          2   -1    0    0  501    0  0.00000000000E+00 -0.00000000000E+00 -0.81459917851E+03  0.81459917851E+03  0.25500000000E-02 0.  1.
    5000001    1    1    2    0    0  0.34005821790E+03  0.29420067666E+03 -0.24169510726E+03  0.53650270696E+03  0.16500000000E+03 0.  0.
   -5000001    1    1    2    0    0 -0.34005821790E+03 -0.29420067666E+03 -0.29070680291E+03  0.56029373989E+03  0.16500000000E+03 0.  0.
<mgrwt>
<rscale>  0 0.95891118E+03</rscale>
<asrwt>0</asrwt>
<pdfrwt beam="1">  1        2 0.11637131E+00 0.95891118E+03</pdfrwt>
<pdfrwt beam="2">  1       -2 0.40313896E-01 0.95891118E+03</pdfrwt>
<totfact> 0.21599386E+02</totfact>
</mgrwt>
</event>
<event>
 4    1  0.1025337E-004  0.3399873E+03  0.7818608E-02  0.1066801E+00
          2   -1    0    0  501    0  0.00000000000E+00  0.00000000000E+00  0.32095531644E+03  0.32095531645E+03  0.25500000000E-02 0.  1.
         -2   -1    0    0    0  501 -0.00000000000E+00 -0.00000000000E+00 -0.90036937351E+02  0.90036937388E+02  0.25500000000E-02 0. -1.
    5000001    1    1    2    0    0  0.29027429495E+02 -0.28812575369E+02  0.11579586166E+03  0.20568528810E+03  0.16500000000E+03 0.  0.
   -5000001    1    1    2    0    0 -0.29027429495E+02  0.28812575369E+02  0.11512251743E+03  0.20530696574E+03  0.16500000000E+03 0.  0.
<mgrwt>
<rscale>  0 0.33998726E+03</rscale>
<asrwt>0</asrwt>
<pdfrwt beam="1">  1        2 0.45850761E-01 0.33998726E+03</pdfrwt>
<pdfrwt beam="2">  1       -2 0.12862419E-01 0.33998726E+03</pdfrwt>
<totfact> 0.48736292E+03</totfact>
</mgrwt>
</event>
<event>
 4    1  0.1025337E-004  0.1326944E+04  0.7818608E-02  0.9008467E-01
         -2   -1    0    0    0  501 -0.00000000000E+00  0.00000000000E+00  0.18456001343E+03  0.18456001345E+03  0.25500000000E-02 0. -1.
          2   -1    0    0  501    0  0.00000000000E+00 -0.00000000000E+00 -0.23851067994E+04  0.23851067994E+04  0.25500000000E-02 0.  1.
    5000001    1    1    2    0    0 -0.60360663741E+03 -0.68445562352E+02 -0.69431947844E+03  0.93719277946E+03  0.16500000000E+03 0.  0.
   -5000001    1    1    2    0    0  0.60360663741E+03  0.68445562352E+02 -0.15062273075E+04  0.16324740334E+04  0.16500000000E+03 0.  0.
<mgrwt>
<rscale>  0 0.13269444E+04</rscale>
<asrwt>0</asrwt>
<pdfrwt beam="1">  1        2 0.34072952E+00 0.13269444E+04</pdfrwt>
<pdfrwt beam="2">  1       -2 0.26365718E-01 0.13269444E+04</pdfrwt>
<totfact> 0.64709396E+01</totfact>
</mgrwt>
</event>
<event>
 4    1  0.1025337E-004  0.3531185E+03  0.7818608E-02  0.1061342E+00
         -2   -1    0    0    0  501 -0.00000000000E+00  0.00000000000E+00  0.25449623379E+02  0.25449623507E+02  0.25500000000E-02 0. -1.
          2   -1    0    0  501    0  0.00000000000E+00 -0.00000000000E+00 -0.12248970061E+04  0.12248970061E+04  0.25500000000E-02 0.  1.
    5000001    1    1    2    0    0 -0.40738598038E+01 -0.62174497881E+02 -0.62846871720E+03  0.65274818500E+03  0.16500000000E+03 0.  0.
   -5000001    1    1    2    0    0  0.40738598038E+01  0.62174497881E+02 -0.57097866552E+03  0.59759844461E+03  0.16500000000E+03 0.  0.
<mgrwt>
<rscale>  0 0.35311849E+03</rscale>
<asrwt>0</asrwt>
<pdfrwt beam="1">  1        2 0.17498525E+00 0.35311849E+03</pdfrwt>
<pdfrwt beam="2">  1       -2 0.36356613E-02 0.35311849E+03</pdfrwt>
<totfact> 0.69291309E+03</totfact>
</mgrwt>
</event>
<event>
 4    1  0.1025337E-004  0.7226588E+03  0.7818608E-02  0.9679249E-01
         -2   -1    0    0    0  501 -0.00000000000E+00  0.00000000000E+00  0.14904542965E+04  0.14904542965E+04  0.25500000000E-02 0. -1.
          2   -1    0    0  501    0  0.00000000000E+00 -0.00000000000E+00 -0.87596729389E+02  0.87596729426E+02  0.25500000000E-02 0.  1.
    5000001    1    1    2    0    0  0.31977907899E+03 -0.13425503859E+02  0.63610013088E+03  0.73094957420E+03  0.16500000000E+03 0.  0.
   -5000001    1    1    2    0    0 -0.31977907899E+03  0.13425503859E+02  0.76675743623E+03  0.84710145173E+03  0.16500000000E+03 0.  0.
<mgrwt>
<rscale>  0 0.72265876E+03</rscale>
<asrwt>0</asrwt>
<pdfrwt beam="1">  1        2 0.12513819E-01 0.72265876E+03</pdfrwt>
<pdfrwt beam="2">  1       -2 0.21292204E+00 0.72265876E+03</pdfrwt>
<totfact> 0.56156894E+01</totfact>
</mgrwt>
</event>
<event>
 4    1  0.1025337E-004  0.1553201E+04  0.7818608E-02  0.8849826E-01
         -2   -1    0    0    0  501 -0.00000000000E+00  0.00000000000E+00  0.42499120980E+03  0.42499120981E+03  0.25500000000E-02 0. -1.
          2   -1    0    0  501    0  0.00000000000E+00 -0.00000000000E+00 -0.14191075255E+04  0.14191075255E+04  0.25500000000E-02 0.  1.
    5000001    1    1    2    0    0 -0.10935756041E+03 -0.61673193924E+03 -0.10057473487E+04  0.11962734179E+04  0.16500000000E+03 0.  0.
   -5000001    1    1    2    0    0  0.10935756041E+03  0.61673193924E+03  0.11631033061E+02  0.64782531738E+03  0.16500000000E+03 0.  0.
<mgrwt>
<rscale>  0 0.15532009E+04</rscale>
<asrwt>0</asrwt>
<pdfrwt beam="1">  1        2 0.20272964E+00 0.15532009E+04</pdfrwt>
<pdfrwt beam="2">  1       -2 0.60713031E-01 0.15532009E+04</pdfrwt>
<totfact> 0.39340594E+01</totfact>
</mgrwt>
</event>
<event>
 4    1  0.1025337E-004  0.4057974E+03  0.7818608E-02  0.1041791E+00
         -2   -1    0    0    0  501 -0.00000000000E+00  0.00000000000E+00  0.26940361021E+02  0.26940361141E+02  0.25500000000E-02 0. -1.
          2   -1    0    0  501    0  0.00000000000E+00 -0.00000000000E+00 -0.15281119216E+04  0.15281119216E+04  0.25500000000E-02 0.  1.
    5000001    1    1    2    0    0  0.69035907023E+01  0.11784646617E+03 -0.74013478504E+03  0.76743726075E+03  0.16500000000E+03 0.  0.
   -5000001    1    1    2    0    0 -0.69035907023E+01 -0.11784646617E+03 -0.76103677550E+03  0.78761502196E+03  0.16500000000E+03 0.  0.
<mgrwt>
<rscale>  0 0.40579742E+03</rscale>
<asrwt>0</asrwt>
<pdfrwt beam="1">  1        2 0.21830165E+00 0.40579742E+03</pdfrwt>
<pdfrwt beam="2">  1       -2 0.38486240E-02 0.40579742E+03</pdfrwt>
<totfact> 0.44109987E+03</totfact>
</mgrwt>
</event>
<event>
 4    1  0.1025337E-004  0.6312164E+03  0.7818608E-02  0.9842678E-01
          2   -1    0    0  501    0  0.00000000000E+00  0.00000000000E+00  0.11405266458E+04  0.11405266458E+04  0.25500000000E-02 0.  1.
         -2   -1    0    0    0  501 -0.00000000000E+00 -0.00000000000E+00 -0.87335559782E+02  0.87335559819E+02  0.25500000000E-02 0. -1.
    5000001    1    1    2    0    0  0.16253083844E+03 -0.20103855032E+03  0.67152198320E+03  0.73824084557E+03  0.16500000000E+03 0.  0.
   -5000001    1    1    2    0    0 -0.16253083844E+03  0.20103855032E+03  0.38166910279E+03  0.48962136001E+03  0.16500000000E+03 0.  0.
<mgrwt>
<rscale>  0 0.63121639E+03</rscale>
<asrwt>0</asrwt>
<pdfrwt beam="1">  1        2 0.16293236E+00 0.63121639E+03</pdfrwt>
<pdfrwt beam="2">  1       -2 0.12476510E-01 0.63121639E+03</pdfrwt>
<totfact> 0.11110161E+03</totfact>
</mgrwt>
</event>
<event>
 4    1  0.1025337E-004  0.4279861E+03  0.7818608E-02  0.1034498E+00
         -2   -1    0    0    0  501 -0.00000000000E+00  0.00000000000E+00  0.10372870214E+03  0.10372870217E+03  0.25500000000E-02 0. -1.
          2   -1    0    0  501    0  0.00000000000E+00 -0.00000000000E+00 -0.44146911663E+03  0.44146911664E+03  0.25500000000E-02 0.  1.
    5000001    1    1    2    0    0 -0.98053679199E+02  0.59898034717E+02 -0.75557996444E+02  0.21479364375E+03  0.16500000000E+03 0.  0.
   -5000001    1    1    2    0    0  0.98053679199E+02 -0.59898034717E+02 -0.26218241804E+03  0.33040417506E+03  0.16500000000E+03 0.  0.
<mgrwt>
<rscale>  0 0.42798607E+03</rscale>
<asrwt>0</asrwt>
<pdfrwt beam="1">  1        2 0.63067016E-01 0.42798607E+03</pdfrwt>
<pdfrwt beam="2">  1       -2 0.14818386E-01 0.42798607E+03</pdfrwt>
<totfact> 0.27352598E+03</totfact>
</mgrwt>
</event>
<event>
 4    1  0.1025337E-004  0.9026770E+03  0.7818608E-02  0.9422241E-01
         -2   -1    0    0    0  501 -0.00000000000E+00  0.00000000000E+00  0.13351773501E+03  0.13351773504E+03  0.25500000000E-02 0. -1.
          2   -1    0    0  501    0  0.00000000000E+00 -0.00000000000E+00 -0.15256883959E+04  0.15256883959E+04  0.25500000000E-02 0.  1.
    5000001    1    1    2    0    0  0.34649928250E+03  0.11807677514E+03 -0.31725229951E+03  0.51174006990E+03  0.16500000000E+03 0.  0.
   -5000001    1    1    2    0    0 -0.34649928250E+03 -0.11807677514E+03 -0.10749183614E+04  0.11474660610E+04  0.16500000000E+03 0.  0.
<mgrwt>
<rscale>  0 0.90267704E+03</rscale>
<asrwt>0</asrwt>
<pdfrwt beam="1">  1        2 0.21795547E+00 0.90267704E+03</pdfrwt>
<pdfrwt beam="2">  1       -2 0.19073963E-01 0.90267704E+03</pdfrwt>
<totfact> 0.32923061E+02</totfact>
</mgrwt>
</event>
<event>
 4    1  0.1025337E-004  0.3960261E+03  0.7818608E-02  0.1045164E+00
          2   -1    0    0  501    0  0.00000000000E+00  0.00000000000E+00  0.17305813258E+04  0.17305813258E+04  0.25500000000E-02 0.  1.
         -2   -1    0    0    0  501 -0.00000000000E+00 -0.00000000000E+00 -0.22656644208E+02  0.22656644352E+02  0.25500000000E-02 0. -1.
    5000001    1    1    2    0    0  0.76094772896E+02  0.69511261783E+02  0.10173410071E+04  0.10357750502E+04  0.16500000000E+03 0.  0.
   -5000001    1    1    2    0    0 -0.76094772896E+02 -0.69511261783E+02  0.69058367457E+03  0.71746291998E+03  0.16500000000E+03 0.  0.
<mgrwt>
<rscale>  0 0.39602609E+03</rscale>
<asrwt>0</asrwt>
<pdfrwt beam="1">  1        2 0.24722589E+00 0.39602609E+03</pdfrwt>
<pdfrwt beam="2">  1       -2 0.32366637E-02 0.39602609E+03</pdfrwt>
<totfact> 0.45307534E+03</totfact>
</mgrwt>
</event>
<event>
 4    1  0.1025337E-004  0.5363374E+03  0.7818608E-02  0.1004707E+00
          2   -1    0    0  501    0  0.00000000000E+00  0.00000000000E+00  0.74167343728E+03  0.74167343728E+03  0.25500000000E-02 0.  1.
         -2   -1    0    0    0  501 -0.00000000000E+00 -0.00000000000E+00 -0.96962411211E+02  0.96962411245E+02  0.25500000000E-02 0. -1.
    5000001    1    1    2    0    0 -0.17275841044E+03  0.76757057651E+02  0.17440944893E+03  0.30558267319E+03  0.16500000000E+03 0.  0.
   -5000001    1    1    2    0    0  0.17275841044E+03 -0.76757057651E+02  0.47030157714E+03  0.53305317534E+03  0.16500000000E+03 0.  0.
<mgrwt>
<rscale>  0 0.53633737E+03</rscale>
<asrwt>0</asrwt>
<pdfrwt beam="1">  1        2 0.10595335E+00 0.53633737E+03</pdfrwt>
<pdfrwt beam="2">  1       -2 0.13851773E-01 0.53633737E+03</pdfrwt>
<totfact> 0.16773167E+03</totfact>
</mgrwt>
</event>
<event>
 4    1  0.1025337E-004  0.3848174E+03  0.7818608E-02  0.1049167E+00
         -2   -1    0    0    0  501 -0.00000000000E+00  0.00000000000E+00  0.79402780876E+02  0.79402780917E+02  0.25500000000E-02 0. -1.
          2   -1    0    0  501    0  0.00000000000E+00 -0.00000000000E+00 -0.46624448026E+03  0.46624448027E+03  0.25500000000E-02 0.  1.
    5000001    1    1    2    0    0  0.18184608401E+02 -0.95497182007E+02 -0.21978521783E+03  0.29151489453E+03  0.16500000000E+03 0.  0.
   -5000001    1    1    2    0    0 -0.18184608401E+02  0.95497182007E+02 -0.16705648156E+03  0.25413236666E+03  0.16500000000E+03 0.  0.
<mgrwt>
<rscale>  0 0.38481740E+03</rscale>
<asrwt>0</asrwt>
<pdfrwt beam="1">  1        2 0.66606353E-01 0.38481740E+03</pdfrwt>
<pdfrwt beam="2">  1       -2 0.11343255E-01 0.38481740E+03</pdfrwt>
<totfact> 0.39874020E+03</totfact>
</mgrwt>
</event>
<event>
 4    1  0.1025337E-004  0.4274502E+03  0.7818608E-02  0.1034668E+00
         -2   -1    0    0    0  501 -0.00000000000E+00  0.00000000000E+00  0.18684940804E+02  0.18684940978E+02  0.25500000000E-02 0. -1.
          2   -1    0    0  501    0  0.00000000000E+00 -0.00000000000E+00 -0.24446652205E+04  0.24446652205E+04  0.25500000000E-02 0.  1.
    5000001    1    1    2    0    0 -0.76322497094E+02  0.10234992674E+03 -0.94560218528E+03  0.96834349477E+03  0.16500000000E+03 0.  0.
   -5000001    1    1    2    0    0  0.76322497094E+02 -0.10234992674E+03 -0.14803780944E+04  0.14950066667E+04  0.16500000000E+03 0.  0.
<mgrwt>
<rscale>  0 0.42745023E+03</rscale>
<asrwt>0</asrwt>
<pdfrwt beam="1">  1        2 0.34923768E+00 0.42745023E+03</pdfrwt>
<pdfrwt beam="2">  1       -2 0.26692788E-02 0.42745023E+03</pdfrwt>
<totfact> 0.26690127E+03</totfact>
</mgrwt>
</event>
<event>
 4    1  0.1025337E-004  0.3924749E+03  0.7818608E-02  0.1046417E+00
          2   -1    0    0  501    0  0.00000000000E+00  0.00000000000E+00  0.33940945148E+02  0.33940945244E+02  0.25500000000E-02 0.  1.
         -2   -1    0    0    0  501 -0.00000000000E+00 -0.00000000000E+00 -0.11345924452E+04  0.11345924452E+04  0.25500000000E-02 0. -1.
    5000001    1    1    2    0    0  0.97844072877E+02 -0.23058357341E+02 -0.65255712497E+03  0.68055929337E+03  0.16500000000E+03 0.  0.
   -5000001    1    1    2    0    0 -0.97844072877E+02  0.23058357341E+02 -0.44809437510E+03  0.48797409709E+03  0.16500000000E+03 0.  0.
<mgrwt>
<rscale>  0 0.39247492E+03</rscale>
<asrwt>0</asrwt>
<pdfrwt beam="1">  1        2 0.48487072E-02 0.39247492E+03</pdfrwt>
<pdfrwt beam="2">  1       -2 0.16208461E+00 0.39247492E+03</pdfrwt>
<totfact> 0.42552936E+02</totfact>
</mgrwt>
</event>
<event>
 4    1  0.1025337E-004  0.4142040E+03  0.7818608E-02  0.1038969E+00
         -2   -1    0    0    0  501 -0.00000000000E+00  0.00000000000E+00  0.22368592270E+03  0.22368592272E+03  0.25500000000E-02 0. -1.
          2   -1    0    0  501    0  0.00000000000E+00 -0.00000000000E+00 -0.19174762843E+03  0.19174762845E+03  0.25500000000E-02 0.  1.
    5000001    1    1    2    0    0 -0.11808677743E+03  0.12376839862E+02 -0.23753618533E+02  0.20466291203E+03  0.16500000000E+03 0.  0.
   -5000001    1    1    2    0    0  0.11808677743E+03 -0.12376839862E+02  0.55691912805E+02  0.21077063913E+03  0.16500000000E+03 0.  0.
<mgrwt>
<rscale>  0 0.41420403E+03</rscale>
<asrwt>0</asrwt>
<pdfrwt beam="1">  1        2 0.27392518E-01 0.41420403E+03</pdfrwt>
<pdfrwt beam="2">  1       -2 0.31955132E-01 0.41420403E+03</pdfrwt>
<totfact> 0.17812476E+03</totfact>
</mgrwt>
</event>
<event>
 4    1  0.1025337E-004  0.6304817E+03  0.7818608E-02  0.9844109E-01
         -2   -1    0    0    0  501 -0.00000000000E+00  0.00000000000E+00  0.12408474095E+03  0.12408474098E+03  0.25500000000E-02 0. -1.
          2   -1    0    0  501    0  0.00000000000E+00 -0.00000000000E+00 -0.80087832578E+03  0.80087832578E+03  0.25500000000E-02 0.  1.
    5000001    1    1    2    0    0  0.18812389109E+03 -0.17885973377E+03 -0.23706907005E+03  0.38834024610E+03  0.16500000000E+03 0.  0.
   -5000001    1    1    2    0    0 -0.18812389109E+03  0.17885973377E+03 -0.43972451478E+03  0.53662282067E+03  0.16500000000E+03 0.  0.
<mgrwt>
<rscale>  0 0.63048166E+03</rscale>
<asrwt>0</asrwt>
<pdfrwt beam="1">  1        2 0.11441119E+00 0.63048166E+03</pdfrwt>
<pdfrwt beam="2">  1       -2 0.17726392E-01 0.63048166E+03</pdfrwt>
<totfact> 0.10022885E+03</totfact>
</mgrwt>
</event>
<event>
 4    1  0.1025337E-004  0.3835461E+03  0.7818608E-02  0.1049631E+00
         -2   -1    0    0    0  501 -0.00000000000E+00  0.00000000000E+00  0.72175311446E+02  0.72175311491E+02  0.25500000000E-02 0. -1.
          2   -1    0    0  501    0  0.00000000000E+00 -0.00000000000E+00 -0.50954952432E+03  0.50954952433E+03  0.25500000000E-02 0.  1.
    5000001    1    1    2    0    0 -0.15108253381E+02  0.78807210856E+02 -0.13406305573E+03  0.22723718603E+03  0.16500000000E+03 0.  0.
   -5000001    1    1    2    0    0  0.15108253381E+02 -0.78807210856E+02 -0.30331115715E+03  0.35448764979E+03  0.16500000000E+03 0.  0.
<mgrwt>
<rscale>  0 0.38354606E+03</rscale>
<asrwt>0</asrwt>
<pdfrwt beam="1">  1        2 0.72792787E-01 0.38354606E+03</pdfrwt>
<pdfrwt beam="2">  1       -2 0.10310759E-01 0.38354606E+03</pdfrwt>
<totfact> 0.42119375E+03</totfact>
</mgrwt>
</event>
<event>
 4    1  0.1025337E-004  0.4200691E+03  0.7818608E-02  0.1037044E+00
          2   -1    0    0  501    0  0.00000000000E+00  0.00000000000E+00  0.14471179608E+03  0.14471179610E+03  0.25500000000E-02 0.  1.
         -2   -1    0    0    0  501 -0.00000000000E+00 -0.00000000000E+00 -0.30484387693E+03  0.30484387694E+03  0.25500000000E-02 0. -1.
    5000001    1    1    2    0    0  0.93986923898E+02  0.29854320612E+02  0.10519996660E+02  0.19251101956E+03  0.16500000000E+03 0.  0.
   -5000001    1    1    2    0    0 -0.93986923898E+02 -0.29854320612E+02 -0.17065207751E+03  0.25704465348E+03  0.16500000000E+03 0.  0.
<mgrwt>
<rscale>  0 0.42006907E+03</rscale>
<asrwt>0</asrwt>
<pdfrwt beam="1">  1        2 0.20673114E-01 0.42006907E+03</pdfrwt>
<pdfrwt beam="2">  1       -2 0.43549125E-01 0.42006907E+03</pdfrwt>
<totfact> 0.13613079E+03</totfact>
</mgrwt>
</event>
<event>
 4    1  0.1025337E-004  0.4366470E+03  0.7818608E-02  0.1031781E+00
          2   -1    0    0  501    0  0.00000000000E+00  0.00000000000E+00  0.23669838012E+03  0.23669838013E+03  0.25500000000E-02 0.  1.
         -2   -1    0    0    0  501 -0.00000000000E+00 -0.00000000000E+00 -0.20137504633E+03  0.20137504635E+03  0.25500000000E-02 0. -1.
    5000001    1    1    2    0    0 -0.12569135364E+03  0.30988047016E+02  0.78535841226E+02  0.22394520266E+03  0.16500000000E+03 0.  0.
   -5000001    1    1    2    0    0  0.12569135364E+03 -0.30988047016E+02 -0.43212507440E+02  0.21412822382E+03  0.16500000000E+03 0.  0.
<mgrwt>
<rscale>  0 0.43664698E+03</rscale>
<asrwt>0</asrwt>
<pdfrwt beam="1">  1        2 0.33814054E-01 0.43664698E+03</pdfrwt>
<pdfrwt beam="2">  1       -2 0.28767864E-01 0.43664698E+03</pdfrwt>
<totfact> 0.17103512E+03</totfact>
</mgrwt>
</event>
<event>
 4    1  0.1025337E-004  0.3975364E+03  0.7818608E-02  0.1044636E+00
          2   -1    0    0  501    0  0.00000000000E+00  0.00000000000E+00  0.78232470323E+02  0.78232470364E+02  0.25500000000E-02 0.  1.
         -2   -1    0    0    0  501 -0.00000000000E+00 -0.00000000000E+00 -0.50501787810E+03  0.50501787811E+03  0.25500000000E-02 0. -1.
    5000001    1    1    2    0    0  0.65060692706E+01  0.10950415098E+03 -0.23660486696E+03  0.30861035480E+03  0.16500000000E+03 0.  0.
   -5000001    1    1    2    0    0 -0.65060692706E+01 -0.10950415098E+03 -0.19018054082E+03  0.27463999368E+03  0.16500000000E+03 0.  0.
<mgrwt>
<rscale>  0 0.39753639E+03</rscale>
<asrwt>0</asrwt>
<pdfrwt beam="1">  1        2 0.11176067E-01 0.39753639E+03</pdfrwt>
<pdfrwt beam="2">  1       -2 0.72145410E-01 0.39753639E+03</pdfrwt>
<totfact> 0.10044688E+03</totfact>
</mgrwt>
</event>
<event>
 4    1  0.1025337E-004  0.4414190E+03  0.7818608E-02  0.1030312E+00
          2   -1    0    0  501    0  0.00000000000E+00  0.00000000000E+00  0.22268866935E+04  0.22268866935E+04  0.25500000000E-02 0.  1.
         -2   -1    0    0    0  501 -0.00000000000E+00 -0.00000000000E+00 -0.21874792726E+02  0.21874792874E+02  0.25500000000E-02 0. -1.
    5000001    1    1    2    0    0  0.13999333992E+03  0.41898024584E+02  0.11615009736E+04  0.11822280201E+04  0.16500000000E+03 0.  0.
   -5000001    1    1    2    0    0 -0.13999333992E+03 -0.41898024584E+02  0.10435109271E+04  0.10665334663E+04  0.16500000000E+03 0.  0.
<mgrwt>
<rscale>  0 0.44141901E+03</rscale>
<asrwt>0</asrwt>
<pdfrwt beam="1">  1        2 0.31812666E+00 0.44141901E+03</pdfrwt>
<pdfrwt beam="2">  1       -2 0.31249705E-02 0.44141901E+03</pdfrwt>
<totfact> 0.27051657E+03</totfact>
</mgrwt>
</event>
<event>
 4    1  0.1025337E-004  0.1142509E+04  0.7818608E-02  0.9164722E-01
         -2   -1    0    0    0  501 -0.00000000000E+00  0.00000000000E+00  0.91883589429E+03  0.91883589429E+03  0.25500000000E-02 0. -1.
          2   -1    0    0  501    0  0.00000000000E+00 -0.00000000000E+00 -0.35515776040E+03  0.35515776041E+03  0.25500000000E-02 0.  1.
    5000001    1    1    2    0    0 -0.40995438229E+03 -0.30662274735E+03  0.49640685225E+03  0.73193228355E+03  0.16500000000E+03 0.  0.
   -5000001    1    1    2    0    0  0.40995438229E+03  0.30662274735E+03  0.67271281641E+02  0.54206137114E+03  0.16500000000E+03 0.  0.
<mgrwt>
<rscale>  0 0.11425090E+04</rscale>
<asrwt>0</asrwt>
<pdfrwt beam="1">  1        2 0.50736823E-01 0.11425090E+04</pdfrwt>
<pdfrwt beam="2">  1       -2 0.13126227E+00 0.11425090E+04</pdfrwt>
<totfact> 0.41473943E+01</totfact>
</mgrwt>
</event>
<event>
 4    1  0.1025337E-004  0.5356454E+03  0.7818608E-02  0.1004872E+00
          2   -1    0    0  501    0  0.00000000000E+00  0.00000000000E+00  0.17025761030E+03  0.17025761032E+03  0.25500000000E-02 0.  1.
         -2   -1    0    0    0  501 -0.00000000000E+00 -0.00000000000E+00 -0.42129688161E+03  0.42129688162E+03  0.25500000000E-02 0. -1.
    5000001    1    1    2    0    0  0.79850901913E+02  0.63886812453E+02 -0.32929533382E+03  0.38225398391E+03  0.16500000000E+03 0.  0.
   -5000001    1    1    2    0    0 -0.79850901913E+02 -0.63886812453E+02  0.78256062510E+02  0.20930050803E+03  0.16500000000E+03 0.  0.
<mgrwt>
<rscale>  0 0.53564541E+03</rscale>
<asrwt>0</asrwt>
<pdfrwt beam="1">  1        2 0.24322516E-01 0.53564541E+03</pdfrwt>
<pdfrwt beam="2">  1       -2 0.60185268E-01 0.53564541E+03</pdfrwt>
<totfact> 0.58628585E+02</totfact>
</mgrwt>
</event>
<event>
 4    1  0.1025337E-004  0.7213634E+03  0.7818608E-02  0.9681380E-01
          2   -1    0    0  501    0  0.00000000000E+00  0.00000000000E+00  0.11417379730E+04  0.11417379730E+04  0.25500000000E-02 0. -1.
         -2   -1    0    0    0  501 -0.00000000000E+00 -0.00000000000E+00 -0.11394145594E+03  0.11394145596E+03  0.25500000000E-02 0.  1.
    5000001    1    1    2    0    0  0.26626485224E+03  0.15227395696E+03  0.67702319038E+03  0.76136044671E+03  0.16500000000E+03 0.  0.
   -5000001    1    1    2    0    0 -0.26626485224E+03 -0.15227395696E+03  0.35077332669E+03  0.49431898226E+03  0.16500000000E+03 0.  0.
<mgrwt>
<rscale>  0 0.72136340E+03</rscale>
<asrwt>0</asrwt>
<pdfrwt beam="1">  1        2 0.16310543E+00 0.72136340E+03</pdfrwt>
<pdfrwt beam="2">  1       -2 0.16277350E-01 0.72136340E+03</pdfrwt>
<totfact> 0.70770601E+02</totfact>
</mgrwt>
</event>
<event>
 4    1  0.1025337E-004  0.3637637E+03  0.7818608E-02  0.1057103E+00
         -2   -1    0    0    0  501 -0.00000000000E+00  0.00000000000E+00  0.11658996967E+02  0.11658997246E+02  0.25500000000E-02 0.  1.
          2   -1    0    0  501    0  0.00000000000E+00 -0.00000000000E+00 -0.28373804005E+04  0.28373804005E+04  0.25500000000E-02 0. -1.
    5000001    1    1    2    0    0 -0.31249448978E+02  0.69607368555E+02 -0.13669936085E+04  0.13790280053E+04  0.16500000000E+03 0.  0.
   -5000001    1    1    2    0    0  0.31249448978E+02 -0.69607368555E+02 -0.14587277950E+04  0.14700113924E+04  0.16500000000E+03 0.  0.
<mgrwt>
<rscale>  0 0.36376371E+03</rscale>
<asrwt>0</asrwt>
<pdfrwt beam="1">  1        2 0.40533962E+00 0.36376371E+03</pdfrwt>
<pdfrwt beam="2">  1       -2 0.16655728E-02 0.36376371E+03</pdfrwt>
<totfact> 0.33995131E+03</totfact>
</mgrwt>
</event>
<event>
 4    1  0.1025337E-004  0.3770192E+03  0.7818608E-02  0.1052041E+00
         -2   -1    0    0    0  501 -0.00000000000E+00  0.00000000000E+00  0.12309195814E+04  0.12309195814E+04  0.25500000000E-02 0. -1.
          2   -1    0    0  501    0  0.00000000000E+00 -0.00000000000E+00 -0.28869370538E+02  0.28869370651E+02  0.25500000000E-02 0.  1.
    5000001    1    1    2    0    0  0.84411730248E+02  0.33627092940E+02  0.57630022249E+03  0.60630278576E+03  0.16500000000E+03 0.  0.
   -5000001    1    1    2    0    0 -0.84411730248E+02 -0.33627092940E+02  0.62574998835E+03  0.65348616627E+03  0.16500000000E+03 0.  0.
<mgrwt>
<rscale>  0 0.37701922E+03</rscale>
<asrwt>0</asrwt>
<pdfrwt beam="1">  1        2 0.41241949E-02 0.37701922E+03</pdfrwt>
<pdfrwt beam="2">  1       -2 0.17584569E+00 0.37701922E+03</pdfrwt>
<totfact> 0.42383429E+02</totfact>
</mgrwt>
</event>
<event>
 4    1  0.1025337E-004  0.4761885E+03  0.7818608E-02  0.1020188E+00
         -2   -1    0    0    0  501 -0.00000000000E+00  0.00000000000E+00  0.65749267861E+03  0.65749267861E+03  0.25500000000E-02 0.  1.
          2   -1    0    0  501    0  0.00000000000E+00 -0.00000000000E+00 -0.86219766360E+02  0.86219766398E+02  0.25500000000E-02 0. -1.
    5000001    1    1    2    0    0  0.16007714882E+03 -0.61185103524E+02  0.27036951050E+03  0.36012911945E+03  0.16500000000E+03 0.  0.
   -5000001    1    1    2    0    0 -0.16007714882E+03  0.61185103524E+02  0.30090340175E+03  0.38358332557E+03  0.16500000000E+03 0.  0.
<mgrwt>
<rscale>  0 0.47618847E+03</rscale>
<asrwt>0</asrwt>
<pdfrwt beam="1">  1        2 0.12317109E-01 0.47618847E+03</pdfrwt>
<pdfrwt beam="2">  1       -2 0.93927527E-01 0.47618847E+03</pdfrwt>
<totfact> 0.49354387E+02</totfact>
</mgrwt>
</event>
<event>
 4    1  0.1025337E-004  0.3493323E+03  0.7818608E-02  0.1062889E+00
         -2   -1    0    0    0  501 -0.00000000000E+00  0.00000000000E+00  0.12701426648E+02  0.12701426904E+02  0.25500000000E-02 0. -1.
          2   -1    0    0  501    0  0.00000000000E+00 -0.00000000000E+00 -0.24019554227E+04  0.24019554227E+04  0.25500000000E-02 0.  1.
    5000001    1    1    2    0    0  0.40805596542E+02 -0.40162309488E+02 -0.12103180292E+04  0.12228543820E+04  0.16500000000E+03 0.  0.
   -5000001    1    1    2    0    0 -0.40805596542E+02  0.40162309488E+02 -0.11789359669E+04  0.11918024676E+04  0.16500000000E+03 0.  0.
<mgrwt>
<rscale>  0 0.34933228E+03</rscale>
<asrwt>0</asrwt>
<pdfrwt beam="1">  1        2 0.34313620E+00 0.34933228E+03</pdfrwt>
<pdfrwt beam="2">  1       -2 0.18144911E-02 0.34933228E+03</pdfrwt>
<totfact> 0.49991165E+03</totfact>
</mgrwt>
</event>
<event>
 4    1  0.1025337E-004  0.1239585E+04  0.7818608E-02  0.9078897E-01
          2   -1    0    0  501    0  0.00000000000E+00  0.00000000000E+00  0.30073765564E+04  0.30073765564E+04  0.25500000000E-02 0.  1.
         -2   -1    0    0    0  501 -0.00000000000E+00 -0.00000000000E+00 -0.12773342045E+03  0.12773342047E+03  0.25500000000E-02 0. -1.
    5000001    1    1    2    0    0 -0.46656869776E+03  0.23067472747E+02  0.23817400749E+04  0.24327205434E+04  0.16500000000E+03 0.  0.
   -5000001    1    1    2    0    0  0.46656869776E+03 -0.23067472747E+02  0.49790306109E+03  0.70238943349E+03  0.16500000000E+03 0.  0.
<mgrwt>
<rscale>  0 0.12395846E+04</rscale>
<asrwt>0</asrwt>
<pdfrwt beam="1">  1        2 0.42962519E+00 0.12395846E+04</pdfrwt>
<pdfrwt beam="2">  1       -2 0.18247633E-01 0.12395846E+04</pdfrwt>
<totfact> 0.58312977E+01</totfact>
</mgrwt>
</event>
<event>
 4    1  0.1025337E-004  0.6980069E+03  0.7818608E-02  0.9720647E-01
         -2   -1    0    0    0  501 -0.00000000000E+00  0.00000000000E+00  0.10404882305E+03  0.10404882309E+03  0.25500000000E-02 0. -1.
          2   -1    0    0  501    0  0.00000000000E+00 -0.00000000000E+00 -0.11706371143E+04  0.11706371143E+04  0.25500000000E-02 0.  1.
    5000001    1    1    2    0    0 -0.12879957500E+03 -0.13368138163E+03 -0.98105597976E+03  0.10120058684E+04  0.16500000000E+03 0.  0.
   -5000001    1    1    2    0    0  0.12879957500E+03  0.13368138163E+03 -0.85532311472E+02  0.26268006894E+03  0.16500000000E+03 0.  0.
<mgrwt>
<rscale>  0 0.69800692E+03</rscale>
<asrwt>0</asrwt>
<pdfrwt beam="1">  1        2 0.16723387E+00 0.69800692E+03</pdfrwt>
<pdfrwt beam="2">  1       -2 0.14864118E-01 0.69800692E+03</pdfrwt>
<totfact> 0.79535179E+02</totfact>
</mgrwt>
</event>
<event>
 4    1  0.1025337E-004  0.3816280E+03  0.7818608E-02  0.1050334E+00
          2   -1    0    0  501    0  0.00000000000E+00  0.00000000000E+00  0.73290456514E+03  0.73290456514E+03  0.25500000000E-02 0.  1.
         -2   -1    0    0    0  501 -0.00000000000E+00 -0.00000000000E+00 -0.49679018933E+02  0.49679018999E+02  0.25500000000E-02 0. -1.
    5000001    1    1    2    0    0 -0.69877323058E+02  0.37908906308E+02  0.45137602136E+03  0.48711932636E+03  0.16500000000E+03 0.  0.
   -5000001    1    1    2    0    0  0.69877323058E+02 -0.37908906308E+02  0.23184952485E+03  0.29546425778E+03  0.16500000000E+03 0.  0.
<mgrwt>
<rscale>  0 0.38162799E+03</rscale>
<asrwt>0</asrwt>
<pdfrwt beam="1">  1        2 0.10470065E+00 0.38162799E+03</pdfrwt>
<pdfrwt beam="2">  1       -2 0.70970030E-02 0.38162799E+03</pdfrwt>
<totfact> 0.49832255E+03</totfact>
</mgrwt>
</event>
<event>
 4    1  0.1025337E-004  0.4060285E+03  0.7818608E-02  0.1041712E+00
          2   -1    0    0  501    0  0.00000000000E+00  0.00000000000E+00  0.35671621705E+03  0.35671621706E+03  0.25500000000E-02 0. -1.
         -2   -1    0    0    0  501 -0.00000000000E+00 -0.00000000000E+00 -0.11553940304E+03  0.11553940307E+03  0.25500000000E-02 0.  1.
    5000001    1    1    2    0    0 -0.12368415867E+02 -0.10687118222E+03  0.63425958641E+02  0.20693544773E+03  0.16500000000E+03 0.  0.
   -5000001    1    1    2    0    0  0.12368415867E+02  0.10687118222E+03  0.17775085537E+03  0.26532017240E+03  0.16500000000E+03 0.  0.
<mgrwt>
<rscale>  0 0.40602847E+03</rscale>
<asrwt>0</asrwt>
<pdfrwt beam="1">  1        2 0.50959459E-01 0.40602847E+03</pdfrwt>
<pdfrwt beam="2">  1       -2 0.16505629E-01 0.40602847E+03</pdfrwt>
<totfact> 0.28831095E+03</totfact>
</mgrwt>
</event>
<event>
 4    1  0.1025337E-004  0.8686362E+03  0.7818608E-02  0.9465660E-01
         -2   -1    0    0    0  501 -0.00000000000E+00  0.00000000000E+00  0.11946035467E+03  0.11946035469E+03  0.25500000000E-02 0. -1.
          2   -1    0    0  501    0  0.00000000000E+00 -0.00000000000E+00 -0.15790359287E+04  0.15790359287E+04  0.25500000000E-02 0.  1.
    5000001    1    1    2    0    0 -0.11979230535E+03 -0.37467725682E+03 -0.57004614731E+03  0.71197672242E+03  0.16500000000E+03 0.  0.
   -5000001    1    1    2    0    0  0.11979230535E+03  0.37467725682E+03 -0.88952942677E+03  0.98651956103E+03  0.16500000000E+03 0.  0.
<mgrwt>
<rscale>  0 0.86863615E+03</rscale>
<asrwt>0</asrwt>
<pdfrwt beam="1">  1        2 0.22557655E+00 0.86863615E+03</pdfrwt>
<pdfrwt beam="2">  1       -2 0.17065766E-01 0.86863615E+03</pdfrwt>
<totfact> 0.37496095E+02</totfact>
</mgrwt>
</event>
<event>
 4    1  0.1025337E-004  0.3887403E+03  0.7818608E-02  0.1047750E+00
         -2   -1    0    0    0  501 -0.00000000000E+00  0.00000000000E+00  0.45842601781E+02  0.45842601852E+02  0.25500000000E-02 0. -1.
          2   -1    0    0  501    0  0.00000000000E+00 -0.00000000000E+00 -0.82411912383E+03  0.82411912383E+03  0.25500000000E-02 0.  1.
    5000001    1    1    2    0    0 -0.65562566291E+02 -0.54470072751E+02 -0.51748770128E+03  0.54980356483E+03  0.16500000000E+03 0.  0.
   -5000001    1    1    2    0    0  0.65562566291E+02  0.54470072751E+02 -0.26078882077E+03  0.32015816085E+03  0.16500000000E+03 0.  0.
<mgrwt>
<rscale>  0 0.38874035E+03</rscale>
<asrwt>0</asrwt>
<pdfrwt beam="1">  1        2 0.11773129E+00 0.38874035E+03</pdfrwt>
<pdfrwt beam="2">  1       -2 0.65489437E-02 0.38874035E+03</pdfrwt>
<totfact> 0.48837866E+03</totfact>
</mgrwt>
</event>
<event>
 4    1  0.1025337E-004  0.1166686E+04  0.7818608E-02  0.9142527E-01
          2   -1    0    0  501    0  0.00000000000E+00  0.00000000000E+00  0.57160041467E+03  0.57160041467E+03  0.25500000000E-02 0.  1.
         -2   -1    0    0    0  501 -0.00000000000E+00 -0.00000000000E+00 -0.59532637221E+03  0.59532637222E+03  0.25500000000E-02 0. -1.
    5000001    1    1    2    0    0 -0.28846883957E+03 -0.34361058040E+03 -0.34626920969E+03  0.59026254154E+03  0.16500000000E+03 0.  0.
   -5000001    1    1    2    0    0  0.28846883957E+03  0.34361058040E+03  0.32254325214E+03  0.57666424535E+03  0.16500000000E+03 0.  0.
<mgrwt>
<rscale>  0 0.11666856E+04</rscale>
<asrwt>0</asrwt>
<pdfrwt beam="1">  1        2 0.81657203E-01 0.11666856E+04</pdfrwt>
<pdfrwt beam="2">  1       -2 0.85046624E-01 0.11666856E+04</pdfrwt>
<totfact> 0.68472617E+01</totfact>
</mgrwt>
</event>
<event>
 4    1  0.1025337E-004  0.8091059E+03  0.7818608E-02  0.9546929E-01
         -2   -1    0    0    0  501 -0.00000000000E+00  0.00000000000E+00  0.59031677515E+02  0.59031677570E+02  0.25500000000E-02 0. -1.
          2   -1    0    0  501    0  0.00000000000E+00 -0.00000000000E+00 -0.27724618663E+04  0.27724618663E+04  0.25500000000E-02 0.  1.
    5000001    1    1    2    0    0 -0.49353810378E+02  0.28084646273E+03 -0.53505057111E+03  0.62834277896E+03  0.16500000000E+03 0.  0.
   -5000001    1    1    2    0    0  0.49353810378E+02 -0.28084646273E+03 -0.21783796177E+04  0.22031507649E+04  0.16500000000E+03 0.  0.
<mgrwt>
<rscale>  0 0.80910586E+03</rscale>
<asrwt>0</asrwt>
<pdfrwt beam="1">  1        2 0.39606590E+00 0.80910586E+03</pdfrwt>
<pdfrwt beam="2">  1       -2 0.84330985E-02 0.80910586E+03</pdfrwt>
<totfact> 0.29475900E+02</totfact>
</mgrwt>
</event>
<event>
 4    1  0.1025337E-004  0.5539610E+03  0.7818608E-02  0.1000581E+00
          2   -1    0    0  501    0  0.00000000000E+00  0.00000000000E+00  0.14815070309E+04  0.14815070309E+04  0.25500000000E-02 0.  1.
         -2   -1    0    0    0  501 -0.00000000000E+00 -0.00000000000E+00 -0.51783899067E+02  0.51783899129E+02  0.25500000000E-02 0. -1.
    5000001    1    1    2    0    0 -0.11858411553E+02 -0.21255652188E+03  0.53607543953E+03  0.59993564137E+03  0.16500000000E+03 0.  0.
   -5000001    1    1    2    0    0  0.11858411553E+02  0.21255652188E+03  0.89364769229E+03  0.93335528865E+03  0.16500000000E+03 0.  0.
<mgrwt>
<rscale>  0 0.55396105E+03</rscale>
<asrwt>0</asrwt>
<pdfrwt beam="1">  1        2 0.21164389E+00 0.55396105E+03</pdfrwt>
<pdfrwt beam="2">  1       -2 0.73976987E-02 0.55396105E+03</pdfrwt>
<totfact> 0.16909779E+03</totfact>
</mgrwt>
</event>
<event>
 4    1  0.1025337E-004  0.4020280E+03  0.7818608E-02  0.1043080E+00
         -2   -1    0    0    0  501 -0.00000000000E+00  0.00000000000E+00  0.10934776486E+03  0.10934776489E+03  0.25500000000E-02 0. -1.
          2   -1    0    0  501    0  0.00000000000E+00 -0.00000000000E+00 -0.36952402128E+03  0.36952402128E+03  0.25500000000E-02 0.  1.
    5000001    1    1    2    0    0 -0.57148589066E+02  0.81818849928E+02 -0.62482746550E+02  0.20270515300E+03  0.16500000000E+03 0.  0.
   -5000001    1    1    2    0    0  0.57148589066E+02 -0.81818849928E+02 -0.19769350987E+03  0.27616663317E+03  0.16500000000E+03 0.  0.
<mgrwt>
<rscale>  0 0.40202799E+03</rscale>
<asrwt>0</asrwt>
<pdfrwt beam="1">  1        2 0.52789145E-01 0.40202799E+03</pdfrwt>
<pdfrwt beam="2">  1       -2 0.15621109E-01 0.40202799E+03</pdfrwt>
<totfact> 0.30425726E+03</totfact>
</mgrwt>
</event>
<event>
 4    1  0.1025337E-004  0.6377813E+03  0.7818608E-02  0.9829981E-01
         -2   -1    0    0    0  501 -0.00000000000E+00  0.00000000000E+00  0.52458027034E+03  0.52458027035E+03  0.25500000000E-02 0. -1.
          2   -1    0    0  501    0  0.00000000000E+00 -0.00000000000E+00 -0.19385259125E+03  0.19385259126E+03  0.25500000000E-02 0.  1.
    5000001    1    1    2    0    0 -0.69504342387E+01 -0.24617124646E+03  0.32950553814E+02  0.29826050714E+03  0.16500000000E+03 0.  0.
   -5000001    1    1    2    0    0  0.69504342387E+01  0.24617124646E+03  0.29777712529E+03  0.42017235447E+03  0.16500000000E+03 0.  0.
<mgrwt>
<rscale>  0 0.63778129E+03</rscale>
<asrwt>0</asrwt>
<pdfrwt beam="1">  1        2 0.27693228E-01 0.63778129E+03</pdfrwt>
<pdfrwt beam="2">  1       -2 0.74940037E-01 0.63778129E+03</pdfrwt>
<totfact> 0.31487048E+02</totfact>
</mgrwt>
</event>
<event>
 4    1  0.1025337E-004  0.3629832E+03  0.7818608E-02  0.1057409E+00
         -2   -1    0    0    0  501 -0.00000000000E+00  0.00000000000E+00  0.14205242771E+03  0.14205242774E+03  0.25500000000E-02 0. -1.
          2   -1    0    0  501    0  0.00000000000E+00 -0.00000000000E+00 -0.23188063504E+03  0.23188063505E+03  0.25500000000E-02 0.  1.
    5000001    1    1    2    0    0  0.53097505761E+01 -0.30050707956E+02 -0.11615937874E+03  0.20408145376E+03  0.16500000000E+03 0.  0.
   -5000001    1    1    2    0    0 -0.53097505761E+01  0.30050707956E+02  0.26331171420E+02  0.16985160902E+03  0.16500000000E+03 0.  0.
<mgrwt>
<rscale>  0 0.36298323E+03</rscale>
<asrwt>0</asrwt>
<pdfrwt beam="1">  1        2 0.33125805E-01 0.36298323E+03</pdfrwt>
<pdfrwt beam="2">  1       -2 0.20293204E-01 0.36298323E+03</pdfrwt>
<totfact> 0.32375080E+03</totfact>
</mgrwt>
</event>
<event>
 4    1  0.1025337E-004  0.5465516E+03  0.7818608E-02  0.1002295E+00
         -2   -1    0    0    0  501 -0.00000000000E+00  0.00000000000E+00  0.26418965373E+02  0.26418965496E+02  0.25500000000E-02 0. -1.
          2   -1    0    0  501    0  0.00000000000E+00 -0.00000000000E+00 -0.28267446330E+04  0.28267446331E+04  0.25500000000E-02 0.  1.
    5000001    1    1    2    0    0  0.93788877279E+02  0.16240231398E+03 -0.19787408401E+04  0.19944450801E+04  0.16500000000E+03 0.  0.
   -5000001    1    1    2    0    0 -0.93788877279E+02 -0.16240231398E+03 -0.82158482755E+03  0.85871851846E+03  0.16500000000E+03 0.  0.
<mgrwt>
<rscale>  0 0.54655162E+03</rscale>
<asrwt>0</asrwt>
<pdfrwt beam="1">  1        2 0.40382047E+00 0.54655162E+03</pdfrwt>
<pdfrwt beam="2">  1       -2 0.37741397E-02 0.54655162E+03</pdfrwt>
<totfact> 0.99403130E+02</totfact>
</mgrwt>
</event>
<event>
 4    1  0.1025337E-004  0.3657308E+03  0.7818608E-02  0.1056337E+00
         -2   -1    0    0    0  501 -0.00000000000E+00  0.00000000000E+00  0.30472457427E+02  0.30472457533E+02  0.25500000000E-02 0. -1.
          2   -1    0    0  501    0  0.00000000000E+00 -0.00000000000E+00 -0.10973763952E+04  0.10973763952E+04  0.25500000000E-02 0.  1.
    5000001    1    1    2    0    0 -0.59091462062E+02 -0.41101254834E+02 -0.63259777079E+03  0.65771274402E+03  0.16500000000E+03 0.  0.
   -5000001    1    1    2    0    0  0.59091462062E+02  0.41101254834E+02 -0.43430616696E+03  0.47013610869E+03  0.16500000000E+03 0.  0.
<mgrwt>
<rscale>  0 0.36573081E+03</rscale>
<asrwt>0</asrwt>
<pdfrwt beam="1">  1        2 0.15676803E+00 0.36573081E+03</pdfrwt>
<pdfrwt beam="2">  1       -2 0.43532089E-02 0.36573081E+03</pdfrwt>
<totfact> 0.62142699E+03</totfact>
</mgrwt>
</event>
<event>
 4    1  0.1025337E-004  0.7255401E+03  0.7818608E-02  0.9674525E-01
          2   -1    0    0  501    0  0.00000000000E+00  0.00000000000E+00  0.21580889166E+04  0.21580889166E+04  0.25500000000E-02 0.  1.
         -2   -1    0    0    0  501 -0.00000000000E+00 -0.00000000000E+00 -0.60980847880E+02  0.60980847934E+02  0.25500000000E-02 0. -1.
    5000001    1    1    2    0    0 -0.27403547535E+03 -0.14266740041E+03  0.75956693189E+03  0.83643072212E+03  0.16500000000E+03 0.  0.
   -5000001    1    1    2    0    0  0.27403547535E+03  0.14266740041E+03  0.13375411368E+04  0.13826390424E+04  0.16500000000E+03 0.  0.
<mgrwt>
<rscale>  0 0.72554005E+03</rscale>
<asrwt>0</asrwt>
<pdfrwt beam="1">  1        2 0.30829844E+00 0.72554005E+03</pdfrwt>
<pdfrwt beam="2">  1       -2 0.87115489E-02 0.72554005E+03</pdfrwt>
<totfact> 0.58497088E+02</totfact>
</mgrwt>
</event>
<event>
 4    1  0.1025337E-004  0.5534614E+03  0.7818608E-02  0.1000696E+00
         -2   -1    0    0    0  501 -0.00000000000E+00  0.00000000000E+00  0.33295011975E+02  0.33295012073E+02  0.25500000000E-02 0. -1.
          2   -1    0    0  501    0  0.00000000000E+00 -0.00000000000E+00 -0.23000408313E+04  0.23000408313E+04  0.25500000000E-02 0.  1.
    5000001    1    1    2    0    0  0.81140678868E+01  0.16880510183E+03 -0.52543709144E+03  0.57608171084E+03  0.16500000000E+03 0.  0.
   -5000001    1    1    2    0    0 -0.81140678868E+01 -0.16880510183E+03 -0.17413087279E+04  0.17572541325E+04  0.16500000000E+03 0.  0.
<mgrwt>
<rscale>  0 0.55346142E+03</rscale>
<asrwt>0</asrwt>
<pdfrwt beam="1">  1        2 0.32857716E+00 0.55346142E+03</pdfrwt>
<pdfrwt beam="2">  1       -2 0.47564317E-02 0.55346142E+03</pdfrwt>
<totfact> 0.13009423E+03</totfact>
</mgrwt>
</event>
<event>
 4    1  0.1025337E-004  0.4528287E+03  0.7818608E-02  0.1026882E+00
         -2   -1    0    0    0  501 -0.00000000000E+00  0.00000000000E+00  0.48151822573E+02  0.48151822641E+02  0.25500000000E-02 0. -1.
          2   -1    0    0  501    0  0.00000000000E+00 -0.00000000000E+00 -0.10646211825E+04  0.10646211825E+04  0.25500000000E-02 0.  1.
    5000001    1    1    2    0    0 -0.12200623615E+03 -0.24196141933E+02 -0.28077778733E+03  0.34861460210E+03  0.16500000000E+03 0.  0.
   -5000001    1    1    2    0    0  0.12200623615E+03  0.24196141933E+02 -0.73569157264E+03  0.76415840308E+03  0.16500000000E+03 0.  0.
<mgrwt>
<rscale>  0 0.45282867E+03</rscale>
<asrwt>0</asrwt>
<pdfrwt beam="1">  1        2 0.15208873E+00 0.45282867E+03</pdfrwt>
<pdfrwt beam="2">  1       -2 0.68788325E-02 0.45282867E+03</pdfrwt>
<totfact> 0.32099111E+03</totfact>
</mgrwt>
</event>
<event>
 4    1  0.1025337E-004  0.5903566E+03  0.7818608E-02  0.9925617E-01
          2   -1    0    0  501    0  0.00000000000E+00  0.00000000000E+00  0.61389537900E+03  0.61389537901E+03  0.25500000000E-02 0.  1.
         -2   -1    0    0    0  501 -0.00000000000E+00 -0.00000000000E+00 -0.14193010301E+03  0.14193010303E+03  0.25500000000E-02 0. -1.
    5000001    1    1    2    0    0 -0.17539208251E+03  0.17008998140E+03  0.25463487603E+03  0.38955988560E+03  0.16500000000E+03 0.  0.
   -5000001    1    1    2    0    0  0.17539208251E+03 -0.17008998140E+03  0.21733039997E+03  0.36626559644E+03  0.16500000000E+03 0.  0.
<mgrwt>
<rscale>  0 0.59035662E+03</rscale>
<asrwt>0</asrwt>
<pdfrwt beam="1">  1        2 0.87699340E-01 0.59035662E+03</pdfrwt>
<pdfrwt beam="2">  1       -2 0.20275729E-01 0.59035662E+03</pdfrwt>
<totfact> 0.11015393E+03</totfact>
</mgrwt>
</event>
<event>
 4    1  0.1025337E-004  0.8880692E+03  0.7818608E-02  0.9440620E-01
          2   -1    0    0  501    0  0.00000000000E+00  0.00000000000E+00  0.21588572195E+04  0.21588572195E+04  0.25500000000E-02 0.  1.
         -2   -1    0    0    0  501 -0.00000000000E+00 -0.00000000000E+00 -0.91329202627E+02  0.91329202663E+02  0.25500000000E-02 0. -1.
    5000001    1    1    2    0    0  0.35498736001E+03  0.83212300800E+02  0.54636935135E+03  0.67726271185E+03  0.16500000000E+03 0.  0.
   -5000001    1    1    2    0    0 -0.35498736001E+03 -0.83212300800E+02  0.15211586655E+04  0.15729237103E+04  0.16500000000E+03 0.  0.
<mgrwt>
<rscale>  0 0.88806916E+03</rscale>
<asrwt>0</asrwt>
<pdfrwt beam="1">  1        2 0.30840816E+00 0.88806916E+03</pdfrwt>
<pdfrwt beam="2">  1       -2 0.13047029E-01 0.88806916E+03</pdfrwt>
<totfact> 0.29809456E+02</totfact>
</mgrwt>
</event>
<event>
 4    1  0.1025337E-004  0.6160271E+03  0.7818608E-02  0.9872702E-01
         -2   -1    0    0    0  501 -0.00000000000E+00  0.00000000000E+00  0.82789199375E+02  0.82789199414E+02  0.25500000000E-02 0. -1.
          2   -1    0    0  501    0  0.00000000000E+00 -0.00000000000E+00 -0.11459508181E+04  0.11459508181E+04  0.25500000000E-02 0.  1.
    5000001    1    1    2    0    0 -0.15044456430E+03 -0.17468007691E+03 -0.29139133059E+03  0.40654717284E+03  0.16500000000E+03 0.  0.
   -5000001    1    1    2    0    0  0.15044456430E+03  0.17468007691E+03 -0.77177028810E+03  0.82219284465E+03  0.16500000000E+03 0.  0.
<mgrwt>
<rscale>  0 0.61602711E+03</rscale>
<asrwt>0</asrwt>
<pdfrwt beam="1">  1        2 0.16370725E+00 0.61602711E+03</pdfrwt>
<pdfrwt beam="2">  1       -2 0.11827029E-01 0.61602711E+03</pdfrwt>
<totfact> 0.12052914E+03</totfact>
</mgrwt>
</event>
<event>
 4    1  0.1025337E-004  0.4351447E+03  0.7818608E-02  0.1032247E+00
         -2   -1    0    0    0  501 -0.00000000000E+00  0.00000000000E+00  0.99952113329E+02  0.99952113362E+02  0.25500000000E-02 0. -1.
          2   -1    0    0  501    0  0.00000000000E+00 -0.00000000000E+00 -0.47360399783E+03  0.47360399784E+03  0.25500000000E-02 0.  1.
    5000001    1    1    2    0    0  0.57297345675E+02  0.93939517252E+02 -0.30475631567E+03  0.36360559768E+03  0.16500000000E+03 0.  0.
   -5000001    1    1    2    0    0 -0.57297345675E+02 -0.93939517252E+02 -0.68895568833E+02  0.20995051352E+03  0.16500000000E+03 0.  0.
<mgrwt>
<rscale>  0 0.43514467E+03</rscale>
<asrwt>0</asrwt>
<pdfrwt beam="1">  1        2 0.67657713E-01 0.43514467E+03</pdfrwt>
<pdfrwt beam="2">  1       -2 0.14278874E-01 0.43514467E+03</pdfrwt>
<totfact> 0.26913380E+03</totfact>
</mgrwt>
</event>
<event>
 4    1  0.1025337E-004  0.3801882E+03  0.7818608E-02  0.1050864E+00
          2   -1    0    0  501    0  0.00000000000E+00  0.00000000000E+00  0.63982164016E+02  0.63982164066E+02  0.25500000000E-02 0.  1.
         -2   -1    0    0    0  501 -0.00000000000E+00 -0.00000000000E+00 -0.56477869509E+03  0.56477869509E+03  0.25500000000E-02 0. -1.
    5000001    1    1    2    0    0 -0.29831963329E+02 -0.84675283644E+02 -0.20215579113E+03  0.27595618055E+03  0.16500000000E+03 0.  0.
   -5000001    1    1    2    0    0  0.29831963329E+02  0.84675283644E+02 -0.29864073993E+03  0.35280467860E+03  0.16500000000E+03 0.  0.
<mgrwt>
<rscale>  0 0.38018818E+03</rscale>
<asrwt>0</asrwt>
<pdfrwt beam="1">  1        2 0.91403095E-02 0.38018818E+03</pdfrwt>
<pdfrwt beam="2">  1       -2 0.80682668E-01 0.38018818E+03</pdfrwt>
<totfact> 0.10103402E+03</totfact>
</mgrwt>
</event>
<event>
 4    1  0.1025337E-004  0.4754611E+03  0.7818608E-02  0.1020390E+00
          2   -1    0    0  501    0  0.00000000000E+00  0.00000000000E+00  0.63102084971E+02  0.63102085022E+02  0.25500000000E-02 0.  1.
         -2   -1    0    0    0  501 -0.00000000000E+00 -0.00000000000E+00 -0.89562503315E+03  0.89562503315E+03  0.25500000000E-02 0. -1.
    5000001    1    1    2    0    0 -0.12624771703E+03  0.56435400637E+02 -0.61958343441E+03  0.65592078233E+03  0.16500000000E+03 0.  0.
   -5000001    1    1    2    0    0  0.12624771703E+03 -0.56435400637E+02 -0.21293951376E+03  0.30280633584E+03  0.16500000000E+03 0.  0.
<mgrwt>
<rscale>  0 0.47546107E+03</rscale>
<asrwt>0</asrwt>
<pdfrwt beam="1">  1        2 0.90145841E-02 0.47546107E+03</pdfrwt>
<pdfrwt beam="2">  1       -2 0.12794643E+00 0.47546107E+03</pdfrwt>
<totfact> 0.34763481E+02</totfact>
</mgrwt>
</event>
<event>
 4    1  0.1025337E-004  0.6906817E+03  0.7818608E-02  0.9733302E-01
         -2   -1    0    0    0  501 -0.00000000000E+00  0.00000000000E+00  0.10317652331E+03  0.10317652335E+03  0.25500000000E-02 0. -1.
          2   -1    0    0  501    0  0.00000000000E+00 -0.00000000000E+00 -0.11558860485E+04  0.11558860485E+04  0.25500000000E-02 0.  1.
    5000001    1    1    2    0    0  0.82631019744E+02 -0.26971114238E+03 -0.32284455263E+03  0.45937521800E+03  0.16500000000E+03 0.  0.
   -5000001    1    1    2    0    0 -0.82631019744E+02  0.26971114238E+03 -0.72986497258E+03  0.79968735387E+03  0.16500000000E+03 0.  0.
<mgrwt>
<rscale>  0 0.69068170E+03</rscale>
<asrwt>0</asrwt>
<pdfrwt beam="1">  1        2 0.16512657E+00 0.69068170E+03</pdfrwt>
<pdfrwt beam="2">  1       -2 0.14739504E-01 0.69068170E+03</pdfrwt>
<totfact> 0.82272175E+02</totfact>
</mgrwt>
</event>
<event>
 4    1  0.1025337E-004  0.4649070E+03  0.7818608E-02  0.1023368E+00
         -2   -1    0    0    0  501 -0.00000000000E+00  0.00000000000E+00  0.27713521647E+02  0.27713521764E+02  0.25500000000E-02 0. -1.
          2   -1    0    0  501    0  0.00000000000E+00 -0.00000000000E+00 -0.19497564956E+04  0.19497564956E+04  0.25500000000E-02 0.  1.
    5000001    1    1    2    0    0  0.89318363954E+02  0.65772366737E+02 -0.44873208041E+03  0.49080470083E+03  0.16500000000E+03 0.  0.
   -5000001    1    1    2    0    0 -0.89318363954E+02 -0.65772366737E+02 -0.14733108936E+04  0.14866653166E+04  0.16500000000E+03 0.  0.
<mgrwt>
<rscale>  0 0.46490695E+03</rscale>
<asrwt>0</asrwt>
<pdfrwt beam="1">  1        2 0.27853656E+00 0.46490695E+03</pdfrwt>
<pdfrwt beam="2">  1       -2 0.39590758E-02 0.46490695E+03</pdfrwt>
<totfact> 0.25925483E+03</totfact>
</mgrwt>
</event>
<event>
 4    1  0.1025337E-004  0.1206070E+04  0.7818608E-02  0.9107560E-01
         -2   -1    0    0    0  501 -0.00000000000E+00  0.00000000000E+00  0.13570156893E+03  0.13570156896E+03  0.25500000000E-02 0. -1.
          2   -1    0    0  501    0  0.00000000000E+00 -0.00000000000E+00 -0.26797879929E+04  0.26797879929E+04  0.25500000000E-02 0.  1.
    5000001    1    1    2    0    0 -0.40228001246E+03  0.37465654971E+03 -0.84014361710E+03  0.10174787644E+04  0.16500000000E+03 0.  0.
   -5000001    1    1    2    0    0  0.40228001246E+03 -0.37465654971E+03 -0.17039428068E+04  0.17980107974E+04  0.16500000000E+03 0.  0.
<mgrwt>
<rscale>  0 0.12060704E+04</rscale>
<asrwt>0</asrwt>
<pdfrwt beam="1">  1        2 0.38282682E+00 0.12060704E+04</pdfrwt>
<pdfrwt beam="2">  1       -2 0.19385940E-01 0.12060704E+04</pdfrwt>
<totfact> 0.79271215E+01</totfact>
</mgrwt>
</event>
<event>
 4    1  0.1025337E-004  0.5886428E+03  0.7818608E-02  0.9929253E-01
         -2   -1    0    0    0  501 -0.00000000000E+00  0.00000000000E+00  0.45496827745E+02  0.45496827817E+02  0.25500000000E-02 0. -1.
          2   -1    0    0  501    0  0.00000000000E+00 -0.00000000000E+00 -0.19039808069E+04  0.19039808069E+04  0.25500000000E-02 0.  1.
    5000001    1    1    2    0    0  0.21612789196E+03 -0.79454168761E+01 -0.55711256850E+03  0.61997887812E+03  0.16500000000E+03 0.  0.
   -5000001    1    1    2    0    0 -0.21612789196E+03  0.79454168761E+01 -0.13013714106E+04  0.13294987566E+04  0.16500000000E+03 0.  0.
<mgrwt>
<rscale>  0 0.58864280E+03</rscale>
<asrwt>0</asrwt>
<pdfrwt beam="1">  1        2 0.27199721E+00 0.58864280E+03</pdfrwt>
<pdfrwt beam="2">  1       -2 0.64995480E-02 0.58864280E+03</pdfrwt>
<totfact> 0.12619500E+03</totfact>
</mgrwt>
</event>
<event>
 4    1  0.1025337E-004  0.4043643E+03  0.7818608E-02  0.1042279E+00
         -2   -1    0    0    0  501 -0.00000000000E+00  0.00000000000E+00  0.29524325106E+02  0.29524325216E+02  0.25500000000E-02 0. -1.
          2   -1    0    0  501    0  0.00000000000E+00 -0.00000000000E+00 -0.13845401458E+04  0.13845401458E+04  0.25500000000E-02 0.  1.
    5000001    1    1    2    0    0 -0.63358019489E+02 -0.94809688269E+02 -0.58838583208E+03  0.62163172620E+03  0.16500000000E+03 0.  0.
   -5000001    1    1    2    0    0  0.63358019489E+02  0.94809688269E+02 -0.76662998866E+03  0.79243274487E+03  0.16500000000E+03 0.  0.
<mgrwt>
<rscale>  0 0.40436426E+03</rscale>
<asrwt>0</asrwt>
<pdfrwt beam="1">  1        2 0.19779141E+00 0.40436426E+03</pdfrwt>
<pdfrwt beam="2">  1       -2 0.42177616E-02 0.40436426E+03</pdfrwt>
<totfact> 0.45531090E+03</totfact>
</mgrwt>
</event>
<event>
 4    1  0.1025337E-004  0.5947841E+03  0.7818608E-02  0.9916287E-01
         -2   -1    0    0    0  501 -0.00000000000E+00  0.00000000000E+00  0.11382280748E+03  0.11382280751E+03  0.25500000000E-02 0. -1.
          2   -1    0    0  501    0  0.00000000000E+00 -0.00000000000E+00 -0.77701514578E+03  0.77701514578E+03  0.25500000000E-02 0.  1.
    5000001    1    1    2    0    0  0.85807396739E+02 -0.15628728201E+03 -0.74661439860E+02  0.25414160316E+03  0.16500000000E+03 0.  0.
   -5000001    1    1    2    0    0 -0.85807396739E+02  0.15628728201E+03 -0.58853089844E+03  0.63669635013E+03  0.16500000000E+03 0.  0.
<mgrwt>
<rscale>  0 0.59478415E+03</rscale>
<asrwt>0</asrwt>
<pdfrwt beam="1">  1        2 0.11100216E+00 0.59478415E+03</pdfrwt>
<pdfrwt beam="2">  1       -2 0.16260401E-01 0.59478415E+03</pdfrwt>
<totfact> 0.12077955E+03</totfact>
</mgrwt>
</event>
<event>
 4    1  0.1025337E-004  0.4391871E+03  0.7818608E-02  0.1030997E+00
          2   -1    0    0  501    0  0.00000000000E+00  0.00000000000E+00  0.20689413346E+04  0.20689413346E+04  0.25500000000E-02 0.  1.
         -2   -1    0    0    0  501 -0.00000000000E+00 -0.00000000000E+00 -0.23307243705E+02  0.23307243845E+02  0.25500000000E-02 0. -1.
    5000001    1    1    2    0    0  0.12523108411E+03 -0.68244683473E+02  0.11448474961E+04  0.11654359487E+04  0.16500000000E+03 0.  0.
   -5000001    1    1    2    0    0 -0.12523108411E+03  0.68244683473E+02  0.90078659477E+03  0.92681262970E+03  0.16500000000E+03 0.  0.
<mgrwt>
<rscale>  0 0.43918707E+03</rscale>
<asrwt>0</asrwt>
<pdfrwt beam="1">  1        2 0.29556285E+00 0.43918707E+03</pdfrwt>
<pdfrwt beam="2">  1       -2 0.33296085E-02 0.43918707E+03</pdfrwt>
<totfact> 0.29454567E+03</totfact>
</mgrwt>
</event>
<event>
 4    1  0.1025337E-004  0.5136081E+03  0.7818608E-02  0.1010287E+00
          2   -1    0    0  501    0  0.00000000000E+00  0.00000000000E+00  0.11772606573E+04  0.11772606573E+04  0.25500000000E-02 0.  1.
         -2   -1    0    0    0  501 -0.00000000000E+00 -0.00000000000E+00 -0.56018459705E+02  0.56018459763E+02  0.25500000000E-02 0. -1.
    5000001    1    1    2    0    0 -0.84255474854E+02  0.65961831343E+01  0.13390278440E+03  0.22868635802E+03  0.16500000000E+03 0.  0.
   -5000001    1    1    2    0    0  0.84255474854E+02 -0.65961831343E+01  0.98733941321E+03  0.10045927591E+04  0.16500000000E+03 0.  0.
<mgrwt>
<rscale>  0 0.51360813E+03</rscale>
<asrwt>0</asrwt>
<pdfrwt beam="1">  1        2 0.16818008E+00 0.51360813E+03</pdfrwt>
<pdfrwt beam="2">  1       -2 0.80026380E-02 0.51360813E+03</pdfrwt>
<totfact> 0.21791192E+03</totfact>
</mgrwt>
</event>
<event>
 4    1  0.1025337E-004  0.4426145E+03  0.7818608E-02  0.1029948E+00
         -2   -1    0    0    0  501 -0.00000000000E+00  0.00000000000E+00  0.40580030760E+02  0.40580030840E+02  0.25500000000E-02 0. -1.
          2   -1    0    0  501    0  0.00000000000E+00 -0.00000000000E+00 -0.12069213459E+04  0.12069213459E+04  0.25500000000E-02 0.  1.
    5000001    1    1    2    0    0 -0.10865817701E+03 -0.87743392139E+02 -0.44958519085E+03  0.49885603747E+03  0.16500000000E+03 0.  0.
   -5000001    1    1    2    0    0  0.10865817701E+03  0.87743392139E+02 -0.71675612428E+03  0.74864533926E+03  0.16500000000E+03 0.  0.
<mgrwt>
<rscale>  0 0.44261453E+03</rscale>
<asrwt>0</asrwt>
<pdfrwt beam="1">  1        2 0.17241731E+00 0.44261453E+03</pdfrwt>
<pdfrwt beam="2">  1       -2 0.57971480E-02 0.44261453E+03</pdfrwt>
<totfact> 0.34799971E+03</totfact>
</mgrwt>
</event>
<event>
 4    1  0.1025337E-004  0.6150256E+03  0.7818608E-02  0.9874714E-01
          2   -1    0    0  501    0  0.00000000000E+00  0.00000000000E+00  0.24045615632E+04  0.24045615632E+04  0.25500000000E-02 0.  1.
         -2   -1    0    0    0  501 -0.00000000000E+00 -0.00000000000E+00 -0.39326967891E+02  0.39326967973E+02  0.25500000000E-02 0. -1.
    5000001    1    1    2    0    0 -0.19266355880E+03  0.73637184022E+02  0.55688065969E+03  0.61634629138E+03  0.16500000000E+03 0.  0.
   -5000001    1    1    2    0    0  0.19266355880E+03 -0.73637184022E+02  0.18083539356E+04  0.18275422398E+04  0.16500000000E+03 0.  0.
<mgrwt>
<rscale>  0 0.61502558E+03</rscale>
<asrwt>0</asrwt>
<pdfrwt beam="1">  1        2 0.34350872E+00 0.61502558E+03</pdfrwt>
<pdfrwt beam="2">  1       -2 0.56181395E-02 0.61502558E+03</pdfrwt>
<totfact> 0.88542965E+02</totfact>
</mgrwt>
</event>
<event>
 4    1  0.1025337E-004  0.4180570E+03  0.7818608E-02  0.1037701E+00
         -2   -1    0    0    0  501 -0.00000000000E+00  0.00000000000E+00  0.38827221764E+02  0.38827221848E+02  0.25500000000E-02 0. -1.
          2   -1    0    0  501    0  0.00000000000E+00 -0.00000000000E+00 -0.11253165561E+04  0.11253165561E+04  0.25500000000E-02 0.  1.
    5000001    1    1    2    0    0 -0.67137086427E+02  0.49677266680E+02 -0.81455473317E+03  0.83528416275E+03  0.16500000000E+03 0.  0.
   -5000001    1    1    2    0    0  0.67137086427E+02 -0.49677266680E+02 -0.27193460112E+03  0.32885961517E+03  0.16500000000E+03 0.  0.
<mgrwt>
<rscale>  0 0.41805701E+03</rscale>
<asrwt>0</asrwt>
<pdfrwt beam="1">  1        2 0.16075949E+00 0.41805701E+03</pdfrwt>
<pdfrwt beam="2">  1       -2 0.55467467E-02 0.41805701E+03</pdfrwt>
<totfact> 0.41383908E+03</totfact>
</mgrwt>
</event>
<event>
 4    1  0.1025337E-004  0.3894879E+03  0.7818608E-02  0.1047482E+00
         -2   -1    0    0    0  501 -0.00000000000E+00  0.00000000000E+00  0.36046953599E+02  0.36046953689E+02  0.25500000000E-02 0. -1.
          2   -1    0    0  501    0  0.00000000000E+00 -0.00000000000E+00 -0.10521055339E+04  0.10521055339E+04  0.25500000000E-02 0.  1.
    5000001    1    1    2    0    0  0.38009919897E+02  0.28857478049E+01 -0.23937175644E+03  0.29321821112E+03  0.16500000000E+03 0.  0.
   -5000001    1    1    2    0    0 -0.38009919897E+02 -0.28857478049E+01 -0.77668682388E+03  0.79493427649E+03  0.16500000000E+03 0.  0.
<mgrwt>
<rscale>  0 0.38948787E+03</rscale>
<asrwt>0</asrwt>
<pdfrwt beam="1">  1        2 0.15030077E+00 0.38948787E+03</pdfrwt>
<pdfrwt beam="2">  1       -2 0.51495655E-02 0.38948787E+03</pdfrwt>
<totfact> 0.51093308E+03</totfact>
</mgrwt>
</event>
<event>
 4    1  0.1025337E-004  0.6733615E+03  0.7818608E-02  0.9763904E-01
          2   -1    0    0  501    0  0.00000000000E+00  0.00000000000E+00  0.19630000643E+04  0.19630000643E+04  0.25500000000E-02 0.  1.
         -2   -1    0    0    0  501 -0.00000000000E+00 -0.00000000000E+00 -0.57745243077E+02  0.57745243134E+02  0.25500000000E-02 0. -1.
    5000001    1    1    2    0    0 -0.22467011468E+03  0.86771737631E+02  0.14558887084E+04  0.14848713500E+04  0.16500000000E+03 0.  0.
   -5000001    1    1    2    0    0  0.22467011468E+03 -0.86771737631E+02  0.44936611284E+03  0.53587395743E+03  0.16500000000E+03 0.  0.
<mgrwt>
<rscale>  0 0.67336147E+03</rscale>
<asrwt>0</asrwt>
<pdfrwt beam="1">  1        2 0.28042861E+00 0.67336147E+03</pdfrwt>
<pdfrwt beam="2">  1       -2 0.82493197E-02 0.67336147E+03</pdfrwt>
<totfact> 0.80367851E+02</totfact>
</mgrwt>
</event>
<event>
 4    1  0.1025337E-004  0.5847068E+03  0.7818608E-02  0.9937653E-01
          2   -1    0    0  501    0  0.00000000000E+00  0.00000000000E+00  0.97918662995E+03  0.97918662996E+03  0.25500000000E-02 0.  1.
         -2   -1    0    0    0  501 -0.00000000000E+00 -0.00000000000E+00 -0.87287253188E+02  0.87287253226E+02  0.25500000000E-02 0. -1.
    5000001    1    1    2    0    0 -0.20731799879E+03  0.16996235792E+02  0.22274241103E+03  0.34656717433E+03  0.16500000000E+03 0.  0.
   -5000001    1    1    2    0    0  0.20731799879E+03 -0.16996235792E+02  0.66915696574E+03  0.71990670885E+03  0.16500000000E+03 0.  0.
<mgrwt>
<rscale>  0 0.58470680E+03</rscale>
<asrwt>0</asrwt>
<pdfrwt beam="1">  1        2 0.13988380E+00 0.58470680E+03</pdfrwt>
<pdfrwt beam="2">  1       -2 0.12469608E-01 0.58470680E+03</pdfrwt>
<totfact> 0.13876361E+03</totfact>
</mgrwt>
</event>
<event>
 4    1  0.1025337E-004  0.5190969E+03  0.7818608E-02  0.1008911E+00
          2   -1    0    0  501    0  0.00000000000E+00  0.00000000000E+00  0.14767151526E+04  0.14767151526E+04  0.25500000000E-02 0.  1.
         -2   -1    0    0    0  501 -0.00000000000E+00 -0.00000000000E+00 -0.45618413518E+02  0.45618413590E+02  0.25500000000E-02 0. -1.
    5000001    1    1    2    0    0 -0.12603842908E+03 -0.81231838180E+02  0.11052290092E+04  0.11274929977E+04  0.16500000000E+03 0.  0.
   -5000001    1    1    2    0    0  0.12603842908E+03  0.81231838180E+02  0.32586772995E+03  0.39484056854E+03  0.16500000000E+03 0.  0.
<mgrwt>
<rscale>  0 0.51909692E+03</rscale>
<asrwt>0</asrwt>
<pdfrwt beam="1">  1        2 0.21095932E+00 0.51909692E+03</pdfrwt>
<pdfrwt beam="2">  1       -2 0.65169159E-02 0.51909692E+03</pdfrwt>
<totfact> 0.20786106E+03</totfact>
</mgrwt>
</event>
<event>
 4    1  0.1025337E-004  0.5124630E+03  0.7818608E-02  0.1010576E+00
         -2   -1    0    0    0  501 -0.00000000000E+00  0.00000000000E+00  0.18148341532E+03  0.18148341534E+03  0.25500000000E-02 0. -1.
          2   -1    0    0  501    0  0.00000000000E+00 -0.00000000000E+00 -0.36176629225E+03  0.36176629226E+03  0.25500000000E-02 0.  1.
    5000001    1    1    2    0    0  0.11297601680E+03  0.64081990979E+02  0.65511143815E+02  0.21996997955E+03  0.16500000000E+03 0.  0.
   -5000001    1    1    2    0    0 -0.11297601680E+03 -0.64081990979E+02 -0.24579402074E+03  0.32327972806E+03  0.16500000000E+03 0.  0.
<mgrwt>
<rscale>  0 0.51246300E+03</rscale>
<asrwt>0</asrwt>
<pdfrwt beam="1">  1        2 0.51680899E-01 0.51246300E+03</pdfrwt>
<pdfrwt beam="2">  1       -2 0.25926202E-01 0.51246300E+03</pdfrwt>
<totfact> 0.12967211E+03</totfact>
</mgrwt>
</event>
<event>
 4    1  0.1025337E-004  0.3712886E+03  0.7818608E-02  0.1054201E+00
         -2   -1    0    0    0  501 -0.00000000000E+00  0.00000000000E+00  0.17243569102E+02  0.17243569290E+02  0.25500000000E-02 0. -1.
          2   -1    0    0  501    0  0.00000000000E+00 -0.00000000000E+00 -0.19986470065E+04  0.19986470065E+04  0.25500000000E-02 0.  1.
    5000001    1    1    2    0    0 -0.74769756937E+02  0.11731467564E+02 -0.77967410950E+03  0.80052786392E+03  0.16500000000E+03 0.  0.
   -5000001    1    1    2    0    0  0.74769756937E+02 -0.11731467564E+02 -0.12017293279E+04  0.12153627119E+04  0.16500000000E+03 0.  0.
<mgrwt>
<rscale>  0 0.37128861E+03</rscale>
<asrwt>0</asrwt>
<pdfrwt beam="1">  1        2 0.28552085E+00 0.37128861E+03</pdfrwt>
<pdfrwt beam="2">  1       -2 0.24633683E-02 0.37128861E+03</pdfrwt>
<totfact> 0.50262945E+03</totfact>
</mgrwt>
</event>
<event>
 4    1  0.1025337E-004  0.6021613E+03  0.7818608E-02  0.9900932E-01
          2   -1    0    0  501    0  0.00000000000E+00  0.00000000000E+00  0.31393418941E+04  0.31393418941E+04  0.25500000000E-02 0.  1.
         -2   -1    0    0    0  501 -0.00000000000E+00 -0.00000000000E+00 -0.28875335372E+02  0.28875335485E+02  0.25500000000E-02 0. -1.
    5000001    1    1    2    0    0 -0.29398524084E+02 -0.17069631542E+03  0.25171226713E+04  0.25284645633E+04  0.16500000000E+03 0.  0.
   -5000001    1    1    2    0    0  0.29398524084E+02  0.17069631542E+03  0.59334388743E+03  0.63975266632E+03  0.16500000000E+03 0.  0.
<mgrwt>
<rscale>  0 0.60216127E+03</rscale>
<asrwt>0</asrwt>
<pdfrwt beam="1">  1        2 0.44847701E+00 0.60216127E+03</pdfrwt>
<pdfrwt beam="2">  1       -2 0.41250517E-02 0.60216127E+03</pdfrwt>
<totfact> 0.58395378E+02</totfact>
</mgrwt>
</event>
<event>
 4    1  0.1025337E-004  0.1174069E+04  0.7818608E-02  0.9135862E-01
          2   -1    0    0  501    0  0.00000000000E+00  0.00000000000E+00  0.10886164723E+04  0.10886164723E+04  0.25500000000E-02 0.  1.
         -2   -1    0    0    0  501 -0.00000000000E+00 -0.00000000000E+00 -0.31655729780E+03  0.31655729781E+03  0.25500000000E-02 0. -1.
    5000001    1    1    2    0    0  0.40003870357E+03 -0.36001570984E+03  0.58537533437E+03  0.81211548303E+03  0.16500000000E+03 0.  0.
   -5000001    1    1    2    0    0 -0.40003870357E+03  0.36001570984E+03  0.18668384010E+03  0.59305828705E+03  0.16500000000E+03 0.  0.
<mgrwt>
<rscale>  0 0.11740690E+04</rscale>
<asrwt>0</asrwt>
<pdfrwt beam="1">  1        2 0.15551664E+00 0.11740690E+04</pdfrwt>
<pdfrwt beam="2">  1       -2 0.45222470E-01 0.11740690E+04</pdfrwt>
<totfact> 0.11368378E+02</totfact>
</mgrwt>
</event>
<event>
 4    1  0.1025337E-004  0.4211556E+03  0.7818608E-02  0.1036691E+00
          2   -1    0    0  501    0  0.00000000000E+00  0.00000000000E+00  0.17796377989E+04  0.17796377989E+04  0.25500000000E-02 0.  1.
         -2   -1    0    0    0  501 -0.00000000000E+00 -0.00000000000E+00 -0.24916874676E+02  0.24916874807E+02  0.25500000000E-02 0. -1.
    5000001    1    1    2    0    0  0.26913788680E+01 -0.12281090729E+03  0.10703297344E+04  0.10899176587E+04  0.16500000000E+03 0.  0.
   -5000001    1    1    2    0    0 -0.26913788680E+01  0.12281090729E+03  0.68439118985E+03  0.71463701501E+03  0.16500000000E+03 0.  0.
<mgrwt>
<rscale>  0 0.42115561E+03</rscale>
<asrwt>0</asrwt>
<pdfrwt beam="1">  1        2 0.25423402E+00 0.42115561E+03</pdfrwt>
<pdfrwt beam="2">  1       -2 0.35595528E-02 0.42115561E+03</pdfrwt>
<totfact> 0.37082002E+03</totfact>
</mgrwt>
</event>
<event>
 4    1  0.1025337E-004  0.4987194E+03  0.7818608E-02  0.1014114E+00
         -2   -1    0    0    0  501 -0.00000000000E+00  0.00000000000E+00  0.79767730299E+02  0.79767730340E+02  0.25500000000E-02 0. -1.
          2   -1    0    0  501    0  0.00000000000E+00 -0.00000000000E+00 -0.77951638602E+03  0.77951638602E+03  0.25500000000E-02 0.  1.
    5000001    1    1    2    0    0 -0.92960344082E+02  0.16099236656E+03 -0.38412159547E+03  0.45753094733E+03  0.16500000000E+03 0.  0.
   -5000001    1    1    2    0    0  0.92960344082E+02 -0.16099236656E+03 -0.31562706025E+03  0.40175316903E+03  0.16500000000E+03 0.  0.
<mgrwt>
<rscale>  0 0.49871937E+03</rscale>
<asrwt>0</asrwt>
<pdfrwt beam="1">  1        2 0.11135948E+00 0.49871937E+03</pdfrwt>
<pdfrwt beam="2">  1       -2 0.11395390E-01 0.49871937E+03</pdfrwt>
<totfact> 0.21744827E+03</totfact>
</mgrwt>
</event>
<event>
 4    1  0.1025337E-004  0.1070705E+04  0.7818608E-02  0.9234224E-01
         -2   -1    0    0    0  501 -0.00000000000E+00  0.00000000000E+00  0.27279935515E+03  0.27279935516E+03  0.25500000000E-02 0. -1.
          2   -1    0    0  501    0  0.00000000000E+00 -0.00000000000E+00 -0.10505983226E+04  0.10505983226E+04  0.25500000000E-02 0.  1.
    5000001    1    1    2    0    0  0.21142339846E+03  0.45671567527E+03 -0.48534341769E+03  0.71838171925E+03  0.16500000000E+03 0.  0.
   -5000001    1    1    2    0    0 -0.21142339846E+03 -0.45671567527E+03 -0.29245554974E+03  0.60501595849E+03  0.16500000000E+03 0.  0.
<mgrwt>
<rscale>  0 0.10707055E+04</rscale>
<asrwt>0</asrwt>
<pdfrwt beam="1">  1        2 0.15008547E+00 0.10707055E+04</pdfrwt>
<pdfrwt beam="2">  1       -2 0.38971337E-01 0.10707055E+04</pdfrwt>
<totfact> 0.16163748E+02</totfact>
</mgrwt>
</event>
<event>
 4    1  0.1025337E-004  0.5442648E+03  0.7818608E-02  0.1002830E+00
         -2   -1    0    0    0  501 -0.00000000000E+00  0.00000000000E+00  0.13733794799E+03  0.13733794802E+03  0.25500000000E-02 0. -1.
          2   -1    0    0  501    0  0.00000000000E+00 -0.00000000000E+00 -0.53922488628E+03  0.53922488628E+03  0.25500000000E-02 0.  1.
    5000001    1    1    2    0    0  0.96480593325E+02 -0.17267770518E+03 -0.31005801812E+03  0.40309684860E+03  0.16500000000E+03 0.  0.
   -5000001    1    1    2    0    0 -0.96480593325E+02  0.17267770518E+03 -0.91828920166E+02  0.27346598570E+03  0.16500000000E+03 0.  0.
<mgrwt>
<rscale>  0 0.54426479E+03</rscale>
<asrwt>0</asrwt>
<pdfrwt beam="1">  1        2 0.77032126E-01 0.54426479E+03</pdfrwt>
<pdfrwt beam="2">  1       -2 0.19619707E-01 0.54426479E+03</pdfrwt>
<totfact> 0.13569519E+03</totfact>
</mgrwt>
</event>
<event>
 4    1  0.1025337E-004  0.5497009E+03  0.7818608E-02  0.1001563E+00
          2   -1    0    0  501    0  0.00000000000E+00  0.00000000000E+00  0.10018153905E+04  0.10018153905E+04  0.25500000000E-02 0.  1.
         -2   -1    0    0    0  501 -0.00000000000E+00 -0.00000000000E+00 -0.75405868107E+02  0.75405868150E+02  0.25500000000E-02 0. -1.
    5000001    1    1    2    0    0 -0.43595378077E+02  0.20680658561E+03  0.58156888902E+03  0.64040369574E+03  0.16500000000E+03 0.  0.
   -5000001    1    1    2    0    0  0.43595378077E+02 -0.20680658561E+03  0.34484063335E+03  0.43681756289E+03  0.16500000000E+03 0.  0.
<mgrwt>
<rscale>  0 0.54970086E+03</rscale>
<asrwt>0</asrwt>
<pdfrwt beam="1">  1        2 0.14311648E+00 0.54970086E+03</pdfrwt>
<pdfrwt beam="2">  1       -2 0.10772267E-01 0.54970086E+03</pdfrwt>
<totfact> 0.17093536E+03</totfact>
</mgrwt>
</event>
<event>
 4    1  0.1025337E-004  0.6306573E+03  0.7818608E-02  0.9843767E-01
          2   -1    0    0  501    0  0.00000000000E+00  0.00000000000E+00  0.96330652671E+03  0.96330652671E+03  0.25500000000E-02 0.  1.
         -2   -1    0    0    0  501 -0.00000000000E+00 -0.00000000000E+00 -0.10321965464E+03  0.10321965467E+03  0.25500000000E-02 0. -1.
    5000001    1    1    2    0    0  0.10883348874E+03 -0.24331452990E+03  0.37243360754E+03  0.48680435573E+03  0.16500000000E+03 0.  0.
   -5000001    1    1    2    0    0 -0.10883348874E+03  0.24331452990E+03  0.48765326453E+03  0.57972182565E+03  0.16500000000E+03 0.  0.
<mgrwt>
<rscale>  0 0.63065733E+03</rscale>
<asrwt>0</asrwt>
<pdfrwt beam="1">  1        2 0.13761521E+00 0.63065733E+03</pdfrwt>
<pdfrwt beam="2">  1       -2 0.14745666E-01 0.63065733E+03</pdfrwt>
<totfact> 0.10723586E+03</totfact>
</mgrwt>
</event>
<event>
 4    1  0.1025337E-004  0.4908366E+03  0.7818608E-02  0.1016199E+00
          2   -1    0    0  501    0  0.00000000000E+00  0.00000000000E+00  0.57502466437E+03  0.57502466437E+03  0.25500000000E-02 0.  1.
         -2   -1    0    0    0  501 -0.00000000000E+00 -0.00000000000E+00 -0.10474357080E+03  0.10474357083E+03  0.25500000000E-02 0. -1.
    5000001    1    1    2    0    0  0.12937866388E+03  0.10653909550E+03  0.33224015477E+03  0.40706011593E+03  0.16500000000E+03 0.  0.
   -5000001    1    1    2    0    0 -0.12937866388E+03 -0.10653909550E+03  0.13804093879E+03  0.27270811928E+03  0.16500000000E+03 0.  0.
<mgrwt>
<rscale>  0 0.49083658E+03</rscale>
<asrwt>0</asrwt>
<pdfrwt beam="1">  1        2 0.82146382E-01 0.49083658E+03</pdfrwt>
<pdfrwt beam="2">  1       -2 0.14963367E-01 0.49083658E+03</pdfrwt>
<totfact> 0.19986566E+03</totfact>
</mgrwt>
</event>
<event>
 4    1  0.1025337E-004  0.5564813E+03  0.7818608E-02  0.1000005E+00
          2   -1    0    0  501    0  0.00000000000E+00  0.00000000000E+00  0.11727284530E+03  0.11727284533E+03  0.25500000000E-02 0.  1.
         -2   -1    0    0    0  501 -0.00000000000E+00 -0.00000000000E+00 -0.66015159605E+03  0.66015159605E+03  0.25500000000E-02 0. -1.
    5000001    1    1    2    0    0  0.16506318612E+03  0.11422270911E+03 -0.41044392776E+03  0.48577968311E+03  0.16500000000E+03 0.  0.
   -5000001    1    1    2    0    0 -0.16506318612E+03 -0.11422270911E+03 -0.13243482299E+03  0.29164475827E+03  0.16500000000E+03 0.  0.
<mgrwt>
<rscale>  0 0.55648129E+03</rscale>
<asrwt>0</asrwt>
<pdfrwt beam="1">  1        2 0.16753264E-01 0.55648129E+03</pdfrwt>
<pdfrwt beam="2">  1       -2 0.94307369E-01 0.55648129E+03</pdfrwt>
<totfact> 0.33627725E+02</totfact>
</mgrwt>
</event>
<event>
 4    1  0.1025337E-004  0.4369227E+03  0.7818608E-02  0.1031695E+00
         -2   -1    0    0    0  501 -0.00000000000E+00  0.00000000000E+00  0.21232998077E+03  0.21232998078E+03  0.25500000000E-02 0. -1.
          2   -1    0    0  501    0  0.00000000000E+00 -0.00000000000E+00 -0.22476978766E+03  0.22476978768E+03  0.25500000000E-02 0.  1.
    5000001    1    1    2    0    0  0.12758216996E+03  0.64627028608E+02 -0.13041888127E+02  0.21874403710E+03  0.16500000000E+03 0.  0.
   -5000001    1    1    2    0    0 -0.12758216996E+03 -0.64627028608E+02  0.60208123206E+00  0.21835573137E+03  0.16500000000E+03 0.  0.
<mgrwt>
<rscale>  0 0.43692271E+03</rscale>
<asrwt>0</asrwt>
<pdfrwt beam="1">  1        2 0.32109969E-01 0.43692271E+03</pdfrwt>
<pdfrwt beam="2">  1       -2 0.30332855E-01 0.43692271E+03</pdfrwt>
<totfact> 0.16436976E+03</totfact>
</mgrwt>
</event>
<event>
 4    1  0.1025337E-004  0.1400273E+04  0.7818608E-02  0.8953621E-01
         -2   -1    0    0    0  501 -0.00000000000E+00  0.00000000000E+00  0.10700316414E+03  0.10700316417E+03  0.25500000000E-02 0. -1.
          2   -1    0    0  501    0  0.00000000000E+00 -0.00000000000E+00 -0.45810869636E+04  0.45810869636E+04  0.25500000000E-02 0.  1.
    5000001    1    1    2    0    0  0.52776957310E+03 -0.41952579899E+03 -0.19297709710E+04  0.20508007262E+04  0.16500000000E+03 0.  0.
   -5000001    1    1    2    0    0 -0.52776957310E+03  0.41952579899E+03 -0.25443128285E+04  0.26372894016E+04  0.16500000000E+03 0.  0.
<mgrwt>
<rscale>  0 0.14002725E+04</rscale>
<asrwt>0</asrwt>
<pdfrwt beam="1">  1        2 0.65444087E+00 0.14002725E+04</pdfrwt>
<pdfrwt beam="2">  1       -2 0.15286169E-01 0.14002725E+04</pdfrwt>
<totfact> 0.71611804E+00</totfact>
</mgrwt>
</event>
<event>
 4    1  0.1025337E-004  0.8841610E+03  0.7818608E-02  0.9445600E-01
         -2   -1    0    0    0  501 -0.00000000000E+00  0.00000000000E+00  0.41397283569E+03  0.41397283569E+03  0.25500000000E-02 0. -1.
          2   -1    0    0  501    0  0.00000000000E+00 -0.00000000000E+00 -0.47209657355E+03  0.47209657355E+03  0.25500000000E-02 0.  1.
    5000001    1    1    2    0    0  0.22220475905E+03 -0.32060590238E+03 -0.15601227904E+03  0.45136230547E+03  0.16500000000E+03 0.  0.
   -5000001    1    1    2    0    0 -0.22220475905E+03  0.32060590238E+03  0.97888541178E+02  0.43470710378E+03  0.16500000000E+03 0.  0.
<mgrwt>
<rscale>  0 0.88416097E+03</rscale>
<asrwt>0</asrwt>
<pdfrwt beam="1">  1        2 0.67442368E-01 0.88416097E+03</pdfrwt>
<pdfrwt beam="2">  1       -2 0.59138977E-01 0.88416097E+03</pdfrwt>
<totfact> 0.19227362E+02</totfact>
</mgrwt>
</event>
<event>
 4    1  0.1025337E-004  0.7584426E+03  0.7818608E-02  0.9622198E-01
         -2   -1    0    0    0  501 -0.00000000000E+00  0.00000000000E+00  0.95006882122E+02  0.95006882157E+02  0.25500000000E-02 0. -1.
          2   -1    0    0  501    0  0.00000000000E+00 -0.00000000000E+00 -0.15136669933E+04  0.15136669933E+04  0.25500000000E-02 0.  1.
    5000001    1    1    2    0    0 -0.29424149787E+03 -0.74769061370E+02 -0.37791179656E+03  0.51206522786E+03  0.16500000000E+03 0.  0.
   -5000001    1    1    2    0    0  0.29424149787E+03  0.74769061370E+02 -0.10407483146E+04  0.10966086475E+04  0.16500000000E+03 0.  0.
<mgrwt>
<rscale>  0 0.75844257E+03</rscale>
<asrwt>0</asrwt>
<pdfrwt beam="1">  1        2 0.21623813E+00 0.75844257E+03</pdfrwt>
<pdfrwt beam="2">  1       -2 0.13572413E-01 0.75844257E+03</pdfrwt>
<totfact> 0.60168819E+02</totfact>
</mgrwt>
</event>
<event>
 4    1  0.1025337E-004  0.1031510E+04  0.7818608E-02  0.9274645E-01
          2   -1    0    0  501    0  0.00000000000E+00  0.00000000000E+00  0.26350498619E+04  0.26350498619E+04  0.25500000000E-02 0.  1.
         -2   -1    0    0    0  501 -0.00000000000E+00 -0.00000000000E+00 -0.10094810462E+03  0.10094810465E+03  0.25500000000E-02 0. -1.
    5000001    1    1    2    0    0 -0.12736153621E+02 -0.46234343583E+03  0.84888759680E+03  0.98069302754E+03  0.16500000000E+03 0.  0.
   -5000001    1    1    2    0    0  0.12736153621E+02  0.46234343583E+03  0.16852141605E+04  0.17553049390E+04  0.16500000000E+03 0.  0.
<mgrwt>
<rscale>  0 0.10315101E+04</rscale>
<asrwt>0</asrwt>
<pdfrwt beam="1">  1        2 0.37643576E+00 0.10315101E+04</pdfrwt>
<pdfrwt beam="2">  1       -2 0.14421155E-01 0.10315101E+04</pdfrwt>
<totfact> 0.14130365E+02</totfact>
</mgrwt>
</event>
<event>
 4    1  0.1025337E-004  0.3899339E+03  0.7818608E-02  0.1047322E+00
         -2   -1    0    0    0  501 -0.00000000000E+00  0.00000000000E+00  0.11179791638E+03  0.11179791641E+03  0.25500000000E-02 0. -1.
          2   -1    0    0  501    0  0.00000000000E+00 -0.00000000000E+00 -0.34000726260E+03  0.34000726261E+03  0.25500000000E-02 0.  1.
    5000001    1    1    2    0    0  0.92345838163E+02 -0.37116979114E+02 -0.79700142020E+02  0.20852466665E+03  0.16500000000E+03 0.  0.
   -5000001    1    1    2    0    0 -0.92345838163E+02  0.37116979114E+02 -0.14850920421E+03  0.24328051237E+03  0.16500000000E+03 0.  0.
<mgrwt>
<rscale>  0 0.38993386E+03</rscale>
<asrwt>0</asrwt>
<pdfrwt beam="1">  1        2 0.48572466E-01 0.38993386E+03</pdfrwt>
<pdfrwt beam="2">  1       -2 0.15971131E-01 0.38993386E+03</pdfrwt>
<totfact> 0.32085746E+03</totfact>
</mgrwt>
</event>
<event>
 4    1  0.1025337E-004  0.3979325E+03  0.7818608E-02  0.1044498E+00
         -2   -1    0    0    0  501 -0.00000000000E+00  0.00000000000E+00  0.37883257683E+02  0.37883257769E+02  0.25500000000E-02 0. -1.
          2   -1    0    0  501    0  0.00000000000E+00 -0.00000000000E+00 -0.10449884304E+04  0.10449884304E+04  0.25500000000E-02 0.  1.
    5000001    1    1    2    0    0  0.44565764295E+02  0.49173123167E+02 -0.26078975494E+03  0.31565867590E+03  0.16500000000E+03 0.  0.
   -5000001    1    1    2    0    0 -0.44565764295E+02 -0.49173123167E+02 -0.74631541777E+03  0.76721301227E+03  0.16500000000E+03 0.  0.
<mgrwt>
<rscale>  0 0.39793249E+03</rscale>
<asrwt>0</asrwt>
<pdfrwt beam="1">  1        2 0.14928404E+00 0.39793249E+03</pdfrwt>
<pdfrwt beam="2">  1       -2 0.54118946E-02 0.39793249E+03</pdfrwt>
<totfact> 0.47801655E+03</totfact>
</mgrwt>
</event>
<event>
 4    1  0.1025337E-004  0.4589320E+03  0.7818608E-02  0.1025091E+00
          2   -1    0    0  501    0  0.00000000000E+00  0.00000000000E+00  0.12334760151E+04  0.12334760151E+04  0.25500000000E-02 0.  1.
         -2   -1    0    0    0  501 -0.00000000000E+00 -0.00000000000E+00 -0.42688016632E+02  0.42688016708E+02  0.25500000000E-02 0. -1.
    5000001    1    1    2    0    0  0.20551578062E+00  0.14839600370E+03  0.75773286833E+03  0.78956033075E+03  0.16500000000E+03 0.  0.
   -5000001    1    1    2    0    0 -0.20551578062E+00 -0.14839600370E+03  0.43305513017E+03  0.48660370109E+03  0.16500000000E+03 0.  0.
<mgrwt>
<rscale>  0 0.45893200E+03</rscale>
<asrwt>0</asrwt>
<pdfrwt beam="1">  1        2 0.17621085E+00 0.45893200E+03</pdfrwt>
<pdfrwt beam="2">  1       -2 0.60982885E-02 0.45893200E+03</pdfrwt>
<totfact> 0.31102865E+03</totfact>
</mgrwt>
</event>
<event>
 4    1  0.1025337E-004  0.6328015E+03  0.7818608E-02  0.9839597E-01
         -2   -1    0    0    0  501 -0.00000000000E+00  0.00000000000E+00  0.42866687575E+03  0.42866687576E+03  0.25500000000E-02 0.  1.
          2   -1    0    0  501    0  0.00000000000E+00 -0.00000000000E+00 -0.23353668471E+03  0.23353668473E+03  0.25500000000E-02 0. -1.
    5000001    1    1    2    0    0 -0.14342925696E+03 -0.22818329425E+03  0.11394060743E+03  0.33592711939E+03  0.16500000000E+03 0.  0.
   -5000001    1    1    2    0    0  0.14342925696E+03  0.22818329425E+03  0.81189583616E+02  0.32627644109E+03  0.16500000000E+03 0.  0.
<mgrwt>
<rscale>  0 0.63280152E+03</rscale>
<asrwt>0</asrwt>
<pdfrwt beam="1">  1        2 0.33362384E-01 0.63280152E+03</pdfrwt>
<pdfrwt beam="2">  1       -2 0.61238125E-01 0.63280152E+03</pdfrwt>
<totfact> 0.39503621E+02</totfact>
</mgrwt>
</event>
<event>
 4    1  0.1025337E-004  0.6196194E+03  0.7818608E-02  0.9865518E-01
         -2   -1    0    0    0  501 -0.00000000000E+00  0.00000000000E+00  0.11200017550E+03  0.11200017553E+03  0.25500000000E-02 0. -1.
          2   -1    0    0  501    0  0.00000000000E+00 -0.00000000000E+00 -0.85698120781E+03  0.85698120781E+03  0.25500000000E-02 0.  1.
    5000001    1    1    2    0    0  0.12804920881E+03 -0.22340730393E+03 -0.29509068630E+03  0.42498345434E+03  0.16500000000E+03 0.  0.
   -5000001    1    1    2    0    0 -0.12804920881E+03  0.22340730393E+03 -0.44989034601E+03  0.54399792900E+03  0.16500000000E+03 0.  0.
<mgrwt>
<rscale>  0 0.61961939E+03</rscale>
<asrwt>0</asrwt>
<pdfrwt beam="1">  1        2 0.12242588E+00 0.61961939E+03</pdfrwt>
<pdfrwt beam="2">  1       -2 0.16000025E-01 0.61961939E+03</pdfrwt>
<totfact> 0.10937336E+03</totfact>
</mgrwt>
</event>
<event>
 4    1  0.1025337E-004  0.6384551E+03  0.7818608E-02  0.9828687E-01
         -2   -1    0    0    0  501 -0.00000000000E+00  0.00000000000E+00  0.54557881852E+03  0.54557881852E+03  0.25500000000E-02 0. -1.
          2   -1    0    0  501    0  0.00000000000E+00 -0.00000000000E+00 -0.18678551703E+03  0.18678551704E+03  0.25500000000E-02 0.  1.
    5000001    1    1    2    0    0 -0.26668088395E+03  0.54229555766E+02  0.20799766140E+03  0.38019411585E+03  0.16500000000E+03 0.  0.
   -5000001    1    1    2    0    0  0.26668088395E+03 -0.54229555766E+02  0.15079564009E+03  0.35217021971E+03  0.16500000000E+03 0.  0.
<mgrwt>
<rscale>  0 0.63845508E+03</rscale>
<asrwt>0</asrwt>
<pdfrwt beam="1">  1        2 0.26683645E-01 0.63845508E+03</pdfrwt>
<pdfrwt beam="2">  1       -2 0.77939832E-01 0.63845508E+03</pdfrwt>
<totfact> 0.30104518E+02</totfact>
</mgrwt>
</event>
<event>
 4    1  0.1025337E-004  0.7458658E+03  0.7818608E-02  0.9641859E-01
          2   -1    0    0  501    0  0.00000000000E+00  0.00000000000E+00  0.40935149800E+04  0.40935149800E+04  0.25500000000E-02 0.  1.
         -2   -1    0    0    0  501 -0.00000000000E+00 -0.00000000000E+00 -0.33975429509E+02  0.33975429605E+02  0.25500000000E-02 0. -1.
    5000001    1    1    2    0    0  0.32933130073E+03  0.57174398617E+02  0.20918651952E+04  0.21248183481E+04  0.16500000000E+03 0.  0.
   -5000001    1    1    2    0    0 -0.32933130073E+03 -0.57174398617E+02  0.19676743552E+04  0.20026720615E+04  0.16500000000E+03 0.  0.
<mgrwt>
<rscale>  0 0.74586575E+03</rscale>
<asrwt>0</asrwt>
<pdfrwt beam="1">  1        2 0.58478842E+00 0.74586575E+03</pdfrwt>
<pdfrwt beam="2">  1       -2 0.48536281E-02 0.74586575E+03</pdfrwt>
<totfact> 0.11572770E+02</totfact>
</mgrwt>
</event>
<event>
 4    1  0.1025337E-004  0.8688057E+03  0.7818608E-02  0.9465438E-01
         -2   -1    0    0    0  501 -0.00000000000E+00  0.00000000000E+00  0.57132370774E+03  0.57132370774E+03  0.25500000000E-02 0. -1.
          2   -1    0    0  501    0  0.00000000000E+00 -0.00000000000E+00 -0.33029581897E+03  0.33029581898E+03  0.25500000000E-02 0.  1.
    5000001    1    1    2    0    0 -0.31457194896E+03  0.17745497853E+03  0.30333528406E+03  0.49968297453E+03  0.16500000000E+03 0.  0.
   -5000001    1    1    2    0    0  0.31457194896E+03 -0.17745497853E+03 -0.62307395301E+02  0.40193655219E+03  0.16500000000E+03 0.  0.
<mgrwt>
<rscale>  0 0.86880569E+03</rscale>
<asrwt>0</asrwt>
<pdfrwt beam="1">  1        2 0.47185117E-01 0.86880569E+03</pdfrwt>
<pdfrwt beam="2">  1       -2 0.81617672E-01 0.86880569E+03</pdfrwt>
<totfact> 0.14226834E+02</totfact>
</mgrwt>
</event>
<event>
 4    1  0.1025337E-004  0.4855654E+03  0.7818608E-02  0.1017617E+00
         -2   -1    0    0    0  501 -0.00000000000E+00  0.00000000000E+00  0.30983354541E+02  0.30983354646E+02  0.25500000000E-02 0. -1.
          2   -1    0    0  501    0  0.00000000000E+00 -0.00000000000E+00 -0.19024225627E+04  0.19024225627E+04  0.25500000000E-02 0.  1.
    5000001    1    1    2    0    0 -0.13304942009E+03 -0.86835914637E+02 -0.12561416114E+04  0.12768552667E+04  0.16500000000E+03 0.  0.
   -5000001    1    1    2    0    0  0.13304942009E+03  0.86835914637E+02 -0.61529759670E+03  0.65655065057E+03  0.16500000000E+03 0.  0.
<mgrwt>
<rscale>  0 0.48556537E+03</rscale>
<asrwt>0</asrwt>
<pdfrwt beam="1">  1        2 0.27177458E+00 0.48556537E+03</pdfrwt>
<pdfrwt beam="2">  1       -2 0.44261947E-02 0.48556537E+03</pdfrwt>
<totfact> 0.23060947E+03</totfact>
</mgrwt>
</event>
<event>
 4    1  0.1025337E-004  0.4396119E+03  0.7818608E-02  0.1030866E+00
         -2   -1    0    0    0  501 -0.00000000000E+00  0.00000000000E+00  0.25592827460E+02  0.25592827587E+02  0.25500000000E-02 0. -1.
          2   -1    0    0  501    0  0.00000000000E+00 -0.00000000000E+00 -0.18878205677E+04  0.18878205677E+04  0.25500000000E-02 0.  1.
    5000001    1    1    2    0    0  0.58002588213E+02  0.72982599460E+02 -0.44646075488E+03  0.48501852100E+03  0.16500000000E+03 0.  0.
   -5000001    1    1    2    0    0 -0.58002588213E+02 -0.72982599460E+02 -0.14157669854E+04  0.14283948743E+04  0.16500000000E+03 0.  0.
<mgrwt>
<rscale>  0 0.43961195E+03</rscale>
<asrwt>0</asrwt>
<pdfrwt beam="1">  1        2 0.26968856E+00 0.43961195E+03</pdfrwt>
<pdfrwt beam="2">  1       -2 0.36561194E-02 0.43961195E+03</pdfrwt>
<totfact> 0.31440948E+03</totfact>
</mgrwt>
</event>
<event>
 4    1  0.1025337E-004  0.6245446E+03  0.7818608E-02  0.9855753E-01
         -2   -1    0    0    0  501 -0.00000000000E+00  0.00000000000E+00  0.12269888152E+03  0.12269888155E+03  0.25500000000E-02 0. -1.
          2   -1    0    0  501    0  0.00000000000E+00 -0.00000000000E+00 -0.79474217386E+03  0.79474217386E+03  0.25500000000E-02 0.  1.
    5000001    1    1    2    0    0 -0.10976871935E+03 -0.23580759162E+03 -0.26062174886E+03  0.40348864667E+03  0.16500000000E+03 0.  0.
   -5000001    1    1    2    0    0  0.10976871935E+03  0.23580759162E+03 -0.41142154347E+03  0.51395240874E+03  0.16500000000E+03 0.  0.
<mgrwt>
<rscale>  0 0.62454456E+03</rscale>
<asrwt>0</asrwt>
<pdfrwt beam="1">  1        2 0.11353459E+00 0.62454456E+03</pdfrwt>
<pdfrwt beam="2">  1       -2 0.17528412E-01 0.62454456E+03</pdfrwt>
<totfact> 0.10320077E+03</totfact>
</mgrwt>
</event>
<event>
 4    1  0.1025337E-004  0.7029755E+03  0.7818608E-02  0.9712157E-01
         -2   -1    0    0    0  501 -0.00000000000E+00  0.00000000000E+00  0.96774453522E+02  0.96774453556E+02  0.25500000000E-02 0. -1.
          2   -1    0    0  501    0  0.00000000000E+00 -0.00000000000E+00 -0.12766139916E+04  0.12766139916E+04  0.25500000000E-02 0.  1.
    5000001    1    1    2    0    0  0.20211728504E+03 -0.12990474722E+03 -0.97371693790E+03  0.10164036184E+04  0.16500000000E+03 0.  0.
   -5000001    1    1    2    0    0 -0.20211728504E+03  0.12990474722E+03 -0.20612260020E+03  0.35698482682E+03  0.16500000000E+03 0.  0.
<mgrwt>
<rscale>  0 0.70297545E+03</rscale>
<asrwt>0</asrwt>
<pdfrwt beam="1">  1        2 0.18237342E+00 0.70297545E+03</pdfrwt>
<pdfrwt beam="2">  1       -2 0.13824923E-01 0.70297545E+03</pdfrwt>
<totfact> 0.78360590E+02</totfact>
</mgrwt>
</event>
<event>
 4    1  0.1025337E-004  0.5299524E+03  0.7818608E-02  0.1006244E+00
         -2   -1    0    0    0  501 -0.00000000000E+00  0.00000000000E+00  0.13612413529E+03  0.13612413532E+03  0.25500000000E-02 0. -1.
          2   -1    0    0  501    0  0.00000000000E+00 -0.00000000000E+00 -0.51579679200E+03  0.51579679201E+03  0.25500000000E-02 0.  1.
    5000001    1    1    2    0    0 -0.68416679785E+02 -0.19571502999E+03 -0.19165148535E+03  0.32701759413E+03  0.16500000000E+03 0.  0.
   -5000001    1    1    2    0    0  0.68416679785E+02  0.19571502999E+03 -0.18802117136E+03  0.32490333319E+03  0.16500000000E+03 0.  0.
<mgrwt>
<rscale>  0 0.52995242E+03</rscale>
<asrwt>0</asrwt>
<pdfrwt beam="1">  1        2 0.73685255E-01 0.52995242E+03</pdfrwt>
<pdfrwt beam="2">  1       -2 0.19446305E-01 0.52995242E+03</pdfrwt>
<totfact> 0.14498178E+03</totfact>
</mgrwt>
</event>
<event>
 4    1  0.1025337E-004  0.5453719E+03  0.7818608E-02  0.1002571E+00
          2   -1    0    0  501    0  0.00000000000E+00  0.00000000000E+00  0.76093142319E+03  0.76093142319E+03  0.25500000000E-02 0.  1.
         -2   -1    0    0    0  501 -0.00000000000E+00 -0.00000000000E+00 -0.97719209635E+02  0.97719209669E+02  0.25500000000E-02 0. -1.
    5000001    1    1    2    0    0  0.61405093729E+02  0.81034138899E+02  0.29596247386E+02  0.19605625484E+03  0.16500000000E+03 0.  0.
   -5000001    1    1    2    0    0 -0.61405093729E+02 -0.81034138899E+02  0.63361596617E+03  0.66259437802E+03  0.16500000000E+03 0.  0.
<mgrwt>
<rscale>  0 0.54537186E+03</rscale>
<asrwt>0</asrwt>
<pdfrwt beam="1">  1        2 0.10870449E+00 0.54537186E+03</pdfrwt>
<pdfrwt beam="2">  1       -2 0.13959887E-01 0.54537186E+03</pdfrwt>
<totfact> 0.16036053E+03</totfact>
</mgrwt>
</event>
<event>
 4    1  0.1025337E-004  0.3973234E+03  0.7818608E-02  0.1044710E+00
         -2   -1    0    0    0  501 -0.00000000000E+00  0.00000000000E+00  0.37123436141E+03  0.37123436142E+03  0.25500000000E-02 0. -1.
          2   -1    0    0  501    0  0.00000000000E+00 -0.00000000000E+00 -0.10631149392E+03  0.10631149395E+03  0.25500000000E-02 0.  1.
    5000001    1    1    2    0    0 -0.51848130807E+02 -0.51720811526E+02  0.32781311936E+02  0.18347448167E+03  0.16500000000E+03 0.  0.
   -5000001    1    1    2    0    0  0.51848130807E+02  0.51720811526E+02  0.23214155555E+03  0.29407137369E+03  0.16500000000E+03 0.  0.
<mgrwt>
<rscale>  0 0.39732344E+03</rscale>
<asrwt>0</asrwt>
<pdfrwt beam="1">  1        2 0.15187356E-01 0.39732344E+03</pdfrwt>
<pdfrwt beam="2">  1       -2 0.53033481E-01 0.39732344E+03</pdfrwt>
<totfact> 0.13195123E+03</totfact>
</mgrwt>
</event>
<event>
 4    1  0.1025337E-004  0.4561697E+03  0.7818608E-02  0.1025898E+00
         -2   -1    0    0    0  501 -0.00000000000E+00  0.00000000000E+00  0.31954351604E+02  0.31954351706E+02  0.25500000000E-02 0. -1.
          2   -1    0    0  501    0  0.00000000000E+00 -0.00000000000E+00 -0.16280315011E+04  0.16280315011E+04  0.25500000000E-02 0.  1.
    5000001    1    1    2    0    0  0.24008605653E+02 -0.13032247071E+03 -0.11076145281E+04  0.11276503458E+04  0.16500000000E+03 0.  0.
   -5000001    1    1    2    0    0 -0.24008605653E+02  0.13032247071E+03 -0.48846262133E+03  0.53233550694E+03  0.16500000000E+03 0.  0.
<mgrwt>
<rscale>  0 0.45616967E+03</rscale>
<asrwt>0</asrwt>
<pdfrwt beam="1">  1        2 0.23257588E+00 0.45616967E+03</pdfrwt>
<pdfrwt beam="2">  1       -2 0.45649084E-02 0.45616967E+03</pdfrwt>
<totfact> 0.30227247E+03</totfact>
</mgrwt>
</event>
<event>
 4    1  0.1025337E-004  0.6135130E+03  0.7818608E-02  0.9877761E-01
          2   -1    0    0  501    0  0.00000000000E+00  0.00000000000E+00  0.43719682481E+03  0.43719682481E+03  0.25500000000E-02 0.  1.
         -2   -1    0    0    0  501 -0.00000000000E+00 -0.00000000000E+00 -0.21523386374E+03  0.21523386376E+03  0.25500000000E-02 0. -1.
    5000001    1    1    2    0    0 -0.56039770641E+02  0.17879462786E+03  0.30051929255E+03  0.39069786285E+03  0.16500000000E+03 0.  0.
   -5000001    1    1    2    0    0  0.56039770641E+02 -0.17879462786E+03 -0.78556331480E+02  0.26173282572E+03  0.16500000000E+03 0.  0.
<mgrwt>
<rscale>  0 0.61351304E+03</rscale>
<asrwt>0</asrwt>
<pdfrwt beam="1">  1        2 0.62456689E-01 0.61351304E+03</pdfrwt>
<pdfrwt beam="2">  1       -2 0.30747695E-01 0.61351304E+03</pdfrwt>
<totfact> 0.76906060E+02</totfact>
</mgrwt>
</event>
<event>
 4    1  0.1025337E-004  0.4303717E+03  0.7818608E-02  0.1033743E+00
         -2   -1    0    0    0  501 -0.00000000000E+00  0.00000000000E+00  0.17577009563E+02  0.17577009748E+02  0.25500000000E-02 0. -1.
          2   -1    0    0  501    0  0.00000000000E+00 -0.00000000000E+00 -0.26344043098E+04  0.26344043098E+04  0.25500000000E-02 0.  1.
    5000001    1    1    2    0    0 -0.73210358121E+02 -0.10701609442E+03 -0.10149703173E+04  0.10364371404E+04  0.16500000000E+03 0.  0.
   -5000001    1    1    2    0    0  0.73210358121E+02  0.10701609442E+03 -0.16018569830E+04  0.16155441792E+04  0.16500000000E+03 0.  0.
<mgrwt>
<rscale>  0 0.43037170E+03</rscale>
<asrwt>0</asrwt>
<pdfrwt beam="1">  1        2 0.37634322E+00 0.43037170E+03</pdfrwt>
<pdfrwt beam="2">  1       -2 0.25110031E-02 0.43037170E+03</pdfrwt>
<totfact> 0.23415393E+03</totfact>
</mgrwt>
</event>
<event>
 4    1  0.1025337E-004  0.1382378E+04  0.7818608E-02  0.8966674E-01
          2   -1    0    0  501    0  0.00000000000E+00  0.00000000000E+00  0.24672284416E+03  0.24672284417E+03  0.25500000000E-02 0.  1.
         -2   -1    0    0    0  501 -0.00000000000E+00 -0.00000000000E+00 -0.19363520451E+04  0.19363520451E+04  0.25500000000E-02 0. -1.
    5000001    1    1    2    0    0  0.56252261755E+03  0.15725471082E+03 -0.13670474512E+04  0.14957287432E+04  0.16500000000E+03 0.  0.
   -5000001    1    1    2    0    0 -0.56252261755E+03 -0.15725471082E+03 -0.32258174980E+03  0.68734614615E+03  0.16500000000E+03 0.  0.
<mgrwt>
<rscale>  0 0.13823781E+04</rscale>
<asrwt>0</asrwt>
<pdfrwt beam="1">  1        2 0.35246122E-01 0.13823781E+04</pdfrwt>
<pdfrwt beam="2">  1       -2 0.27662171E+00 0.13823781E+04</pdfrwt>
<totfact> 0.64191832E+00</totfact>
</mgrwt>
</event>
<event>
 4    1  0.1025337E-004  0.4149565E+03  0.7818608E-02  0.1038720E+00
          2   -1    0    0  501    0  0.00000000000E+00  0.00000000000E+00  0.16971460398E+03  0.16971460400E+03  0.25500000000E-02 0.  1.
         -2   -1    0    0    0  501 -0.00000000000E+00 -0.00000000000E+00 -0.25364473263E+03  0.25364473264E+03  0.25500000000E-02 0. -1.
    5000001    1    1    2    0    0  0.65204624536E+02  0.10753196241E+03 -0.44749684789E+02  0.21223171367E+03  0.16500000000E+03 0.  0.
   -5000001    1    1    2    0    0 -0.65204624536E+02 -0.10753196241E+03 -0.39180443860E+02  0.21112762297E+03  0.16500000000E+03 0.  0.
<mgrwt>
<rscale>  0 0.41495646E+03</rscale>
<asrwt>0</asrwt>
<pdfrwt beam="1">  1        2 0.24244943E-01 0.41495646E+03</pdfrwt>
<pdfrwt beam="2">  1       -2 0.36234962E-01 0.41495646E+03</pdfrwt>
<totfact> 0.16156911E+03</totfact>
</mgrwt>
</event>
<event>
 4    1  0.1025337E-004  0.4341596E+03  0.7818608E-02  0.1032554E+00
          2   -1    0    0  501    0  0.00000000000E+00  0.00000000000E+00  0.26245243259E+04  0.26245243259E+04  0.25500000000E-02 0.  1.
         -2   -1    0    0    0  501 -0.00000000000E+00 -0.00000000000E+00 -0.17955114819E+02  0.17955115000E+02  0.25500000000E-02 0. -1.
    5000001    1    1    2    0    0 -0.67394314983E+02 -0.68167386669E+02  0.19331589378E+04  0.19425543145E+04  0.16500000000E+03 0.  0.
   -5000001    1    1    2    0    0  0.67394314983E+02  0.68167386669E+02  0.67341027332E+03  0.69992512636E+03  0.16500000000E+03 0.  0.
<mgrwt>
<rscale>  0 0.43415958E+03</rscale>
<asrwt>0</asrwt>
<pdfrwt beam="1">  1        2 0.37493201E+00 0.43415958E+03</pdfrwt>
<pdfrwt beam="2">  1       -2 0.25650167E-02 0.43415958E+03</pdfrwt>
<totfact> 0.22940770E+03</totfact>
</mgrwt>
</event>
<event>
 4    1  0.1025337E-004  0.4233114E+03  0.7818608E-02  0.1035994E+00
          2   -1    0    0  501    0  0.00000000000E+00  0.00000000000E+00  0.44774543047E+04  0.44774543047E+04  0.25500000000E-02 0.  1.
         -2   -1    0    0    0  501 -0.00000000000E+00 -0.00000000000E+00 -0.10005271307E+02  0.10005271632E+02  0.25500000000E-02 0. -1.
    5000001    1    1    2    0    0 -0.80416436135E+02  0.10538511655E+03  0.22397196040E+04  0.22496981421E+04  0.16500000000E+03 0.  0.
   -5000001    1    1    2    0    0  0.80416436135E+02 -0.10538511655E+03  0.22277294294E+04  0.22377614342E+04  0.16500000000E+03 0.  0.
<mgrwt>
<rscale>  0 0.42331145E+03</rscale>
<asrwt>0</asrwt>
<pdfrwt beam="1">  1        2 0.63963862E+00 0.42331145E+03</pdfrwt>
<pdfrwt beam="2">  1       -2 0.14293194E-02 0.42331145E+03</pdfrwt>
<totfact> 0.40978097E+02</totfact>
</mgrwt>
</event>
<event>
 4    1  0.1025337E-004  0.4384357E+03  0.7818608E-02  0.1031228E+00
          2   -1    0    0  501    0  0.00000000000E+00  0.00000000000E+00  0.88036555603E+03  0.88036555603E+03  0.25500000000E-02 0.  1.
         -2   -1    0    0    0  501 -0.00000000000E+00 -0.00000000000E+00 -0.54586944153E+02  0.54586944212E+02  0.25500000000E-02 0. -1.
    5000001    1    1    2    0    0 -0.13599320049E+03  0.41297922840E+02  0.35928838731E+03  0.42013428123E+03  0.16500000000E+03 0.  0.
   -5000001    1    1    2    0    0  0.13599320049E+03 -0.41297922840E+02  0.46649022457E+03  0.51481821901E+03  0.16500000000E+03 0.  0.
<mgrwt>
<rscale>  0 0.43843570E+03</rscale>
<asrwt>0</asrwt>
<pdfrwt beam="1">  1        2 0.12576650E+00 0.43843570E+03</pdfrwt>
<pdfrwt beam="2">  1       -2 0.77981355E-02 0.43843570E+03</pdfrwt>
<totfact> 0.34164109E+03</totfact>
</mgrwt>
</event>
<event>
 4    1  0.1025337E-004  0.4437193E+03  0.7818608E-02  0.1029612E+00
          2   -1    0    0  501    0  0.00000000000E+00  0.00000000000E+00  0.16969535425E+04  0.16969535425E+04  0.25500000000E-02 0.  1.
         -2   -1    0    0    0  501 -0.00000000000E+00 -0.00000000000E+00 -0.29005929707E+02  0.29005929819E+02  0.25500000000E-02 0. -1.
    5000001    1    1    2    0    0  0.89304184210E+02  0.11576157295E+03  0.93088540450E+03  0.95663400284E+03  0.16500000000E+03 0.  0.
   -5000001    1    1    2    0    0 -0.89304184210E+02 -0.11576157295E+03  0.73706220830E+03  0.76932546948E+03  0.16500000000E+03 0.  0.
<mgrwt>
<rscale>  0 0.44371935E+03</rscale>
<asrwt>0</asrwt>
<pdfrwt beam="1">  1        2 0.24242188E+00 0.44371935E+03</pdfrwt>
<pdfrwt beam="2">  1       -2 0.41437051E-02 0.44371935E+03</pdfrwt>
<totfact> 0.32362845E+03</totfact>
</mgrwt>
</event>
<event>
 4    1  0.1025337E-004  0.5799475E+03  0.7818608E-02  0.9947905E-01
          2   -1    0    0  501    0  0.00000000000E+00  0.00000000000E+00  0.14253830126E+03  0.14253830129E+03  0.25500000000E-02 0.  1.
         -2   -1    0    0    0  501 -0.00000000000E+00 -0.00000000000E+00 -0.58991009516E+03  0.58991009517E+03  0.25500000000E-02 0. -1.
    5000001    1    1    2    0    0 -0.14784534417E+03  0.18359532004E+03 -0.17824937703E+03  0.33847204869E+03  0.16500000000E+03 0.  0.
   -5000001    1    1    2    0    0  0.14784534417E+03 -0.18359532004E+03 -0.26912241686E+03  0.39397634776E+03  0.16500000000E+03 0.  0.
<mgrwt>
<rscale>  0 0.57994752E+03</rscale>
<asrwt>0</asrwt>
<pdfrwt beam="1">  1        2 0.20362615E-01 0.57994752E+03</pdfrwt>
<pdfrwt beam="2">  1       -2 0.84272870E-01 0.57994752E+03</pdfrwt>
<totfact> 0.34541176E+02</totfact>
</mgrwt>
</event>
<event>
 4    1  0.1025337E-004  0.8162993E+03  0.7818608E-02  0.9536720E-01
          2   -1    0    0  501    0  0.00000000000E+00  0.00000000000E+00  0.20065553462E+04  0.20065553462E+04  0.25500000000E-02 0.  1.
         -2   -1    0    0    0  501 -0.00000000000E+00 -0.00000000000E+00 -0.83020950028E+02  0.83020950068E+02  0.25500000000E-02 0. -1.
    5000001    1    1    2    0    0  0.18130162428E+03  0.29934982122E+03  0.12943516497E+04  0.13509447759E+04  0.16500000000E+03 0.  0.
   -5000001    1    1    2    0    0 -0.18130162428E+03 -0.29934982122E+03  0.62918274646E+03  0.73863152037E+03  0.16500000000E+03 0.  0.
<mgrwt>
<rscale>  0 0.81629929E+03</rscale>
<asrwt>0</asrwt>
<pdfrwt beam="1">  1        2 0.28665077E+00 0.81629929E+03</pdfrwt>
<pdfrwt beam="2">  1       -2 0.11860135E-01 0.81629929E+03</pdfrwt>
<totfact> 0.41949349E+02</totfact>
</mgrwt>
</event>
<event>
 4    1  0.1025337E-004  0.4312893E+03  0.7818608E-02  0.1033453E+00
         -2   -1    0    0    0  501 -0.00000000000E+00  0.00000000000E+00  0.71011015288E+03  0.71011015288E+03  0.25500000000E-02 0. -1.
          2   -1    0    0  501    0  0.00000000000E+00 -0.00000000000E+00 -0.65486481589E+02  0.65486481639E+02  0.25500000000E-02 0.  1.
    5000001    1    1    2    0    0  0.64857751259E+02 -0.11337952152E+03  0.23765365513E+03  0.31743614097E+03  0.16500000000E+03 0.  0.
   -5000001    1    1    2    0    0 -0.64857751259E+02  0.11337952152E+03  0.40697001616E+03  0.45816049355E+03  0.16500000000E+03 0.  0.
<mgrwt>
<rscale>  0 0.43128930E+03</rscale>
<asrwt>0</asrwt>
<pdfrwt beam="1">  1        2 0.93552123E-02 0.43128930E+03</pdfrwt>
<pdfrwt beam="2">  1       -2 0.10144430E+00 0.43128930E+03</pdfrwt>
<totfact> 0.58184187E+02</totfact>
</mgrwt>
</event>
<event>
 4    1  0.1025337E-004  0.9039808E+03  0.7818608E-02  0.9420619E-01
          2   -1    0    0  501    0  0.00000000000E+00  0.00000000000E+00  0.62366419057E+03  0.62366419057E+03  0.25500000000E-02 0.  1.
         -2   -1    0    0    0  501 -0.00000000000E+00 -0.00000000000E+00 -0.32757266429E+03  0.32757266430E+03  0.25500000000E-02 0. -1.
    5000001    1    1    2    0    0 -0.95107274255E+02 -0.35904840976E+03  0.35614420685E+03  0.54039323667E+03  0.16500000000E+03 0.  0.
   -5000001    1    1    2    0    0  0.95107274255E+02  0.35904840976E+03 -0.60052680573E+02  0.41084361820E+03  0.16500000000E+03 0.  0.
<mgrwt>
<rscale>  0 0.90398084E+03</rscale>
<asrwt>0</asrwt>
<pdfrwt beam="1">  1        2 0.89094883E-01 0.90398084E+03</pdfrwt>
<pdfrwt beam="2">  1       -2 0.46796095E-01 0.90398084E+03</pdfrwt>
<totfact> 0.22477806E+02</totfact>
</mgrwt>
</event>
<event>
 4    1  0.1025337E-004  0.8753115E+03  0.7818608E-02  0.9456981E-01
          2   -1    0    0  501    0  0.00000000000E+00  0.00000000000E+00  0.36341961513E+03  0.36341961514E+03  0.25500000000E-02 0.  1.
         -2   -1    0    0    0  501 -0.00000000000E+00 -0.00000000000E+00 -0.52705620181E+03  0.52705620182E+03  0.25500000000E-02 0. -1.
    5000001    1    1    2    0    0  0.32808483498E+03 -0.17417838398E+03 -0.24692536391E+03  0.47557849376E+03  0.16500000000E+03 0.  0.
   -5000001    1    1    2    0    0 -0.32808483498E+03  0.17417838398E+03  0.83288777227E+02  0.41489732320E+03  0.16500000000E+03 0.  0.
<mgrwt>
<rscale>  0 0.87531151E+03</rscale>
<asrwt>0</asrwt>
<pdfrwt beam="1">  1        2 0.51917088E-01 0.87531151E+03</pdfrwt>
<pdfrwt beam="2">  1       -2 0.75293743E-01 0.87531151E+03</pdfrwt>
<totfact> 0.15317483E+02</totfact>
</mgrwt>
</event>
<event>
 4    1  0.1025337E-004  0.4070632E+03  0.7818608E-02  0.1041361E+00
         -2   -1    0    0    0  501 -0.00000000000E+00  0.00000000000E+00  0.17545144645E+02  0.17545144830E+02  0.25500000000E-02 0. -1.
          2   -1    0    0  501    0  0.00000000000E+00 -0.00000000000E+00 -0.23610584534E+04  0.23610584534E+04  0.25500000000E-02 0.  1.
    5000001    1    1    2    0    0  0.10381621632E+03  0.66437830048E+01 -0.83213083344E+03  0.85468629952E+03  0.16500000000E+03 0.  0.
   -5000001    1    1    2    0    0 -0.10381621632E+03 -0.66437830048E+01 -0.15113824753E+04  0.15239172987E+04  0.16500000000E+03 0.  0.
<mgrwt>
<rscale>  0 0.40706320E+03</rscale>
<asrwt>0</asrwt>
<pdfrwt beam="1">  1        2 0.33729386E+00 0.40706320E+03</pdfrwt>
<pdfrwt beam="2">  1       -2 0.25064507E-02 0.40706320E+03</pdfrwt>
<totfact> 0.32343866E+03</totfact>
</mgrwt>
</event>
<event>
 4    1  0.1025337E-004  0.3562420E+03  0.7818608E-02  0.1060082E+00
         -2   -1    0    0    0  501 -0.00000000000E+00  0.00000000000E+00  0.12470107854E+02  0.12470108115E+02  0.25500000000E-02 0. -1.
          2   -1    0    0  501    0  0.00000000000E+00 -0.00000000000E+00 -0.25442510851E+04  0.25442510851E+04  0.25500000000E-02 0.  1.
    5000001    1    1    2    0    0 -0.88921727422E+01  0.57446164727E+02 -0.10253882561E+04  0.10402044069E+04  0.16500000000E+03 0.  0.
   -5000001    1    1    2    0    0  0.88921727422E+01 -0.57446164727E+02 -0.15063927212E+04  0.15165167863E+04  0.16500000000E+03 0.  0.
<mgrwt>
<rscale>  0 0.35624197E+03</rscale>
<asrwt>0</asrwt>
<pdfrwt beam="1">  1        2 0.36346411E+00 0.35624197E+03</pdfrwt>
<pdfrwt beam="2">  1       -2 0.17814456E-02 0.35624197E+03</pdfrwt>
<totfact> 0.43559891E+03</totfact>
</mgrwt>
</event>
<event>
 4    1  0.1025337E-004  0.5087517E+03  0.7818608E-02  0.1011520E+00
         -2   -1    0    0    0  501 -0.00000000000E+00  0.00000000000E+00  0.77053612285E+02  0.77053612327E+02  0.25500000000E-02 0. -1.
          2   -1    0    0  501    0  0.00000000000E+00 -0.00000000000E+00 -0.83976685721E+03  0.83976685721E+03  0.25500000000E-02 0.  1.
    5000001    1    1    2    0    0  0.98971719794E+02  0.98446592843E+02 -0.62309945267E+03  0.65951881010E+03  0.16500000000E+03 0.  0.
   -5000001    1    1    2    0    0 -0.98971719794E+02 -0.98446592843E+02 -0.13961379225E+03  0.25730165944E+03  0.16500000000E+03 0.  0.
<mgrwt>
<rscale>  0 0.50875169E+03</rscale>
<asrwt>0</asrwt>
<pdfrwt beam="1">  1        2 0.11996669E+00 0.50875169E+03</pdfrwt>
<pdfrwt beam="2">  1       -2 0.11007659E-01 0.50875169E+03</pdfrwt>
<totfact> 0.20923910E+03</totfact>
</mgrwt>
</event>
<event>
 4    1  0.1025337E-004  0.4573838E+03  0.7818608E-02  0.1025543E+00
         -2   -1    0    0    0  501 -0.00000000000E+00  0.00000000000E+00  0.23973557513E+02  0.23973557649E+02  0.25500000000E-02 0. -1.
          2   -1    0    0  501    0  0.00000000000E+00 -0.00000000000E+00 -0.21815692020E+04  0.21815692020E+04  0.25500000000E-02 0.  1.
    5000001    1    1    2    0    0 -0.17157476039E+02 -0.15368484945E+03 -0.91445296379E+03  0.94199927543E+03  0.16500000000E+03 0.  0.
   -5000001    1    1    2    0    0  0.17157476039E+02  0.15368484945E+03 -0.12431426807E+04  0.12635434842E+04  0.16500000000E+03 0.  0.
<mgrwt>
<rscale>  0 0.45738376E+03</rscale>
<asrwt>0</asrwt>
<pdfrwt beam="1">  1        2 0.31165262E+00 0.45738376E+03</pdfrwt>
<pdfrwt beam="2">  1       -2 0.34247953E-02 0.45738376E+03</pdfrwt>
<totfact> 0.24789123E+03</totfact>
</mgrwt>
</event>
<event>
 4    1  0.1025337E-004  0.5009364E+03  0.7818608E-02  0.1013535E+00
          2   -1    0    0  501    0  0.00000000000E+00  0.00000000000E+00  0.47531702380E+03  0.47531702381E+03  0.25500000000E-02 0.  1.
         -2   -1    0    0    0  501 -0.00000000000E+00 -0.00000000000E+00 -0.13198415575E+03  0.13198415577E+03  0.25500000000E-02 0. -1.
    5000001    1    1    2    0    0 -0.12392862844E+03  0.12541738064E+03  0.25227959608E+03  0.34922459666E+03  0.16500000000E+03 0.  0.
   -5000001    1    1    2    0    0  0.12392862844E+03 -0.12541738064E+03  0.91053271975E+02  0.25807658292E+03  0.16500000000E+03 0.  0.
<mgrwt>
<rscale>  0 0.50093639E+03</rscale>
<asrwt>0</asrwt>
<pdfrwt beam="1">  1        2 0.67902433E-01 0.50093639E+03</pdfrwt>
<pdfrwt beam="2">  1       -2 0.18854879E-01 0.50093639E+03</pdfrwt>
<totfact> 0.16771656E+03</totfact>
</mgrwt>
</event>
<event>
 4    1  0.1025337E-004  0.4034023E+03  0.7818608E-02  0.1042608E+00
         -2   -1    0    0    0  501 -0.00000000000E+00  0.00000000000E+00  0.67611016185E+03  0.67611016185E+03  0.25500000000E-02 0. -1.
          2   -1    0    0  501    0  0.00000000000E+00 -0.00000000000E+00 -0.60172684887E+02  0.60172684941E+02  0.25500000000E-02 0.  1.
    5000001    1    1    2    0    0  0.18144959641E+02 -0.10670448122E+03  0.38417480901E+03  0.43189161806E+03  0.16500000000E+03 0.  0.
   -5000001    1    1    2    0    0 -0.18144959641E+02  0.10670448122E+03  0.23176266795E+03  0.30439122873E+03  0.16500000000E+03 0.  0.
<mgrwt>
<rscale>  0 0.40340235E+03</rscale>
<asrwt>0</asrwt>
<pdfrwt beam="1">  1        2 0.85960978E-02 0.40340235E+03</pdfrwt>
<pdfrwt beam="2">  1       -2 0.96587167E-01 0.40340235E+03</pdfrwt>
<totfact> 0.72650680E+02</totfact>
</mgrwt>
</event>
<event>
 4    1  0.1025337E-004  0.4970929E+03  0.7818608E-02  0.1014540E+00
         -2   -1    0    0    0  501 -0.00000000000E+00  0.00000000000E+00  0.36746570736E+03  0.36746570737E+03  0.25500000000E-02 0. -1.
          2   -1    0    0  501    0  0.00000000000E+00 -0.00000000000E+00 -0.16811186643E+03  0.16811186645E+03  0.25500000000E-02 0.  1.
    5000001    1    1    2    0    0  0.12982687644E+03  0.10839028318E+03  0.16590665340E+02  0.23686224163E+03  0.16500000000E+03 0.  0.
   -5000001    1    1    2    0    0 -0.12982687644E+03 -0.10839028318E+03  0.18276317559E+03  0.29871533219E+03  0.16500000000E+03 0.  0.
<mgrwt>
<rscale>  0 0.49709293E+03</rscale>
<asrwt>0</asrwt>
<pdfrwt beam="1">  1        2 0.24015981E-01 0.49709293E+03</pdfrwt>
<pdfrwt beam="2">  1       -2 0.52495101E-01 0.49709293E+03</pdfrwt>
<totfact> 0.78951451E+02</totfact>
</mgrwt>
</event>
<event>
 4    1  0.1025337E-004  0.5161252E+03  0.7818608E-02  0.1009654E+00
         -2   -1    0    0    0  501 -0.00000000000E+00  0.00000000000E+00  0.16445105689E+03  0.16445105691E+03  0.25500000000E-02 0. -1.
          2   -1    0    0  501    0  0.00000000000E+00 -0.00000000000E+00 -0.40496128886E+03  0.40496128887E+03  0.25500000000E-02 0.  1.
    5000001    1    1    2    0    0  0.17935491275E+03 -0.84578580409E+02 -0.12802425844E+03  0.28798772846E+03  0.16500000000E+03 0.  0.
   -5000001    1    1    2    0    0 -0.17935491275E+03  0.84578580409E+02 -0.11248597353E+03  0.28142461732E+03  0.16500000000E+03 0.  0.
<mgrwt>
<rscale>  0 0.51612522E+03</rscale>
<asrwt>0</asrwt>
<pdfrwt beam="1">  1        2 0.57851612E-01 0.51612522E+03</pdfrwt>
<pdfrwt beam="2">  1       -2 0.23493008E-01 0.51612522E+03</pdfrwt>
<totfact> 0.13652495E+03</totfact>
</mgrwt>
</event>
<event>
 4    1  0.1025337E-004  0.3361001E+03  0.7818608E-02  0.1068469E+00
         -2   -1    0    0    0  501 -0.00000000000E+00  0.00000000000E+00  0.14467695975E+02  0.14467696199E+02  0.25500000000E-02 0. -1.
          2   -1    0    0  501    0  0.00000000000E+00 -0.00000000000E+00 -0.19519912557E+04  0.19519912557E+04  0.25500000000E-02 0.  1.
    5000001    1    1    2    0    0 -0.25171864035E+02 -0.12889213579E+02 -0.10547631067E+04  0.10679653393E+04  0.16500000000E+03 0.  0.
   -5000001    1    1    2    0    0  0.25171864035E+02  0.12889213579E+02 -0.88276045306E+03  0.89849361269E+03  0.16500000000E+03 0.  0.
<mgrwt>
<rscale>  0 0.33610008E+03</rscale>
<asrwt>0</asrwt>
<pdfrwt beam="1">  1        2 0.27885573E+00 0.33610008E+03</pdfrwt>
<pdfrwt beam="2">  1       -2 0.20668150E-02 0.33610008E+03</pdfrwt>
<totfact> 0.68786202E+03</totfact>
</mgrwt>
</event>
<event>
 4    1  0.1025337E-004  0.4393720E+03  0.7818608E-02  0.1030940E+00
          2   -1    0    0  501    0  0.00000000000E+00  0.00000000000E+00  0.29504341685E+04  0.29504341685E+04  0.25500000000E-02 0.  1.
         -2   -1    0    0    0  501 -0.00000000000E+00 -0.00000000000E+00 -0.16357572609E+02  0.16357572808E+02  0.25500000000E-02 0. -1.
    5000001    1    1    2    0    0  0.19915830621E+00 -0.14501096264E+03  0.14470960183E+04  0.14636734967E+04  0.16500000000E+03 0.  0.
   -5000001    1    1    2    0    0 -0.19915830621E+00  0.14501096264E+03  0.14869805776E+04  0.15031182445E+04  0.16500000000E+03 0.  0.
<mgrwt>
<rscale>  0 0.43937201E+03</rscale>
<asrwt>0</asrwt>
<pdfrwt beam="1">  1        2 0.42149128E+00 0.43937201E+03</pdfrwt>
<pdfrwt beam="2">  1       -2 0.23367923E-02 0.43937201E+03</pdfrwt>
<totfact> 0.17802612E+03</totfact>
</mgrwt>
</event>
<event>
 4    1  0.1025337E-004  0.6294426E+03  0.7818608E-02  0.9846137E-01
         -2   -1    0    0    0  501 -0.00000000000E+00  0.00000000000E+00  0.34707878081E+02  0.34707878175E+02  0.25500000000E-02 0. -1.
          2   -1    0    0  501    0  0.00000000000E+00 -0.00000000000E+00 -0.28538043706E+04  0.28538043706E+04  0.25500000000E-02 0.  1.
    5000001    1    1    2    0    0 -0.18171814894E+03 -0.14882354475E+03 -0.20017704467E+04  0.20222462398E+04  0.16500000000E+03 0.  0.
   -5000001    1    1    2    0    0  0.18171814894E+03  0.14882354475E+03 -0.81732604585E+03  0.86626600900E+03  0.16500000000E+03 0.  0.
<mgrwt>
<rscale>  0 0.62944259E+03</rscale>
<asrwt>0</asrwt>
<pdfrwt beam="1">  1        2 0.40768619E+00 0.62944259E+03</pdfrwt>
<pdfrwt beam="2">  1       -2 0.49582701E-02 0.62944259E+03</pdfrwt>
<totfact> 0.62698211E+02</totfact>
</mgrwt>
</event>
<event>
 4    1  0.1025337E-004  0.4117602E+03  0.7818608E-02  0.1039782E+00
          2   -1    0    0  501    0  0.00000000000E+00  0.00000000000E+00  0.81550601256E+03  0.81550601256E+03  0.25500000000E-02 0.  1.
         -2   -1    0    0    0  501 -0.00000000000E+00 -0.00000000000E+00 -0.51975835610E+02  0.51975835672E+02  0.25500000000E-02 0. -1.
    5000001    1    1    2    0    0 -0.95875617327E+02 -0.74461256306E+02  0.42519684235E+03  0.47196818477E+03  0.16500000000E+03 0.  0.
   -5000001    1    1    2    0    0  0.95875617327E+02  0.74461256306E+02  0.33833333460E+03  0.39551366347E+03  0.16500000000E+03 0.  0.
<mgrwt>
<rscale>  0 0.41176016E+03</rscale>
<asrwt>0</asrwt>
<pdfrwt beam="1">  1        2 0.11650086E+00 0.41176016E+03</pdfrwt>
<pdfrwt beam="2">  1       -2 0.74251195E-02 0.41176016E+03</pdfrwt>
<totfact> 0.40704378E+03</totfact>
</mgrwt>
</event>
<event>
 4    1  0.1025337E-004  0.1020663E+04  0.7818608E-02  0.9286168E-01
         -2   -1    0    0    0  501 -0.00000000000E+00  0.00000000000E+00  0.15552225402E+03  0.15552225404E+03  0.25500000000E-02 0. -1.
          2   -1    0    0  501    0  0.00000000000E+00 -0.00000000000E+00 -0.16746036766E+04  0.16746036766E+04  0.25500000000E-02 0.  1.
    5000001    1    1    2    0    0  0.26222115703E+03  0.27979944570E+03 -0.12858794396E+04  0.13519462261E+04  0.16500000000E+03 0.  0.
   -5000001    1    1    2    0    0 -0.26222115703E+03 -0.27979944570E+03 -0.23320198301E+03  0.47817970460E+03  0.16500000000E+03 0.  0.
<mgrwt>
<rscale>  0 0.10206628E+04</rscale>
<asrwt>0</asrwt>
<pdfrwt beam="1">  1        2 0.23922909E+00 0.10206628E+04</pdfrwt>
<pdfrwt beam="2">  1       -2 0.22217466E-01 0.10206628E+04</pdfrwt>
<totfact> 0.20893964E+02</totfact>
</mgrwt>
</event>
<event>
 4    1  0.1025337E-004  0.7267766E+03  0.7818608E-02  0.9672506E-01
         -2   -1    0    0    0  501 -0.00000000000E+00  0.00000000000E+00  0.53691262131E+03  0.53691262132E+03  0.25500000000E-02 0. -1.
          2   -1    0    0  501    0  0.00000000000E+00 -0.00000000000E+00 -0.24594512256E+03  0.24594512257E+03  0.25500000000E-02 0.  1.
    5000001    1    1    2    0    0 -0.31139910120E+03  0.18072455923E+02  0.23895546130E+03  0.42616983278E+03  0.16500000000E+03 0.  0.
   -5000001    1    1    2    0    0  0.31139910120E+03 -0.18072455923E+02  0.52012037456E+02  0.35668791111E+03  0.16500000000E+03 0.  0.
<mgrwt>
<rscale>  0 0.72677656E+03</rscale>
<asrwt>0</asrwt>
<pdfrwt beam="1">  1        2 0.35135017E-01 0.72677656E+03</pdfrwt>
<pdfrwt beam="2">  1       -2 0.76701804E-01 0.72677656E+03</pdfrwt>
<totfact> 0.22826559E+02</totfact>
</mgrwt>
</event>
<event>
 4    1  0.1025337E-004  0.6005914E+03  0.7818608E-02  0.9904180E-01
         -2   -1    0    0    0  501 -0.00000000000E+00  0.00000000000E+00  0.74726597893E+03  0.74726597893E+03  0.25500000000E-02 0. -1.
          2   -1    0    0  501    0  0.00000000000E+00 -0.00000000000E+00 -0.12067657334E+03  0.12067657336E+03  0.25500000000E-02 0.  1.
    5000001    1    1    2    0    0  0.89189261368E+01  0.22948657891E+03  0.45931073117E+03  0.53938389381E+03  0.16500000000E+03 0.  0.
   -5000001    1    1    2    0    0 -0.89189261368E+01 -0.22948657891E+03  0.16727867442E+03  0.32855865848E+03  0.16500000000E+03 0.  0.
<mgrwt>
<rscale>  0 0.60059137E+03</rscale>
<asrwt>0</asrwt>
<pdfrwt beam="1">  1        2 0.17239510E-01 0.60059137E+03</pdfrwt>
<pdfrwt beam="2">  1       -2 0.10675228E+00 0.60059137E+03</pdfrwt>
<totfact> 0.24234185E+02</totfact>
</mgrwt>
</event>
<event>
 4    1  0.1025337E-004  0.8069834E+03  0.7818608E-02  0.9549964E-01
          2   -1    0    0  501    0  0.00000000000E+00  0.00000000000E+00  0.32112227889E+04  0.32112227889E+04  0.25500000000E-02 0.  1.
         -2   -1    0    0    0  501 -0.00000000000E+00 -0.00000000000E+00 -0.50698930837E+02  0.50698930901E+02  0.25500000000E-02 0. -1.
    5000001    1    1    2    0    0  0.27736649737E+03 -0.19741008435E+03  0.10132456841E+04  0.10815704931E+04  0.16500000000E+03 0.  0.
   -5000001    1    1    2    0    0 -0.27736649737E+03  0.19741008435E+03  0.21472781740E+04  0.21803512267E+04  0.16500000000E+03 0.  0.
<mgrwt>
<rscale>  0 0.80698343E+03</rscale>
<asrwt>0</asrwt>
<pdfrwt beam="1">  1        2 0.45874619E+00 0.80698343E+03</pdfrwt>
<pdfrwt beam="2">  1       -2 0.72427033E-02 0.80698343E+03</pdfrwt>
<totfact> 0.21606332E+02</totfact>
</mgrwt>
</event>
<event>
 4    1  0.1025337E-004  0.4760749E+03  0.7818608E-02  0.1020220E+00
          2   -1    0    0  501    0  0.00000000000E+00  0.00000000000E+00  0.74079975607E+03  0.74079975608E+03  0.25500000000E-02 0.  1.
         -2   -1    0    0    0  501 -0.00000000000E+00 -0.00000000000E+00 -0.76487367386E+02  0.76487367429E+02  0.25500000000E-02 0. -1.
    5000001    1    1    2    0    0 -0.15713913003E+03  0.66972360592E+02  0.35977457315E+03  0.43109250371E+03  0.16500000000E+03 0.  0.
   -5000001    1    1    2    0    0  0.15713913003E+03 -0.66972360592E+02  0.30453781554E+03  0.38619461980E+03  0.16500000000E+03 0.  0.
<mgrwt>
<rscale>  0 0.47607488E+03</rscale>
<asrwt>0</asrwt>
<pdfrwt beam="1">  1        2 0.10582854E+00 0.47607488E+03</pdfrwt>
<pdfrwt beam="2">  1       -2 0.10926767E-01 0.47607488E+03</pdfrwt>
<totfact> 0.24804188E+03</totfact>
</mgrwt>
</event>
<event>
 4    1  0.1025337E-004  0.4517180E+03  0.7818608E-02  0.1027211E+00
          2   -1    0    0  501    0  0.00000000000E+00  0.00000000000E+00  0.18890839222E+04  0.18890839222E+04  0.25500000000E-02 0.  1.
         -2   -1    0    0    0  501 -0.00000000000E+00 -0.00000000000E+00 -0.27003722487E+02  0.27003722607E+02  0.25500000000E-02 0. -1.
    5000001    1    1    2    0    0 -0.14150358503E+03  0.13697313903E+02  0.11847117962E+04  0.12045654491E+04  0.16500000000E+03 0.  0.
   -5000001    1    1    2    0    0  0.14150358503E+03 -0.13697313903E+02  0.67736840352E+03  0.71152219577E+03  0.16500000000E+03 0.  0.
<mgrwt>
<rscale>  0 0.45171805E+03</rscale>
<asrwt>0</asrwt>
<pdfrwt beam="1">  1        2 0.26986911E+00 0.45171805E+03</pdfrwt>
<pdfrwt beam="2">  1       -2 0.38576749E-02 0.45171805E+03</pdfrwt>
<totfact> 0.28925542E+03</totfact>
</mgrwt>
</event>
<event>
 4    1  0.1025337E-004  0.3587172E+03  0.7818608E-02  0.1059093E+00
         -2   -1    0    0    0  501 -0.00000000000E+00  0.00000000000E+00  0.26671954768E+02  0.26671954890E+02  0.25500000000E-02 0. -1.
          2   -1    0    0  501    0  0.00000000000E+00 -0.00000000000E+00 -0.12061173701E+04  0.12061173701E+04  0.25500000000E-02 0.  1.
    5000001    1    1    2    0    0 -0.11626905002E+02  0.69319929020E+02 -0.59665636800E+03  0.62302829707E+03  0.16500000000E+03 0.  0.
   -5000001    1    1    2    0    0  0.11626905002E+02 -0.69319929020E+02 -0.58278904733E+03  0.60976102792E+03  0.16500000000E+03 0.  0.
<mgrwt>
<rscale>  0 0.35871720E+03</rscale>
<asrwt>0</asrwt>
<pdfrwt beam="1">  1        2 0.17230245E+00 0.35871720E+03</pdfrwt>
<pdfrwt beam="2">  1       -2 0.38102800E-02 0.35871720E+03</pdfrwt>
<totfact> 0.66108591E+03</totfact>
</mgrwt>
</event>
<event>
 4    1  0.1025337E-004  0.3427495E+03  0.7818608E-02  0.1065631E+00
          2   -1    0    0  501    0  0.00000000000E+00  0.00000000000E+00  0.15102536517E+03  0.15102536519E+03  0.25500000000E-02 0.  1.
         -2   -1    0    0    0  501 -0.00000000000E+00 -0.00000000000E+00 -0.19446607460E+03  0.19446607462E+03  0.25500000000E-02 0. -1.
    5000001    1    1    2    0    0 -0.32715041849E+02 -0.10079636460E+02  0.97130294361E+01  0.16879341212E+03  0.16500000000E+03 0.  0.
   -5000001    1    1    2    0    0  0.32715041849E+02  0.10079636460E+02 -0.53153738867E+02  0.17669802769E+03  0.16500000000E+03 0.  0.
<mgrwt>
<rscale>  0 0.34274953E+03</rscale>
<asrwt>0</asrwt>
<pdfrwt beam="1">  1        2 0.21575052E-01 0.34274953E+03</pdfrwt>
<pdfrwt beam="2">  1       -2 0.27780868E-01 0.34274953E+03</pdfrwt>
<totfact> 0.30043776E+03</totfact>
</mgrwt>
</event>
<event>
 4    1  0.1025337E-004  0.6163196E+03  0.7818608E-02  0.9872115E-01
          2   -1    0    0  501    0  0.00000000000E+00  0.00000000000E+00  0.10933311675E+04  0.10933311675E+04  0.25500000000E-02 0.  1.
         -2   -1    0    0    0  501 -0.00000000000E+00 -0.00000000000E+00 -0.86856083897E+02  0.86856083934E+02  0.25500000000E-02 0. -1.
    5000001    1    1    2    0    0 -0.11808557487E+03 -0.50189763657E+02  0.69632236062E+02  0.22031083420E+03  0.16500000000E+03 0.  0.
   -5000001    1    1    2    0    0  0.11808557487E+03  0.50189763657E+02  0.93684284751E+03  0.95987641720E+03  0.16500000000E+03 0.  0.
<mgrwt>
<rscale>  0 0.61631960E+03</rscale>
<asrwt>0</asrwt>
<pdfrwt beam="1">  1        2 0.15619016E+00 0.61631960E+03</pdfrwt>
<pdfrwt beam="2">  1       -2 0.12408013E-01 0.61631960E+03</pdfrwt>
<totfact> 0.11944221E+03</totfact>
</mgrwt>
</event>
<event>
 4    1  0.1025337E-004  0.4782718E+03  0.7818608E-02  0.1019611E+00
         -2   -1    0    0    0  501 -0.00000000000E+00  0.00000000000E+00  0.21422757006E+02  0.21422757157E+02  0.25500000000E-02 0. -1.
          2   -1    0    0  501    0  0.00000000000E+00 -0.00000000000E+00 -0.26694036520E+04  0.26694036520E+04  0.25500000000E-02 0.  1.
    5000001    1    1    2    0    0 -0.85379311065E+02  0.14872065870E+03 -0.11916235274E+04  0.12151539376E+04  0.16500000000E+03 0.  0.
   -5000001    1    1    2    0    0  0.85379311065E+02 -0.14872065870E+03 -0.14563573676E+04  0.14756724716E+04  0.16500000000E+03 0.  0.
<mgrwt>
<rscale>  0 0.47827183E+03</rscale>
<asrwt>0</asrwt>
<pdfrwt beam="1">  1        2 0.38134317E+00 0.47827183E+03</pdfrwt>
<pdfrwt beam="2">  1       -2 0.30603956E-02 0.47827183E+03</pdfrwt>
<totfact> 0.16619111E+03</totfact>
</mgrwt>
</event>
<event>
 4    1  0.1025337E-004  0.4299251E+03  0.7818608E-02  0.1033884E+00
         -2   -1    0    0    0  501 -0.00000000000E+00  0.00000000000E+00  0.11805884833E+03  0.11805884836E+03  0.25500000000E-02 0. -1.
          2   -1    0    0  501    0  0.00000000000E+00 -0.00000000000E+00 -0.39140562884E+03  0.39140562884E+03  0.25500000000E-02 0.  1.
    5000001    1    1    2    0    0  0.45555534528E+02  0.12652879025E+03 -0.17220497266E+03  0.27379626385E+03  0.16500000000E+03 0.  0.
   -5000001    1    1    2    0    0 -0.45555534528E+02 -0.12652879025E+03 -0.10114180784E+03  0.23566821335E+03  0.16500000000E+03 0.  0.
<mgrwt>
<rscale>  0 0.42992510E+03</rscale>
<asrwt>0</asrwt>
<pdfrwt beam="1">  1        2 0.55915089E-01 0.42992510E+03</pdfrwt>
<pdfrwt beam="2">  1       -2 0.16865550E-01 0.42992510E+03</pdfrwt>
<totfact> 0.25132267E+03</totfact>
</mgrwt>
</event>
<event>
 4    1  0.1025337E-004  0.9257405E+03  0.7818608E-02  0.9393964E-01
         -2   -1    0    0    0  501 -0.00000000000E+00  0.00000000000E+00  0.27706799991E+03  0.27706799992E+03  0.25500000000E-02 0. -1.
          2   -1    0    0  501    0  0.00000000000E+00 -0.00000000000E+00 -0.77327180274E+03  0.77327180275E+03  0.25500000000E-02 0.  1.
    5000001    1    1    2    0    0  0.21806466372E+03 -0.36792729208E+03 -0.17544195471E+03  0.49084373205E+03  0.16500000000E+03 0.  0.
   -5000001    1    1    2    0    0 -0.21806466372E+03  0.36792729208E+03 -0.32076184812E+03  0.55949607062E+03  0.16500000000E+03 0.  0.
<mgrwt>
<rscale>  0 0.92574051E+03</rscale>
<asrwt>0</asrwt>
<pdfrwt beam="1">  1        2 0.11046740E+00 0.92574051E+03</pdfrwt>
<pdfrwt beam="2">  1       -2 0.39581143E-01 0.92574051E+03</pdfrwt>
<totfact> 0.23979422E+02</totfact>
</mgrwt>
</event>
<event>
 4    1  0.1025337E-004  0.4694157E+03  0.7818608E-02  0.1022085E+00
          2   -1    0    0  501    0  0.00000000000E+00  0.00000000000E+00  0.43821131639E+03  0.43821131639E+03  0.25500000000E-02 0.  1.
         -2   -1    0    0    0  501 -0.00000000000E+00 -0.00000000000E+00 -0.12571051141E+03  0.12571051144E+03  0.25500000000E-02 0. -1.
    5000001    1    1    2    0    0  0.15754437272E+03  0.54969653400E+02  0.16173936739E+03  0.28500265812E+03  0.16500000000E+03 0.  0.
   -5000001    1    1    2    0    0 -0.15754437272E+03 -0.54969653400E+02  0.15076143758E+03  0.27891916971E+03  0.16500000000E+03 0.  0.
<mgrwt>
<rscale>  0 0.46941567E+03</rscale>
<asrwt>0</asrwt>
<pdfrwt beam="1">  1        2 0.62601617E-01 0.46941567E+03</pdfrwt>
<pdfrwt beam="2">  1       -2 0.17958644E-01 0.46941567E+03</pdfrwt>
<totfact> 0.19957019E+03</totfact>
</mgrwt>
</event>
<event>
 4    1  0.1025337E-004  0.6730975E+03  0.7818608E-02  0.9764378E-01
         -2   -1    0    0    0  501 -0.00000000000E+00  0.00000000000E+00  0.28315847241E+03  0.28315847243E+03  0.25500000000E-02 0. -1.
          2   -1    0    0  501    0  0.00000000000E+00 -0.00000000000E+00 -0.40000596001E+03  0.40000596002E+03  0.25500000000E-02 0.  1.
    5000001    1    1    2    0    0  0.27802696026E+03 -0.93286626705E+02 -0.52110484841E+02  0.34050240525E+03  0.16500000000E+03 0.  0.
   -5000001    1    1    2    0    0 -0.27802696026E+03  0.93286626705E+02 -0.64737002753E+02  0.34266202719E+03  0.16500000000E+03 0.  0.
<mgrwt>
<rscale>  0 0.67309755E+03</rscale>
<asrwt>0</asrwt>
<pdfrwt beam="1">  1        2 0.57143708E-01 0.67309755E+03</pdfrwt>
<pdfrwt beam="2">  1       -2 0.40451211E-01 0.67309755E+03</pdfrwt>
<totfact> 0.50370485E+02</totfact>
</mgrwt>
</event>
<event>
 4    1  0.1025337E-004  0.4618443E+03  0.7818608E-02  0.1024248E+00
         -2   -1    0    0    0  501 -0.00000000000E+00  0.00000000000E+00  0.21610072176E+03  0.21610072178E+03  0.25500000000E-02 0. -1.
          2   -1    0    0  501    0  0.00000000000E+00 -0.00000000000E+00 -0.24676006625E+03  0.24676006626E+03  0.25500000000E-02 0.  1.
    5000001    1    1    2    0    0  0.11043598050E+03  0.11150914768E+03  0.23090493871E+02  0.22888548821E+03  0.16500000000E+03 0.  0.
   -5000001    1    1    2    0    0 -0.11043598050E+03 -0.11150914768E+03 -0.53749838354E+02  0.23397529983E+03  0.16500000000E+03 0.  0.
<mgrwt>
<rscale>  0 0.46184425E+03</rscale>
<asrwt>0</asrwt>
<pdfrwt beam="1">  1        2 0.35251438E-01 0.46184425E+03</pdfrwt>
<pdfrwt beam="2">  1       -2 0.30871532E-01 0.46184425E+03</pdfrwt>
<totfact> 0.14358054E+03</totfact>
</mgrwt>
</event>
<event>
 4    1  0.1025337E-004  0.7072690E+03  0.7818608E-02  0.9704881E-01
         -2   -1    0    0    0  501 -0.00000000000E+00  0.00000000000E+00  0.64670486074E+02  0.64670486124E+02  0.25500000000E-02 0.  1.
          2   -1    0    0  501    0  0.00000000000E+00 -0.00000000000E+00 -0.19337623599E+04  0.19337623599E+04  0.25500000000E-02 0. -1.
    5000001    1    1    2    0    0 -0.10471331994E+03  0.29346073891E+03 -0.85725415968E+03  0.92692706237E+03  0.16500000000E+03 0.  0.
   -5000001    1    1    2    0    0  0.10471331994E+03 -0.29346073891E+03 -0.10118377141E+04  0.10715057836E+04  0.16500000000E+03 0.  0.
<mgrwt>
<rscale>  0 0.70726898E+03</rscale>
<asrwt>0</asrwt>
<pdfrwt beam="1">  1        2 0.27625173E+00 0.70726898E+03</pdfrwt>
<pdfrwt beam="2">  1       -2 0.92386421E-02 0.70726898E+03</pdfrwt>
<totfact> 0.69159791E+02</totfact>
</mgrwt>
</event>
<event>
 4    1  0.1025337E-004  0.4015049E+03  0.7818608E-02  0.1043260E+00
         -2   -1    0    0    0  501 -0.00000000000E+00  0.00000000000E+00  0.26615344132E+02  0.26615344254E+02  0.25500000000E-02 0. -1.
          2   -1    0    0  501    0  0.00000000000E+00 -0.00000000000E+00 -0.15142219683E+04  0.15142219683E+04  0.25500000000E-02 0.  1.
    5000001    1    1    2    0    0  0.17937405829E+02  0.11008499813E+03 -0.84059150246E+03  0.86386314388E+03  0.16500000000E+03 0.  0.
   -5000001    1    1    2    0    0 -0.17937405829E+02 -0.11008499813E+03 -0.64701512171E+03  0.67697416868E+03  0.16500000000E+03 0.  0.
<mgrwt>
<rscale>  0 0.40150486E+03</rscale>
<asrwt>0</asrwt>
<pdfrwt beam="1">  1        2 0.21631737E+00 0.40150486E+03</pdfrwt>
<pdfrwt beam="2">  1       -2 0.38021930E-02 0.40150486E+03</pdfrwt>
<totfact> 0.45670126E+03</totfact>
</mgrwt>
</event>
<event>
 4    1  0.1025337E-004  0.4093817E+03  0.7818608E-02  0.1040579E+00
         -2   -1    0    0    0  501 -0.00000000000E+00  0.00000000000E+00  0.16411238189E+03  0.16411238191E+03  0.25500000000E-02 0. -1.
          2   -1    0    0  501    0  0.00000000000E+00 -0.00000000000E+00 -0.25530278755E+03  0.25530278756E+03  0.25500000000E-02 0.  1.
    5000001    1    1    2    0    0 -0.32443706091E+01  0.11840330999E+03 -0.71583798552E+02  0.21535809706E+03  0.16500000000E+03 0.  0.
   -5000001    1    1    2    0    0  0.32443706091E+01 -0.11840330999E+03 -0.19606607114E+02  0.20405707241E+03  0.16500000000E+03 0.  0.
<mgrwt>
<rscale>  0 0.40938172E+03</rscale>
<asrwt>0</asrwt>
<pdfrwt beam="1">  1        2 0.36471827E-01 0.40938172E+03</pdfrwt>
<pdfrwt beam="2">  1       -2 0.23444626E-01 0.40938172E+03</pdfrwt>
<totfact> 0.22692757E+03</totfact>
</mgrwt>
</event>
<event>
 4    1  0.1025337E-004  0.7744040E+03  0.7818608E-02  0.9597823E-01
         -2   -1    0    0    0  501 -0.00000000000E+00  0.00000000000E+00  0.16361579167E+03  0.16361579169E+03  0.25500000000E-02 0. -1.
          2   -1    0    0  501    0  0.00000000000E+00 -0.00000000000E+00 -0.91632598519E+03  0.91632598519E+03  0.25500000000E-02 0.  1.
    5000001    1    1    2    0    0 -0.68699699196E+02 -0.21681823818E+03 -0.48438309622E+01  0.28103070967E+03  0.16500000000E+03 0.  0.
   -5000001    1    1    2    0    0  0.68699699196E+02  0.21681823818E+03 -0.74786636256E+03  0.79891106722E+03  0.16500000000E+03 0.  0.
<mgrwt>
<rscale>  0 0.77440403E+03</rscale>
<asrwt>0</asrwt>
<pdfrwt beam="1">  1        2 0.13090371E+00 0.77440403E+03</pdfrwt>
<pdfrwt beam="2">  1       -2 0.23373685E-01 0.77440403E+03</pdfrwt>
<totfact> 0.51492519E+02</totfact>
</mgrwt>
</event>
<event>
 4    1  0.1025337E-004  0.7660831E+03  0.7818608E-02  0.9610451E-01
          2   -1    0    0  501    0  0.00000000000E+00  0.00000000000E+00  0.72509758881E+03  0.72509758882E+03  0.25500000000E-02 0.  1.
         -2   -1    0    0    0  501 -0.00000000000E+00 -0.00000000000E+00 -0.20234633638E+03  0.20234633639E+03  0.25500000000E-02 0. -1.
    5000001    1    1    2    0    0  0.46483450075E+02  0.33727796334E+03  0.18895292686E+03  0.42290110458E+03  0.16500000000E+03 0.  0.
   -5000001    1    1    2    0    0 -0.46483450075E+02 -0.33727796334E+03  0.33379832558E+03  0.50454282063E+03  0.16500000000E+03 0.  0.
<mgrwt>
<rscale>  0 0.76608313E+03</rscale>
<asrwt>0</asrwt>
<pdfrwt beam="1">  1        2 0.10358537E+00 0.76608313E+03</pdfrwt>
<pdfrwt beam="2">  1       -2 0.28906619E-01 0.76608313E+03</pdfrwt>
<totfact> 0.47477680E+02</totfact>
</mgrwt>
</event>
<event>
 4    1  0.1025337E-004  0.5656498E+03  0.7818608E-02  0.9979352E-01
          2   -1    0    0  501    0  0.00000000000E+00  0.00000000000E+00  0.97648860309E+03  0.97648860309E+03  0.25500000000E-02 0.  1.
         -2   -1    0    0    0  501 -0.00000000000E+00 -0.00000000000E+00 -0.81915872391E+02  0.81915872430E+02  0.25500000000E-02 0. -1.
    5000001    1    1    2    0    0  0.22364058492E+03  0.23473890852E+02  0.53502584307E+03  0.60336041262E+03  0.16500000000E+03 0.  0.
   -5000001    1    1    2    0    0 -0.22364058492E+03 -0.23473890852E+02  0.35954688763E+03  0.45504406290E+03  0.16500000000E+03 0.  0.
<mgrwt>
<rscale>  0 0.56564977E+03</rscale>
<asrwt>0</asrwt>
<pdfrwt beam="1">  1        2 0.13949836E+00 0.56564977E+03</pdfrwt>
<pdfrwt beam="2">  1       -2 0.11702268E-01 0.56564977E+03</pdfrwt>
<totfact> 0.15468906E+03</totfact>
</mgrwt>
</event>
<event>
 4    1  0.1025337E-004  0.1488461E+04  0.7818608E-02  0.8892162E-01
         -2   -1    0    0    0  501 -0.00000000000E+00  0.00000000000E+00  0.31499206957E+03  0.31499206958E+03  0.25500000000E-02 0. -1.
          2   -1    0    0  501    0  0.00000000000E+00 -0.00000000000E+00 -0.17583912710E+04  0.17583912710E+04  0.25500000000E-02 0.  1.
    5000001    1    1    2    0    0 -0.17221701195E+03 -0.66221168923E+03 -0.38486758927E+03  0.80220389044E+03  0.16500000000E+03 0.  0.
   -5000001    1    1    2    0    0  0.17221701195E+03  0.66221168923E+03 -0.10585316122E+04  0.12711794502E+04  0.16500000000E+03 0.  0.
<mgrwt>
<rscale>  0 0.14884614E+04</rscale>
<asrwt>0</asrwt>
<pdfrwt beam="1">  1        2 0.25119875E+00 0.14884614E+04</pdfrwt>
<pdfrwt beam="2">  1       -2 0.44998868E-01 0.14884614E+04</pdfrwt>
<totfact> 0.48496309E+01</totfact>
</mgrwt>
</event>
<event>
 4    1  0.1025337E-004  0.9740846E+03  0.7818608E-02  0.9337434E-01
          2   -1    0    0  501    0  0.00000000000E+00  0.00000000000E+00  0.15226322572E+04  0.15226322572E+04  0.25500000000E-02 0.  1.
         -2   -1    0    0    0  501 -0.00000000000E+00 -0.00000000000E+00 -0.15578955034E+03  0.15578955036E+03  0.25500000000E-02 0. -1.
    5000001    1    1    2    0    0 -0.34161094942E+03  0.25122467507E+03  0.38411497810E+03  0.59546720693E+03  0.16500000000E+03 0.  0.
   -5000001    1    1    2    0    0  0.34161094942E+03 -0.25122467507E+03  0.98272772872E+03  0.10829546006E+04  0.16500000000E+03 0.  0.
<mgrwt>
<rscale>  0 0.97408459E+03</rscale>
<asrwt>0</asrwt>
<pdfrwt beam="1">  1        2 0.21751890E+00 0.97408459E+03</pdfrwt>
<pdfrwt beam="2">  1       -2 0.22255649E-01 0.97408459E+03</pdfrwt>
<totfact> 0.25080151E+02</totfact>
</mgrwt>
</event>
<event>
 4    1  0.1025337E-004  0.5846209E+03  0.7818608E-02  0.9937837E-01
         -2   -1    0    0    0  501 -0.00000000000E+00  0.00000000000E+00  0.89090234715E+02  0.89090234752E+02  0.25500000000E-02 0. -1.
          2   -1    0    0  501    0  0.00000000000E+00 -0.00000000000E+00 -0.95908811140E+03  0.95908811140E+03  0.25500000000E-02 0.  1.
    5000001    1    1    2    0    0 -0.72719752699E+02 -0.22527306643E+03 -0.51879311785E+03  0.59363912946E+03  0.16500000000E+03 0.  0.
   -5000001    1    1    2    0    0  0.72719752699E+02  0.22527306643E+03 -0.35120475883E+03  0.45453921670E+03  0.16500000000E+03 0.  0.
<mgrwt>
<rscale>  0 0.58462085E+03</rscale>
<asrwt>0</asrwt>
<pdfrwt beam="1">  1        2 0.13701258E+00 0.58462085E+03</pdfrwt>
<pdfrwt beam="2">  1       -2 0.12727177E-01 0.58462085E+03</pdfrwt>
<totfact> 0.13805192E+03</totfact>
</mgrwt>
</event>
<event>
 4    1  0.1025337E-004  0.4385565E+03  0.7818608E-02  0.1031191E+00
          2   -1    0    0  501    0  0.00000000000E+00  0.00000000000E+00  0.13288571119E+03  0.13288571121E+03  0.25500000000E-02 0.  1.
         -2   -1    0    0    0  501 -0.00000000000E+00 -0.00000000000E+00 -0.36183688757E+03  0.36183688758E+03  0.25500000000E-02 0. -1.
    5000001    1    1    2    0    0 -0.67280287628E+02  0.11820605667E+03 -0.16926130103E+03  0.27271541387E+03  0.16500000000E+03 0.  0.
   -5000001    1    1    2    0    0  0.67280287628E+02 -0.11820605667E+03 -0.59689875353E+02  0.22200718492E+03  0.16500000000E+03 0.  0.
<mgrwt>
<rscale>  0 0.43855651E+03</rscale>
<asrwt>0</asrwt>
<pdfrwt beam="1">  1        2 0.18983673E-01 0.43855651E+03</pdfrwt>
<pdfrwt beam="2">  1       -2 0.51690983E-01 0.43855651E+03</pdfrwt>
<totfact> 0.10685033E+03</totfact>
</mgrwt>
</event>
<event>
 4    1  0.1025337E-004  0.6673632E+03  0.7818608E-02  0.9774733E-01
         -2   -1    0    0    0  501 -0.00000000000E+00  0.00000000000E+00  0.70865555216E+02  0.70865555262E+02  0.25500000000E-02 0. -1.
          2   -1    0    0  501    0  0.00000000000E+00 -0.00000000000E+00 -0.15711922475E+04  0.15711922475E+04  0.25500000000E-02 0.  1.
    5000001    1    1    2    0    0 -0.24236368708E+03 -0.96589778062E+02 -0.10618697278E+04  0.11058309368E+04  0.16500000000E+03 0.  0.
   -5000001    1    1    2    0    0  0.24236368708E+03  0.96589778062E+02 -0.43845696448E+03  0.53622686593E+03  0.16500000000E+03 0.  0.
<mgrwt>
<rscale>  0 0.66736320E+03</rscale>
<asrwt>0</asrwt>
<pdfrwt beam="1">  1        2 0.22445601E+00 0.66736320E+03</pdfrwt>
<pdfrwt beam="2">  1       -2 0.10123652E-01 0.66736320E+03</pdfrwt>
<totfact> 0.91453569E+02</totfact>
</mgrwt>
</event>
<event>
 4    1  0.1025337E-004  0.5715002E+03  0.7818608E-02  0.9966364E-01
         -2   -1    0    0    0  501 -0.00000000000E+00  0.00000000000E+00  0.28004907714E+03  0.28004907715E+03  0.25500000000E-02 0. -1.
          2   -1    0    0  501    0  0.00000000000E+00 -0.00000000000E+00 -0.29156714856E+03  0.29156714857E+03  0.25500000000E-02 0.  1.
    5000001    1    1    2    0    0 -0.19798633532E+03 -0.12087777655E+03 -0.30625400626E+02  0.28630917031E+03  0.16500000000E+03 0.  0.
   -5000001    1    1    2    0    0  0.19798633532E+03  0.12087777655E+03  0.19107329209E+02  0.28530705541E+03  0.16500000000E+03 0.  0.
<mgrwt>
<rscale>  0 0.57150017E+03</rscale>
<asrwt>0</asrwt>
<pdfrwt beam="1">  1        2 0.41652450E-01 0.57150017E+03</pdfrwt>
<pdfrwt beam="2">  1       -2 0.40007011E-01 0.57150017E+03</pdfrwt>
<totfact> 0.73157416E+02</totfact>
</mgrwt>
</event>
<event>
 4    1  0.1025337E-004  0.7303032E+03  0.7818608E-02  0.9666769E-01
          2   -1    0    0  501    0  0.00000000000E+00  0.00000000000E+00  0.18992999349E+03  0.18992999350E+03  0.25500000000E-02 0.  1.
         -2   -1    0    0    0  501 -0.00000000000E+00 -0.00000000000E+00 -0.70202543233E+03  0.70202543233E+03  0.25500000000E-02 0. -1.
    5000001    1    1    2    0    0 -0.13275771698E+03 -0.29176505220E+03 -0.32683573575E+03  0.48661900421E+03  0.16500000000E+03 0.  0.
   -5000001    1    1    2    0    0  0.13275771698E+03  0.29176505220E+03 -0.18525970309E+03  0.40533642162E+03  0.16500000000E+03 0.  0.
<mgrwt>
<rscale>  0 0.73030319E+03</rscale>
<asrwt>0</asrwt>
<pdfrwt beam="1">  1        2 0.27132857E-01 0.73030319E+03</pdfrwt>
<pdfrwt beam="2">  1       -2 0.10028935E+00 0.73030319E+03</pdfrwt>
<totfact> 0.16519702E+02</totfact>
</mgrwt>
</event>
<event>
 4    1  0.1025337E-004  0.5967803E+03  0.7818608E-02  0.9912109E-01
         -2   -1    0    0    0  501 -0.00000000000E+00  0.00000000000E+00  0.69768027723E+02  0.69768027770E+02  0.25500000000E-02 0. -1.
          2   -1    0    0  501    0  0.00000000000E+00 -0.00000000000E+00 -0.12761816929E+04  0.12761816929E+04  0.25500000000E-02 0.  1.
    5000001    1    1    2    0    0 -0.22667516737E+03  0.10070174160E+03 -0.64156158116E+03  0.70735333087E+03  0.16500000000E+03 0.  0.
   -5000001    1    1    2    0    0  0.22667516737E+03 -0.10070174160E+03 -0.56485208404E+03  0.63859638983E+03  0.16500000000E+03 0.  0.
<mgrwt>
<rscale>  0 0.59678029E+03</rscale>
<asrwt>0</asrwt>
<pdfrwt beam="1">  1        2 0.18231166E+00 0.59678029E+03</pdfrwt>
<pdfrwt beam="2">  1       -2 0.99668619E-02 0.59678029E+03</pdfrwt>
<totfact> 0.13484850E+03</totfact>
</mgrwt>
</event>
<event>
 4    1  0.1025337E-004  0.4346561E+03  0.7818608E-02  0.1032399E+00
          2   -1    0    0  501    0  0.00000000000E+00  0.00000000000E+00  0.15173084429E+04  0.15173084429E+04  0.25500000000E-02 0.  1.
         -2   -1    0    0    0  501 -0.00000000000E+00 -0.00000000000E+00 -0.31128468149E+02  0.31128468253E+02  0.25500000000E-02 0. -1.
    5000001    1    1    2    0    0  0.10720419435E+03 -0.91565764602E+02  0.78362347519E+03  0.81312224137E+03  0.16500000000E+03 0.  0.
   -5000001    1    1    2    0    0 -0.10720419435E+03  0.91565764602E+02  0.70255649958E+03  0.73531466981E+03  0.16500000000E+03 0.  0.
<mgrwt>
<rscale>  0 0.43465613E+03</rscale>
<asrwt>0</asrwt>
<pdfrwt beam="1">  1        2 0.21675831E+00 0.43465613E+03</pdfrwt>
<pdfrwt beam="2">  1       -2 0.44469249E-02 0.43465613E+03</pdfrwt>
<totfact> 0.35842059E+03</totfact>
</mgrwt>
</event>
<event>
 4    1  0.1025337E-004  0.4840263E+03  0.7818608E-02  0.1018034E+00
          2   -1    0    0  501    0  0.00000000000E+00  0.00000000000E+00  0.18422111451E+04  0.18422111451E+04  0.25500000000E-02 0.  1.
         -2   -1    0    0    0  501 -0.00000000000E+00 -0.00000000000E+00 -0.31793518557E+02  0.31793518659E+02  0.25500000000E-02 0. -1.
    5000001    1    1    2    0    0  0.15070825902E+03  0.91336819713E+02  0.83927837566E+03  0.87330898646E+03  0.16500000000E+03 0.  0.
   -5000001    1    1    2    0    0 -0.15070825902E+03 -0.91336819713E+02  0.97113925087E+03  0.10006956773E+04  0.16500000000E+03 0.  0.
<mgrwt>
<rscale>  0 0.48402634E+03</rscale>
<asrwt>0</asrwt>
<pdfrwt beam="1">  1        2 0.26317309E+00 0.48402634E+03</pdfrwt>
<pdfrwt beam="2">  1       -2 0.45419300E-02 0.48402634E+03</pdfrwt>
<totfact> 0.23755177E+03</totfact>
</mgrwt>
</event>
<event>
 4    1  0.1025337E-004  0.6731491E+03  0.7818608E-02  0.9764286E-01
         -2   -1    0    0    0  501 -0.00000000000E+00  0.00000000000E+00  0.47654493627E+02  0.47654493696E+02  0.25500000000E-02 0. -1.
          2   -1    0    0  501    0  0.00000000000E+00 -0.00000000000E+00 -0.23771612241E+04  0.23771612241E+04  0.25500000000E-02 0.  1.
    5000001    1    1    2    0    0  0.16674515870E+03  0.23828641266E+03 -0.10264997345E+04  0.10795883787E+04  0.16500000000E+03 0.  0.
   -5000001    1    1    2    0    0 -0.16674515870E+03 -0.23828641266E+03 -0.13030069959E+04  0.13452273391E+04  0.16500000000E+03 0.  0.
<mgrwt>
<rscale>  0 0.67314906E+03</rscale>
<asrwt>0</asrwt>
<pdfrwt beam="1">  1        2 0.33959439E+00 0.67314906E+03</pdfrwt>
<pdfrwt beam="2">  1       -2 0.68077863E-02 0.67314906E+03</pdfrwt>
<totfact> 0.67339224E+02</totfact>
</mgrwt>
</event>
<event>
 4    1  0.1025337E-004  0.4052997E+03  0.7818608E-02  0.1041960E+00
          2   -1    0    0  501    0  0.00000000000E+00  0.00000000000E+00  0.34165548716E+03  0.34165548717E+03  0.25500000000E-02 0.  1.
         -2   -1    0    0    0  501 -0.00000000000E+00 -0.00000000000E+00 -0.12019991972E+03  0.12019991975E+03  0.25500000000E-02 0. -1.
    5000001    1    1    2    0    0  0.54019209157E+02 -0.10319185223E+03  0.12963621849E+03  0.23999413007E+03  0.16500000000E+03 0.  0.
   -5000001    1    1    2    0    0 -0.54019209157E+02  0.10319185223E+03  0.91819348941E+02  0.22186127685E+03  0.16500000000E+03 0.  0.
<mgrwt>
<rscale>  0 0.40529970E+03</rscale>
<asrwt>0</asrwt>
<pdfrwt beam="1">  1        2 0.48807928E-01 0.40529970E+03</pdfrwt>
<pdfrwt beam="2">  1       -2 0.17171417E-01 0.40529970E+03</pdfrwt>
<totfact> 0.28266987E+03</totfact>
</mgrwt>
</event>
<event>
 4    1  0.1025337E-004  0.9924034E+03  0.7818608E-02  0.9316916E-01
         -2   -1    0    0    0  501 -0.00000000000E+00  0.00000000000E+00  0.19696908204E+03  0.19696908206E+03  0.25500000000E-02 0. -1.
          2   -1    0    0  501    0  0.00000000000E+00 -0.00000000000E+00 -0.12500241182E+04  0.12500241182E+04  0.25500000000E-02 0.  1.
    5000001    1    1    2    0    0  0.25985868480E+03 -0.38918433497E+03 -0.52602150029E+03  0.72312834368E+03  0.16500000000E+03 0.  0.
   -5000001    1    1    2    0    0 -0.25985868480E+03  0.38918433497E+03 -0.52703353585E+03  0.72386485656E+03  0.16500000000E+03 0.  0.
<mgrwt>
<rscale>  0 0.99240335E+03</rscale>
<asrwt>0</asrwt>
<pdfrwt beam="1">  1        2 0.17857487E+00 0.99240335E+03</pdfrwt>
<pdfrwt beam="2">  1       -2 0.28138441E-01 0.99240335E+03</pdfrwt>
<totfact> 0.23028984E+02</totfact>
</mgrwt>
</event>
<event>
 4    1  0.1025337E-004  0.3726860E+03  0.7818608E-02  0.1053671E+00
         -2   -1    0    0    0  501 -0.00000000000E+00  0.00000000000E+00  0.66904228868E+02  0.66904228917E+02  0.25500000000E-02 0. -1.
          2   -1    0    0  501    0  0.00000000000E+00 -0.00000000000E+00 -0.51900615555E+03  0.51900615556E+03  0.25500000000E-02 0.  1.
    5000001    1    1    2    0    0 -0.51575254123E+02  0.68969910407E+02 -0.21182764852E+03  0.28198015543E+03  0.16500000000E+03 0.  0.
   -5000001    1    1    2    0    0  0.51575254123E+02 -0.68969910407E+02 -0.24027427816E+03  0.30393022904E+03  0.16500000000E+03 0.  0.
<mgrwt>
<rscale>  0 0.37268596E+03</rscale>
<asrwt>0</asrwt>
<pdfrwt beam="1">  1        2 0.74143734E-01 0.37268596E+03</pdfrwt>
<pdfrwt beam="2">  1       -2 0.95577473E-02 0.37268596E+03</pdfrwt>
<totfact> 0.46557471E+03</totfact>
</mgrwt>
</event>
<event>
 4    1  0.1025337E-004  0.4201108E+03  0.7818608E-02  0.1037030E+00
         -2   -1    0    0    0  501 -0.00000000000E+00  0.00000000000E+00  0.39668645131E+02  0.39668645213E+02  0.25500000000E-02 0. -1.
          2   -1    0    0  501    0  0.00000000000E+00 -0.00000000000E+00 -0.11122959128E+04  0.11122959128E+04  0.25500000000E-02 0.  1.
    5000001    1    1    2    0    0 -0.85610758798E+02 -0.97510607425E+02 -0.51494124332E+03  0.55608183270E+03  0.16500000000E+03 0.  0.
   -5000001    1    1    2    0    0  0.85610758798E+02  0.97510607425E+02 -0.55768602438E+03  0.59588272535E+03  0.16500000000E+03 0.  0.
<mgrwt>
<rscale>  0 0.42011080E+03</rscale>
<asrwt>0</asrwt>
<pdfrwt beam="1">  1        2 0.15889940E+00 0.42011080E+03</pdfrwt>
<pdfrwt beam="2">  1       -2 0.56669500E-02 0.42011080E+03</pdfrwt>
<totfact> 0.40725015E+03</totfact>
</mgrwt>
</event>
<event>
 4    1  0.1025337E-004  0.6583313E+03  0.7818608E-02  0.9791271E-01
         -2   -1    0    0    0  501 -0.00000000000E+00  0.00000000000E+00  0.43991323655E+02  0.43991323729E+02  0.25500000000E-02 0. -1.
          2   -1    0    0  501    0  0.00000000000E+00 -0.00000000000E+00 -0.24629859533E+04  0.24629859533E+04  0.25500000000E-02 0.  1.
    5000001    1    1    2    0    0 -0.40401697175E+02 -0.27726648523E+03 -0.10147256699E+04  0.10655525262E+04  0.16500000000E+03 0.  0.
   -5000001    1    1    2    0    0  0.40401697175E+02  0.27726648523E+03 -0.14042689597E+04  0.14414247508E+04  0.16500000000E+03 0.  0.
<mgrwt>
<rscale>  0 0.65833126E+03</rscale>
<asrwt>0</asrwt>
<pdfrwt beam="1">  1        2 0.35185505E+00 0.65833126E+03</pdfrwt>
<pdfrwt beam="2">  1       -2 0.62844764E-02 0.65833126E+03</pdfrwt>
<totfact> 0.69123436E+02</totfact>
</mgrwt>
</event>
<event>
 4    1  0.1025337E-004  0.6831114E+03  0.7818608E-02  0.9746558E-01
          2   -1    0    0  501    0  0.00000000000E+00  0.00000000000E+00  0.28712276255E+04  0.28712276255E+04  0.25500000000E-02 0.  1.
         -2   -1    0    0    0  501 -0.00000000000E+00 -0.00000000000E+00 -0.40630802766E+02  0.40630802846E+02  0.25500000000E-02 0. -1.
    5000001    1    1    2    0    0  0.17042394216E+03 -0.22331720460E+03  0.18525130125E+04  0.18809424115E+04  0.16500000000E+03 0.  0.
   -5000001    1    1    2    0    0 -0.17042394216E+03  0.22331720460E+03  0.97808381022E+03  0.10309160168E+04  0.16500000000E+03 0.  0.
<mgrwt>
<rscale>  0 0.68311136E+03</rscale>
<asrwt>0</asrwt>
<pdfrwt beam="1">  1        2 0.41017523E+00 0.68311136E+03</pdfrwt>
<pdfrwt beam="2">  1       -2 0.58044024E-02 0.68311136E+03</pdfrwt>
<totfact> 0.47763358E+02</totfact>
</mgrwt>
</event>
<event>
 4    1  0.1025337E-004  0.5881861E+03  0.7818608E-02  0.9930224E-01
          2   -1    0    0  501    0  0.00000000000E+00  0.00000000000E+00  0.31032170408E+04  0.31032170408E+04  0.25500000000E-02 0.  1.
         -2   -1    0    0    0  501 -0.00000000000E+00 -0.00000000000E+00 -0.27871309656E+02  0.27871309772E+02  0.25500000000E-02 0. -1.
    5000001    1    1    2    0    0 -0.13762794950E+03  0.66038861051E+02  0.52816580274E+03  0.57400931947E+03  0.16500000000E+03 0.  0.
   -5000001    1    1    2    0    0  0.13762794950E+03 -0.66038861051E+02  0.25471799284E+04  0.25570790311E+04  0.16500000000E+03 0.  0.
<mgrwt>
<rscale>  0 0.58818610E+03</rscale>
<asrwt>0</asrwt>
<pdfrwt beam="1">  1        2 0.44331637E+00 0.58818610E+03</pdfrwt>
<pdfrwt beam="2">  1       -2 0.39816188E-02 0.58818610E+03</pdfrwt>
<totfact> 0.64659180E+02</totfact>
</mgrwt>
</event>
<event>
 4    1  0.1025337E-004  0.4242187E+03  0.7818608E-02  0.1035702E+00
          2   -1    0    0  501    0  0.00000000000E+00  0.00000000000E+00  0.20244341270E+03  0.20244341272E+03  0.25500000000E-02 0.  1.
         -2   -1    0    0    0  501 -0.00000000000E+00 -0.00000000000E+00 -0.22223676095E+03  0.22223676097E+03  0.25500000000E-02 0. -1.
    5000001    1    1    2    0    0  0.33597898958E+02 -0.83969267714E+02 -0.10790983502E+03  0.21690825071E+03  0.16500000000E+03 0.  0.
   -5000001    1    1    2    0    0 -0.33597898958E+02  0.83969267714E+02  0.88116486769E+02  0.20777192297E+03  0.16500000000E+03 0.  0.
<mgrwt>
<rscale>  0 0.42421866E+03</rscale>
<asrwt>0</asrwt>
<pdfrwt beam="1">  1        2 0.28920488E-01 0.42421866E+03</pdfrwt>
<pdfrwt beam="2">  1       -2 0.31748109E-01 0.42421866E+03</pdfrwt>
<totfact> 0.16970455E+03</totfact>
</mgrwt>
</event>
<event>
 4    1  0.1025337E-004  0.4310809E+03  0.7818608E-02  0.1033519E+00
          2   -1    0    0  501    0  0.00000000000E+00  0.00000000000E+00  0.12143801599E+03  0.12143801602E+03  0.25500000000E-02 0.  1.
         -2   -1    0    0    0  501 -0.00000000000E+00 -0.00000000000E+00 -0.38256302120E+03  0.38256302120E+03  0.25500000000E-02 0. -1.
    5000001    1    1    2    0    0 -0.10837473562E+03  0.69551634957E+01 -0.29721583239E+02  0.19975442456E+03  0.16500000000E+03 0.  0.
   -5000001    1    1    2    0    0  0.10837473562E+03 -0.69551634957E+01 -0.23140342196E+03  0.30424661266E+03  0.16500000000E+03 0.  0.
<mgrwt>
<rscale>  0 0.43108094E+03</rscale>
<asrwt>0</asrwt>
<pdfrwt beam="1">  1        2 0.17348288E-01 0.43108094E+03</pdfrwt>
<pdfrwt beam="2">  1       -2 0.54651859E-01 0.43108094E+03</pdfrwt>
<totfact> 0.10601516E+03</totfact>
</mgrwt>
</event>
<event>
 4    1  0.1025337E-004  0.1335870E+04  0.7818608E-02  0.9001594E-01
          2   -1    0    0  501    0  0.00000000000E+00  0.00000000000E+00  0.19062194520E+04  0.19062194520E+04  0.25500000000E-02 0.  1.
         -2   -1    0    0    0  501 -0.00000000000E+00 -0.00000000000E+00 -0.23404289202E+03  0.23404289203E+03  0.25500000000E-02 0. -1.
    5000001    1    1    2    0    0  0.50168938247E+03 -0.32925872608E+03  0.44755954747E+03  0.76657556295E+03  0.16500000000E+03 0.  0.
   -5000001    1    1    2    0    0 -0.50168938247E+03  0.32925872608E+03  0.12246170125E+04  0.13736867811E+04  0.16500000000E+03 0.  0.
<mgrwt>
<rscale>  0 0.13358699E+04</rscale>
<asrwt>0</asrwt>
<pdfrwt beam="1">  1        2 0.27231704E+00 0.13358699E+04</pdfrwt>
<pdfrwt beam="2">  1       -2 0.33434702E-01 0.13358699E+04</pdfrwt>
<totfact> 0.73343716E+01</totfact>
</mgrwt>
</event>
<event>
 4    1  0.1025337E-004  0.4160282E+03  0.7818608E-02  0.1038367E+00
         -2   -1    0    0    0  501 -0.00000000000E+00  0.00000000000E+00  0.92860577374E+02  0.92860577409E+02  0.25500000000E-02 0. -1.
          2   -1    0    0  501    0  0.00000000000E+00 -0.00000000000E+00 -0.46596603941E+03  0.46596603942E+03  0.25500000000E-02 0.  1.
    5000001    1    1    2    0    0 -0.58816854718E+02 -0.11194434793E+03 -0.19641582670E+03  0.28599849022E+03  0.16500000000E+03 0.  0.
   -5000001    1    1    2    0    0  0.58816854718E+02  0.11194434793E+03 -0.17668963534E+03  0.27282812661E+03  0.16500000000E+03 0.  0.
<mgrwt>
<rscale>  0 0.41602825E+03</rscale>
<asrwt>0</asrwt>
<pdfrwt beam="1">  1        2 0.66566575E-01 0.41602825E+03</pdfrwt>
<pdfrwt beam="2">  1       -2 0.13265797E-01 0.41602825E+03</pdfrwt>
<totfact> 0.30937904E+03</totfact>
</mgrwt>
</event>
<event>
 4    1  0.1025337E-004  0.3725453E+03  0.7818608E-02  0.1053724E+00
          2   -1    0    0  501    0  0.00000000000E+00  0.00000000000E+00  0.90679729823E+03  0.90679729824E+03  0.25500000000E-02 0.  1.
         -2   -1    0    0    0  501 -0.00000000000E+00 -0.00000000000E+00 -0.38263783216E+02  0.38263783301E+02  0.25500000000E-02 0. -1.
    5000001    1    1    2    0    0  0.50914048896E+02 -0.35354834983E+02  0.58711185495E+03  0.61299880502E+03  0.16500000000E+03 0.  0.
   -5000001    1    1    2    0    0 -0.50914048896E+02  0.35354834983E+02  0.28142166006E+03  0.33206227651E+03  0.16500000000E+03 0.  0.
<mgrwt>
<rscale>  0 0.37254527E+03</rscale>
<asrwt>0</asrwt>
<pdfrwt beam="1">  1        2 0.12954247E+00 0.37254527E+03</pdfrwt>
<pdfrwt beam="2">  1       -2 0.54662546E-02 0.37254527E+03</pdfrwt>
<totfact> 0.57045734E+03</totfact>
</mgrwt>
</event>
<event>
 4    1  0.1025337E-004  0.4159594E+03  0.7818608E-02  0.1038389E+00
         -2   -1    0    0    0  501 -0.00000000000E+00  0.00000000000E+00  0.30536342558E+02  0.30536342665E+02  0.25500000000E-02 0. -1.
          2   -1    0    0  501    0  0.00000000000E+00 -0.00000000000E+00 -0.14165269753E+04  0.14165269753E+04  0.25500000000E-02 0.  1.
    5000001    1    1    2    0    0 -0.12199533802E+03  0.29782909472E+01 -0.57559636730E+03  0.61108748209E+03  0.16500000000E+03 0.  0.
   -5000001    1    1    2    0    0  0.12199533802E+03 -0.29782909472E+01 -0.81039426548E+03  0.83597583592E+03  0.16500000000E+03 0.  0.
<mgrwt>
<rscale>  0 0.41595939E+03</rscale>
<asrwt>0</asrwt>
<pdfrwt beam="1">  1        2 0.20236096E+00 0.41595939E+03</pdfrwt>
<pdfrwt beam="2">  1       -2 0.43623355E-02 0.41595939E+03</pdfrwt>
<totfact> 0.41618318E+03</totfact>
</mgrwt>
</event>
<event>
 4    1  0.1025337E-004  0.1618476E+04  0.7818608E-02  0.8809277E-01
         -2   -1    0    0    0  501 -0.00000000000E+00  0.00000000000E+00  0.60924930739E+03  0.60924930739E+03  0.25500000000E-02 0. -1.
          2   -1    0    0  501    0  0.00000000000E+00 -0.00000000000E+00 -0.10748738398E+04  0.10748738398E+04  0.25500000000E-02 0.  1.
    5000001    1    1    2    0    0 -0.59892406414E+02  0.73075128572E+03 -0.54507873722E+03  0.92839666722E+03  0.16500000000E+03 0.  0.
   -5000001    1    1    2    0    0  0.59892406414E+02 -0.73075128572E+03  0.79454204770E+02  0.75572648001E+03  0.16500000000E+03 0.  0.
<mgrwt>
<rscale>  0 0.16184760E+04</rscale>
<asrwt>0</asrwt>
<pdfrwt beam="1">  1        2 0.15355340E+00 0.16184760E+04</pdfrwt>
<pdfrwt beam="2">  1       -2 0.87035616E-01 0.16184760E+04</pdfrwt>
<totfact> 0.27711042E+01</totfact>
</mgrwt>
</event>
<event>
 4    1  0.1025337E-004  0.7711571E+03  0.7818608E-02  0.9602731E-01
         -2   -1    0    0    0  501 -0.00000000000E+00  0.00000000000E+00  0.60212656460E+02  0.60212656514E+02  0.25500000000E-02 0. -1.
          2   -1    0    0  501    0  0.00000000000E+00 -0.00000000000E+00 -0.24690956088E+04  0.24690956088E+04  0.25500000000E-02 0.  1.
    5000001    1    1    2    0    0  0.26642802600E+03 -0.21119465226E+03 -0.95339119081E+03  0.10255568424E+04  0.16500000000E+03 0.  0.
   -5000001    1    1    2    0    0 -0.26642802600E+03  0.21119465226E+03 -0.14554917615E+04  0.15037514230E+04  0.16500000000E+03 0.  0.
<mgrwt>
<rscale>  0 0.77115707E+03</rscale>
<asrwt>0</asrwt>
<pdfrwt beam="1">  1        2 0.35272788E+00 0.77115707E+03</pdfrwt>
<pdfrwt beam="2">  1       -2 0.86018096E-02 0.77115707E+03</pdfrwt>
<totfact> 0.41288839E+02</totfact>
</mgrwt>
</event>
<event>
 4    1  0.1025337E-004  0.6867970E+03  0.7818608E-02  0.9740081E-01
         -2   -1    0    0    0  501 -0.00000000000E+00  0.00000000000E+00  0.37991134822E+02  0.37991134908E+02  0.25500000000E-02 0. -1.
          2   -1    0    0  501    0  0.00000000000E+00 -0.00000000000E+00 -0.31039482791E+04  0.31039482791E+04  0.25500000000E-02 0.  1.
    5000001    1    1    2    0    0 -0.17547107569E+03 -0.16437941324E+03 -0.70335624544E+03  0.76141033478E+03  0.16500000000E+03 0.  0.
   -5000001    1    1    2    0    0  0.17547107569E+03  0.16437941324E+03 -0.23626008988E+04  0.23805290792E+04  0.16500000000E+03 0.  0.
<mgrwt>
<rscale>  0 0.68679696E+03</rscale>
<asrwt>0</asrwt>
<pdfrwt beam="1">  1        2 0.44342102E+00 0.68679696E+03</pdfrwt>
<pdfrwt beam="2">  1       -2 0.54273070E-02 0.68679696E+03</pdfrwt>
<totfact> 0.39597531E+02</totfact>
</mgrwt>
</event>
<event>
 4    1  0.1025337E-004  0.4922288E+03  0.7818608E-02  0.1015827E+00
         -2   -1    0    0    0  501 -0.00000000000E+00  0.00000000000E+00  0.98834269860E+02  0.98834269893E+02  0.25500000000E-02 0. -1.
          2   -1    0    0  501    0  0.00000000000E+00 -0.00000000000E+00 -0.61286734918E+03  0.61286734919E+03  0.25500000000E-02 0.  1.
    5000001    1    1    2    0    0  0.10543662699E+03 -0.14686922240E+03 -0.21987565076E+03  0.32902545889E+03  0.16500000000E+03 0.  0.
   -5000001    1    1    2    0    0 -0.10543662699E+03  0.14686922240E+03 -0.29415742856E+03  0.38267616019E+03  0.16500000000E+03 0.  0.
<mgrwt>
<rscale>  0 0.49222880E+03</rscale>
<asrwt>0</asrwt>
<pdfrwt beam="1">  1        2 0.87552477E-01 0.49222880E+03</pdfrwt>
<pdfrwt beam="2">  1       -2 0.14119182E-01 0.49222880E+03</pdfrwt>
<totfact> 0.20445802E+03</totfact>
</mgrwt>
</event>
<event>
 4    1  0.1025337E-004  0.9939963E+03  0.7818608E-02  0.9315154E-01
         -2   -1    0    0    0  501 -0.00000000000E+00  0.00000000000E+00  0.40072663021E+03  0.40072663022E+03  0.25500000000E-02 0. -1.
          2   -1    0    0  501    0  0.00000000000E+00 -0.00000000000E+00 -0.61639819620E+03  0.61639819620E+03  0.25500000000E-02 0.  1.
    5000001    1    1    2    0    0 -0.33584233251E+03  0.30926979334E+03 -0.21682366848E+03  0.53167224922E+03  0.16500000000E+03 0.  0.
   -5000001    1    1    2    0    0  0.33584233251E+03 -0.30926979334E+03  0.11521024977E+01  0.48545257721E+03  0.16500000000E+03 0.  0.
<mgrwt>
<rscale>  0 0.99399632E+03</rscale>
<asrwt>0</asrwt>
<pdfrwt beam="1">  1        2 0.88056885E-01 0.99399632E+03</pdfrwt>
<pdfrwt beam="2">  1       -2 0.57246662E-01 0.99399632E+03</pdfrwt>
<totfact> 0.15010250E+02</totfact>
</mgrwt>
</event>
<event>
 4    1  0.1025337E-004  0.3355271E+03  0.7818608E-02  0.1068717E+00
         -2   -1    0    0    0  501 -0.00000000000E+00  0.00000000000E+00  0.20034853543E+03  0.20034853544E+03  0.25500000000E-02 0. -1.
          2   -1    0    0  501    0  0.00000000000E+00 -0.00000000000E+00 -0.14047819787E+03  0.14047819790E+03  0.25500000000E-02 0.  1.
    5000001    1    1    2    0    0  0.99109963621E+00 -0.29721931786E+02  0.35964039046E+02  0.17147241064E+03  0.16500000000E+03 0.  0.
   -5000001    1    1    2    0    0 -0.99109963621E+00  0.29721931786E+02  0.23906298507E+02  0.16935432270E+03  0.16500000000E+03 0.  0.
<mgrwt>
<rscale>  0 0.33552706E+03</rscale>
<asrwt>0</asrwt>
<pdfrwt beam="1">  1        2 0.20068314E-01 0.33552706E+03</pdfrwt>
<pdfrwt beam="2">  1       -2 0.28621219E-01 0.33552706E+03</pdfrwt>
<totfact> 0.30918839E+03</totfact>
</mgrwt>
</event>
<event>
 4    1  0.1025337E-004  0.7581759E+03  0.7818608E-02  0.9622610E-01
         -2   -1    0    0    0  501 -0.00000000000E+00  0.00000000000E+00  0.74894588112E+03  0.74894588113E+03  0.25500000000E-02 0. -1.
          2   -1    0    0  501    0  0.00000000000E+00 -0.00000000000E+00 -0.19187989406E+03  0.19187989408E+03  0.25500000000E-02 0.  1.
    5000001    1    1    2    0    0 -0.73824954502E+02 -0.31964360423E+03  0.16172613574E+03  0.40125116899E+03  0.16500000000E+03 0.  0.
   -5000001    1    1    2    0    0  0.73824954502E+02  0.31964360423E+03  0.39533985132E+03  0.53957460622E+03  0.16500000000E+03 0.  0.
<mgrwt>
<rscale>  0 0.75817585E+03</rscale>
<asrwt>0</asrwt>
<pdfrwt beam="1">  1        2 0.27411413E-01 0.75817585E+03</pdfrwt>
<pdfrwt beam="2">  1       -2 0.10699227E+00 0.75817585E+03</pdfrwt>
<totfact> 0.13974530E+02</totfact>
</mgrwt>
</event>
<event>
 4    1  0.1025337E-004  0.5325974E+03  0.7818608E-02  0.1005604E+00
          2   -1    0    0  501    0  0.00000000000E+00  0.00000000000E+00  0.12753545442E+04  0.12753545442E+04  0.25500000000E-02 0.  1.
         -2   -1    0    0    0  501 -0.00000000000E+00 -0.00000000000E+00 -0.55604149476E+02  0.55604149534E+02  0.25500000000E-02 0. -1.
    5000001    1    1    2    0    0  0.33671148966E+02 -0.16744199998E+03  0.91099573263E+03  0.94143974555E+03  0.16500000000E+03 0.  0.
   -5000001    1    1    2    0    0 -0.33671148966E+02  0.16744199998E+03  0.30875466208E+03  0.38951894817E+03  0.16500000000E+03 0.  0.
<mgrwt>
<rscale>  0 0.53259743E+03</rscale>
<asrwt>0</asrwt>
<pdfrwt beam="1">  1        2 0.18219348E+00 0.53259743E+03</pdfrwt>
<pdfrwt beam="2">  1       -2 0.79434513E-02 0.53259743E+03</pdfrwt>
<totfact> 0.19455230E+03</totfact>
</mgrwt>
</event>
<event>
 4    1  0.1025337E-004  0.3629810E+03  0.7818608E-02  0.1057410E+00
          2   -1    0    0  501    0  0.00000000000E+00  0.00000000000E+00  0.87323516632E+03  0.87323516632E+03  0.25500000000E-02 0.  1.
         -2   -1    0    0    0  501 -0.00000000000E+00 -0.00000000000E+00 -0.37720432116E+02  0.37720432202E+02  0.25500000000E-02 0. -1.
    5000001    1    1    2    0    0 -0.70333830597E+02 -0.61636272184E+01  0.34999820119E+03  0.39333011436E+03  0.16500000000E+03 0.  0.
   -5000001    1    1    2    0    0  0.70333830597E+02  0.61636272184E+01  0.48551653301E+03  0.51762548416E+03  0.16500000000E+03 0.  0.
<mgrwt>
<rscale>  0 0.36298103E+03</rscale>
<asrwt>0</asrwt>
<pdfrwt beam="1">  1        2 0.12474787E+00 0.36298103E+03</pdfrwt>
<pdfrwt beam="2">  1       -2 0.53886334E-02 0.36298103E+03</pdfrwt>
<totfact> 0.61227986E+03</totfact>
</mgrwt>
</event>
<event>
 4    1  0.1025337E-004  0.5690222E+03  0.7818608E-02  0.9971845E-01
         -2   -1    0    0    0  501 -0.00000000000E+00  0.00000000000E+00  0.62499923182E+02  0.62499923234E+02  0.25500000000E-02 0. -1.
          2   -1    0    0  501    0  0.00000000000E+00 -0.00000000000E+00 -0.12951464326E+04  0.12951464326E+04  0.25500000000E-02 0.  1.
    5000001    1    1    2    0    0  0.60500039952E+02  0.10789799702E+03 -0.14866099833E+03  0.25421904928E+03  0.16500000000E+03 0.  0.
   -5000001    1    1    2    0    0 -0.60500039952E+02 -0.10789799702E+03 -0.10839855111E+04  0.11034273066E+04  0.16500000000E+03 0.  0.
<mgrwt>
<rscale>  0 0.56902215E+03</rscale>
<asrwt>0</asrwt>
<pdfrwt beam="1">  1        2 0.18502090E+00 0.56902215E+03</pdfrwt>
<pdfrwt beam="2">  1       -2 0.89285613E-02 0.56902215E+03</pdfrwt>
<totfact> 0.15734846E+03</totfact>
</mgrwt>
</event>
<event>
 4    1  0.1025337E-004  0.4498188E+03  0.7818608E-02  0.1027776E+00
          2   -1    0    0  501    0  0.00000000000E+00  0.00000000000E+00  0.57103573475E+03  0.57103573476E+03  0.25500000000E-02 0.  1.
         -2   -1    0    0    0  501 -0.00000000000E+00 -0.00000000000E+00 -0.88583318678E+02  0.88583318715E+02  0.25500000000E-02 0. -1.
    5000001    1    1    2    0    0 -0.14233332163E+03  0.48164046220E+02  0.28219895480E+03  0.35977743104E+03  0.16500000000E+03 0.  0.
   -5000001    1    1    2    0    0  0.14233332163E+03 -0.48164046220E+02  0.20025346127E+03  0.29984162244E+03  0.16500000000E+03 0.  0.
<mgrwt>
<rscale>  0 0.44981881E+03</rscale>
<asrwt>0</asrwt>
<pdfrwt beam="1">  1        2 0.81576535E-01 0.44981881E+03</pdfrwt>
<pdfrwt beam="2">  1       -2 0.12654760E-01 0.44981881E+03</pdfrwt>
<totfact> 0.26588412E+03</totfact>
</mgrwt>
</event>
<event>
 4    1  0.1025337E-004  0.7537592E+03  0.7818608E-02  0.9629471E-01
          2   -1    0    0  501    0  0.00000000000E+00  0.00000000000E+00  0.10982156863E+04  0.10982156863E+04  0.25500000000E-02 0.  1.
         -2   -1    0    0    0  501 -0.00000000000E+00 -0.00000000000E+00 -0.12933546701E+03  0.12933546704E+03  0.25500000000E-02 0. -1.
    5000001    1    1    2    0    0  0.32770132350E+03  0.86151036211E+02  0.48729834169E+03  0.61603151890E+03  0.16500000000E+03 0.  0.
   -5000001    1    1    2    0    0 -0.32770132350E+03 -0.86151036211E+02  0.48158187756E+03  0.61151963440E+03  0.16500000000E+03 0.  0.
<mgrwt>
<rscale>  0 0.75375922E+03</rscale>
<asrwt>0</asrwt>
<pdfrwt beam="1">  1        2 0.15688796E+00 0.75375922E+03</pdfrwt>
<pdfrwt beam="2">  1       -2 0.18476495E-01 0.75375922E+03</pdfrwt>
<totfact> 0.60267913E+02</totfact>
</mgrwt>
</event>
<event>
 4    1  0.1025337E-004  0.7342286E+03  0.7818608E-02  0.9660423E-01
          2   -1    0    0  501    0  0.00000000000E+00  0.00000000000E+00  0.28299253666E+04  0.28299253666E+04  0.25500000000E-02 0.  1.
         -2   -1    0    0    0  501 -0.00000000000E+00 -0.00000000000E+00 -0.47624190152E+02  0.47624190220E+02  0.25500000000E-02 0. -1.
    5000001    1    1    2    0    0 -0.16290105745E+03 -0.28250180048E+03  0.12551679386E+04  0.13072932249E+04  0.16500000000E+03 0.  0.
   -5000001    1    1    2    0    0  0.16290105745E+03  0.28250180048E+03  0.15271332379E+04  0.15702563320E+04  0.16500000000E+03 0.  0.
<mgrwt>
<rscale>  0 0.73422859E+03</rscale>
<asrwt>0</asrwt>
<pdfrwt beam="1">  1        2 0.40427494E+00 0.73422859E+03</pdfrwt>
<pdfrwt beam="2">  1       -2 0.68034576E-02 0.73422859E+03</pdfrwt>
<totfact> 0.38951766E+02</totfact>
</mgrwt>
</event>
<event>
 4    1  0.1025337E-004  0.5125462E+03  0.7818608E-02  0.1010555E+00
         -2   -1    0    0    0  501 -0.00000000000E+00  0.00000000000E+00  0.45079108435E+02  0.45079108507E+02  0.25500000000E-02 0. -1.
          2   -1    0    0  501    0  0.00000000000E+00 -0.00000000000E+00 -0.14569035578E+04  0.14569035578E+04  0.25500000000E-02 0.  1.
    5000001    1    1    2    0    0 -0.13194050642E+03  0.10558326282E+03 -0.41441449655E+03  0.47699108752E+03  0.16500000000E+03 0.  0.
   -5000001    1    1    2    0    0  0.13194050642E+03 -0.10558326282E+03 -0.99740995285E+03  0.10249915788E+04  0.16500000000E+03 0.  0.
<mgrwt>
<rscale>  0 0.51254625E+03</rscale>
<asrwt>0</asrwt>
<pdfrwt beam="1">  1        2 0.20812905E+00 0.51254625E+03</pdfrwt>
<pdfrwt beam="2">  1       -2 0.64398736E-02 0.51254625E+03</pdfrwt>
<totfact> 0.21690030E+03</totfact>
</mgrwt>
</event>
<event>
 4    1  0.1025337E-004  0.8562194E+03  0.7818608E-02  0.9482027E-01
         -2   -1    0    0    0  501 -0.00000000000E+00  0.00000000000E+00  0.10053431371E+03  0.10053431374E+03  0.25500000000E-02 0. -1.
          2   -1    0    0  501    0  0.00000000000E+00 -0.00000000000E+00 -0.18230382347E+04  0.18230382347E+04  0.25500000000E-02 0.  1.
    5000001    1    1    2    0    0 -0.34097801985E+03  0.19464656396E+03 -0.95916824913E+03  0.10494674959E+04  0.16500000000E+03 0.  0.
   -5000001    1    1    2    0    0  0.34097801985E+03 -0.19464656396E+03 -0.76333567184E+03  0.87410505248E+03  0.16500000000E+03 0.  0.
<mgrwt>
<rscale>  0 0.85621936E+03</rscale>
<asrwt>0</asrwt>
<pdfrwt beam="1">  1        2 0.26043401E+00 0.85621936E+03</pdfrwt>
<pdfrwt beam="2">  1       -2 0.14362046E-01 0.85621936E+03</pdfrwt>
<totfact> 0.37680578E+02</totfact>
</mgrwt>
</event>
<event>
 4    1  0.1025337E-004  0.4457601E+03  0.7818608E-02  0.1028994E+00
         -2   -1    0    0    0  501 -0.00000000000E+00  0.00000000000E+00  0.20388553594E+03  0.20388553596E+03  0.25500000000E-02 0. -1.
          2   -1    0    0  501    0  0.00000000000E+00 -0.00000000000E+00 -0.24364411859E+03  0.24364411860E+03  0.25500000000E-02 0.  1.
    5000001    1    1    2    0    0  0.96197160249E+02  0.72016087956E+02  0.69976292323E+02  0.21578204757E+03  0.16500000000E+03 0.  0.
   -5000001    1    1    2    0    0 -0.96197160249E+02 -0.72016087956E+02 -0.10973487497E+03  0.23174760700E+03  0.16500000000E+03 0.  0.
<mgrwt>
<rscale>  0 0.44576008E+03</rscale>
<asrwt>0</asrwt>
<pdfrwt beam="1">  1        2 0.34806303E-01 0.44576008E+03</pdfrwt>
<pdfrwt beam="2">  1       -2 0.29126505E-01 0.44576008E+03</pdfrwt>
<totfact> 0.16198619E+03</totfact>
</mgrwt>
</event>
<event>
 4    1  0.1025337E-004  0.6286595E+03  0.7818608E-02  0.9847668E-01
         -2   -1    0    0    0  501 -0.00000000000E+00  0.00000000000E+00  0.72883857635E+02  0.72883857679E+02  0.25500000000E-02 0. -1.
          2   -1    0    0  501    0  0.00000000000E+00 -0.00000000000E+00 -0.13556253413E+04  0.13556253414E+04  0.25500000000E-02 0.  1.
    5000001    1    1    2    0    0 -0.22269409009E+02  0.13271965414E+03 -0.11667991760E+04  0.11860673464E+04  0.16500000000E+03 0.  0.
   -5000001    1    1    2    0    0  0.22269409009E+02 -0.13271965414E+03 -0.11594230772E+03  0.24244185260E+03  0.16500000000E+03 0.  0.
<mgrwt>
<rscale>  0 0.62865954E+03</rscale>
<asrwt>0</asrwt>
<pdfrwt beam="1">  1        2 0.19366075E+00 0.62865954E+03</pdfrwt>
<pdfrwt beam="2">  1       -2 0.10411981E-01 0.62865954E+03</pdfrwt>
<totfact> 0.11363778E+03</totfact>
</mgrwt>
</event>
<event>
 4    1  0.1025337E-004  0.4424107E+03  0.7818608E-02  0.1030010E+00
          2   -1    0    0  501    0  0.00000000000E+00  0.00000000000E+00  0.26407964596E+03  0.26407964597E+03  0.25500000000E-02 0.  1.
         -2   -1    0    0    0  501 -0.00000000000E+00 -0.00000000000E+00 -0.18529181175E+03  0.18529181177E+03  0.25500000000E-02 0. -1.
    5000001    1    1    2    0    0 -0.11066997906E+03  0.67558227214E+02 -0.31669986400E+02  0.21222616796E+03  0.16500000000E+03 0.  0.
   -5000001    1    1    2    0    0  0.11066997906E+03 -0.67558227214E+02  0.11045782061E+03  0.23714528978E+03  0.16500000000E+03 0.  0.
<mgrwt>
<rscale>  0 0.44241065E+03</rscale>
<asrwt>0</asrwt>
<pdfrwt beam="1">  1        2 0.37725663E-01 0.44241065E+03</pdfrwt>
<pdfrwt beam="2">  1       -2 0.26470259E-01 0.44241065E+03</pdfrwt>
<totfact> 0.17629217E+03</totfact>
</mgrwt>
</event>
<event>
 4    1  0.1025337E-004  0.4721850E+03  0.7818608E-02  0.1021305E+00
         -2   -1    0    0    0  501 -0.00000000000E+00  0.00000000000E+00  0.17654272588E+03  0.17654272589E+03  0.25500000000E-02 0. -1.
          2   -1    0    0  501    0  0.00000000000E+00 -0.00000000000E+00 -0.31572909054E+03  0.31572909055E+03  0.25500000000E-02 0.  1.
    5000001    1    1    2    0    0 -0.13747996682E+03 -0.98043813812E+02 -0.68384741603E+02  0.24579423018E+03  0.16500000000E+03 0.  0.
   -5000001    1    1    2    0    0  0.13747996682E+03  0.98043813812E+02 -0.70801623060E+02  0.24647758627E+03  0.16500000000E+03 0.  0.
<mgrwt>
<rscale>  0 0.47218502E+03</rscale>
<asrwt>0</asrwt>
<pdfrwt beam="1">  1        2 0.45104155E-01 0.47218502E+03</pdfrwt>
<pdfrwt beam="2">  1       -2 0.25220390E-01 0.47218502E+03</pdfrwt>
<totfact> 0.15816402E+03</totfact>
</mgrwt>
</event>
<event>
 4    1  0.1025337E-004  0.4804611E+03  0.7818608E-02  0.1019009E+00
         -2   -1    0    0    0  501 -0.00000000000E+00  0.00000000000E+00  0.43899729083E+02  0.43899729157E+02  0.25500000000E-02 0. -1.
          2   -1    0    0  501    0  0.00000000000E+00 -0.00000000000E+00 -0.13146030862E+04  0.13146030862E+04  0.25500000000E-02 0.  1.
    5000001    1    1    2    0    0 -0.16556156135E+03  0.53239212084E+02 -0.67921665195E+03  0.72028140653E+03  0.16500000000E+03 0.  0.
   -5000001    1    1    2    0    0  0.16556156135E+03 -0.53239212084E+02 -0.59148670512E+03  0.63822140878E+03  0.16500000000E+03 0.  0.
<mgrwt>
<rscale>  0 0.48046111E+03</rscale>
<asrwt>0</asrwt>
<pdfrwt beam="1">  1        2 0.18780042E+00 0.48046111E+03</pdfrwt>
<pdfrwt beam="2">  1       -2 0.62713907E-02 0.48046111E+03</pdfrwt>
<totfact> 0.26901488E+03</totfact>
</mgrwt>
</event>
<event>
 4    1  0.1025337E-004  0.5397426E+03  0.7818608E-02  0.1003896E+00
         -2   -1    0    0    0  501 -0.00000000000E+00  0.00000000000E+00  0.26021784619E+02  0.26021784743E+02  0.25500000000E-02 0. -1.
          2   -1    0    0  501    0  0.00000000000E+00 -0.00000000000E+00 -0.27988288356E+04  0.27988288356E+04  0.25500000000E-02 0.  1.
    5000001    1    1    2    0    0 -0.20062688712E+03  0.72361826102E+02 -0.13295173745E+04  0.13565871998E+04  0.16500000000E+03 0.  0.
   -5000001    1    1    2    0    0  0.20062688712E+03 -0.72361826102E+02 -0.14432896765E+04  0.14682634205E+04  0.16500000000E+03 0.  0.
<mgrwt>
<rscale>  0 0.53974261E+03</rscale>
<asrwt>0</asrwt>
<pdfrwt beam="1">  1        2 0.39983250E+00 0.53974261E+03</pdfrwt>
<pdfrwt beam="2">  1       -2 0.37173996E-02 0.53974261E+03</pdfrwt>
<totfact> 0.10530906E+03</totfact>
</mgrwt>
</event>
<event>
 4    1  0.1025337E-004  0.5127235E+03  0.7818608E-02  0.1010510E+00
          2   -1    0    0  501    0  0.00000000000E+00  0.00000000000E+00  0.19453615316E+04  0.19453615316E+04  0.25500000000E-02 0.  1.
         -2   -1    0    0    0  501 -0.00000000000E+00 -0.00000000000E+00 -0.33783613008E+02  0.33783613104E+02  0.25500000000E-02 0. -1.
    5000001    1    1    2    0    0  0.35812938445E+02  0.14473425590E+03  0.46348678697E+03  0.51407739989E+03  0.16500000000E+03 0.  0.
   -5000001    1    1    2    0    0 -0.35812938445E+02 -0.14473425590E+03  0.14480911316E+04  0.14650677448E+04  0.16500000000E+03 0.  0.
<mgrwt>
<rscale>  0 0.51272348E+03</rscale>
<asrwt>0</asrwt>
<pdfrwt beam="1">  1        2 0.27790885E+00 0.51272348E+03</pdfrwt>
<pdfrwt beam="2">  1       -2 0.48262294E-02 0.51272348E+03</pdfrwt>
<totfact> 0.19193152E+03</totfact>
</mgrwt>
</event>
<event>
 4    1  0.1025337E-004  0.5333164E+03  0.7818608E-02  0.1005431E+00
          2   -1    0    0  501    0  0.00000000000E+00  0.00000000000E+00  0.46184542848E+03  0.46184542849E+03  0.25500000000E-02 0.  1.
         -2   -1    0    0    0  501 -0.00000000000E+00 -0.00000000000E+00 -0.15396188012E+03  0.15396188014E+03  0.25500000000E-02 0. -1.
    5000001    1    1    2    0    0  0.22226880679E+02 -0.16225904822E+03  0.31270315367E+01  0.23250120705E+03  0.16500000000E+03 0.  0.
   -5000001    1    1    2    0    0 -0.22226880679E+02  0.16225904822E+03  0.30475651683E+03  0.38330610158E+03  0.16500000000E+03 0.  0.
<mgrwt>
<rscale>  0 0.53331638E+03</rscale>
<asrwt>0</asrwt>
<pdfrwt beam="1">  1        2 0.65977918E-01 0.53331638E+03</pdfrwt>
<pdfrwt beam="2">  1       -2 0.21994554E-01 0.53331638E+03</pdfrwt>
<totfact> 0.13249940E+03</totfact>
</mgrwt>
</event>
<event>
 4    1  0.1025337E-004  0.3819616E+03  0.7818608E-02  0.1050211E+00
         -2   -1    0    0    0  501 -0.00000000000E+00  0.00000000000E+00  0.10641525432E+03  0.10641525435E+03  0.25500000000E-02 0. -1.
          2   -1    0    0  501    0  0.00000000000E+00 -0.00000000000E+00 -0.34274843306E+03  0.34274843307E+03  0.25500000000E-02 0.  1.
    5000001    1    1    2    0    0  0.15642524368E+02 -0.56141044788E+02 -0.20812523639E+03  0.27191472836E+03  0.16500000000E+03 0.  0.
   -5000001    1    1    2    0    0 -0.15642524368E+02  0.56141044788E+02 -0.28207942355E+02  0.17724895907E+03  0.16500000000E+03 0.  0.
<mgrwt>
<rscale>  0 0.38196158E+03</rscale>
<asrwt>0</asrwt>
<pdfrwt beam="1">  1        2 0.48964061E-01 0.38196158E+03</pdfrwt>
<pdfrwt beam="2">  1       -2 0.15202179E-01 0.38196158E+03</pdfrwt>
<totfact> 0.34529423E+03</totfact>
</mgrwt>
</event>
<event>
 4    1  0.1025337E-004  0.1044189E+04  0.7818608E-02  0.9261364E-01
         -2   -1    0    0    0  501 -0.00000000000E+00  0.00000000000E+00  0.41232914990E+03  0.41232914990E+03  0.25500000000E-02 0. -1.
          2   -1    0    0  501    0  0.00000000000E+00 -0.00000000000E+00 -0.66108062715E+03  0.66108062715E+03  0.25500000000E-02 0.  1.
    5000001    1    1    2    0    0 -0.43160414505E+03 -0.24050800487E+03 -0.88299880173E+02  0.52834468604E+03  0.16500000000E+03 0.  0.
   -5000001    1    1    2    0    0  0.43160414505E+03  0.24050800487E+03 -0.16045159708E+03  0.54506509101E+03  0.16500000000E+03 0.  0.
<mgrwt>
<rscale>  0 0.10441893E+04</rscale>
<asrwt>0</asrwt>
<pdfrwt beam="1">  1        2 0.94440090E-01 0.10441893E+04</pdfrwt>
<pdfrwt beam="2">  1       -2 0.58904164E-01 0.10441893E+04</pdfrwt>
<totfact> 0.12957448E+02</totfact>
</mgrwt>
</event>
<event>
 4    1  0.1025337E-004  0.5049627E+03  0.7818608E-02  0.1012492E+00
          2   -1    0    0  501    0  0.00000000000E+00  0.00000000000E+00  0.50147663233E+03  0.50147663234E+03  0.25500000000E-02 0.  1.
         -2   -1    0    0    0  501 -0.00000000000E+00 -0.00000000000E+00 -0.12711823736E+03  0.12711823739E+03  0.25500000000E-02 0. -1.
    5000001    1    1    2    0    0  0.18790497717E+03  0.34608248443E+02  0.19212955257E+03  0.31724560876E+03  0.16500000000E+03 0.  0.
   -5000001    1    1    2    0    0 -0.18790497717E+03 -0.34608248443E+02  0.18222884240E+03  0.31134926097E+03  0.16500000000E+03 0.  0.
<mgrwt>
<rscale>  0 0.50496267E+03</rscale>
<asrwt>0</asrwt>
<pdfrwt beam="1">  1        2 0.71639518E-01 0.50496267E+03</pdfrwt>
<pdfrwt beam="2">  1       -2 0.18159748E-01 0.50496267E+03</pdfrwt>
<totfact> 0.16840997E+03</totfact>
</mgrwt>
</event>
<event>
 4    1  0.1025337E-004  0.6612452E+03  0.7818608E-02  0.9785904E-01
         -2   -1    0    0    0  501 -0.00000000000E+00  0.00000000000E+00  0.22008729886E+03  0.22008729888E+03  0.25500000000E-02 0. -1.
          2   -1    0    0  501    0  0.00000000000E+00 -0.00000000000E+00 -0.49667249790E+03  0.49667249791E+03  0.25500000000E-02 0.  1.
    5000001    1    1    2    0    0  0.11731697433E+03 -0.71524319504E+02 -0.41081031632E+03  0.46353976824E+03  0.16500000000E+03 0.  0.
   -5000001    1    1    2    0    0 -0.11731697433E+03  0.71524319504E+02  0.13422511728E+03  0.25322002854E+03  0.16500000000E+03 0.  0.
<mgrwt>
<rscale>  0 0.66124521E+03</rscale>
<asrwt>0</asrwt>
<pdfrwt beam="1">  1        2 0.70953214E-01 0.66124521E+03</pdfrwt>
<pdfrwt beam="2">  1       -2 0.31441043E-01 0.66124521E+03</pdfrwt>
<totfact> 0.63826069E+02</totfact>
</mgrwt>
</event>
<event>
 4    1  0.1025337E-004  0.4283242E+03  0.7818608E-02  0.1034391E+00
         -2   -1    0    0    0  501 -0.00000000000E+00  0.00000000000E+00  0.13739769180E+02  0.13739769416E+02  0.25500000000E-02 0. -1.
          2   -1    0    0  501    0  0.00000000000E+00 -0.00000000000E+00 -0.33381489426E+04  0.33381489426E+04  0.25500000000E-02 0.  1.
    5000001    1    1    2    0    0 -0.10548889586E+03  0.86488308330E+02 -0.16177557052E+04  0.16318598764E+04  0.16500000000E+03 0.  0.
   -5000001    1    1    2    0    0  0.10548889586E+03 -0.86488308330E+02 -0.17066534682E+04  0.17200288356E+04  0.16500000000E+03 0.  0.
<mgrwt>
<rscale>  0 0.42832416E+03</rscale>
<asrwt>0</asrwt>
<pdfrwt beam="1">  1        2 0.47687790E+00 0.42832416E+03</pdfrwt>
<pdfrwt beam="2">  1       -2 0.19628263E-02 0.42832416E+03</pdfrwt>
<totfact> 0.14136304E+03</totfact>
</mgrwt>
</event>
<event>
 4    1  0.1025337E-004  0.3879483E+03  0.7818608E-02  0.1048035E+00
          2   -1    0    0  501    0  0.00000000000E+00  0.00000000000E+00  0.14838498793E+04  0.14838498793E+04  0.25500000000E-02 0.  1.
         -2   -1    0    0    0  501 -0.00000000000E+00 -0.00000000000E+00 -0.25356987835E+02  0.25356987963E+02  0.25500000000E-02 0. -1.
    5000001    1    1    2    0    0 -0.91691086265E+02 -0.43089322037E+02  0.68370943616E+03  0.71059660713E+03  0.16500000000E+03 0.  0.
   -5000001    1    1    2    0    0  0.91691086265E+02  0.43089322037E+02  0.77478345528E+03  0.79861026011E+03  0.16500000000E+03 0.  0.
<mgrwt>
<rscale>  0 0.38794826E+03</rscale>
<asrwt>0</asrwt>
<pdfrwt beam="1">  1        2 0.21197857E+00 0.38794826E+03</pdfrwt>
<pdfrwt beam="2">  1       -2 0.36224266E-02 0.38794826E+03</pdfrwt>
<totfact> 0.50934914E+03</totfact>
</mgrwt>
</event>
<event>
 4    1  0.1025337E-004  0.7096809E+03  0.7818608E-02  0.9700818E-01
         -2   -1    0    0    0  501 -0.00000000000E+00  0.00000000000E+00  0.41802301440E+02  0.41802301518E+02  0.25500000000E-02 0.  1.
          2   -1    0    0  501    0  0.00000000000E+00 -0.00000000000E+00 -0.30120764389E+04  0.30120764389E+04  0.25500000000E-02 0. -1.
    5000001    1    1    2    0    0  0.72277427259E+02 -0.27138735052E+03 -0.20908244875E+04  0.21160451691E+04  0.16500000000E+03 0.  0.
   -5000001    1    1    2    0    0 -0.72277427259E+02  0.27138735052E+03 -0.87944964999E+03  0.93783357126E+03  0.16500000000E+03 0.  0.
<mgrwt>
<rscale>  0 0.70968085E+03</rscale>
<asrwt>0</asrwt>
<pdfrwt beam="1">  1        2 0.43029650E+00 0.70968085E+03</pdfrwt>
<pdfrwt beam="2">  1       -2 0.59717593E-02 0.70968085E+03</pdfrwt>
<totfact> 0.38220144E+02</totfact>
</mgrwt>
</event>
<event>
 4    1  0.1025337E-004  0.5720713E+03  0.7818608E-02  0.9965106E-01
         -2   -1    0    0    0  501 -0.00000000000E+00  0.00000000000E+00  0.13338202860E+03  0.13338202862E+03  0.25500000000E-02 0. -1.
          2   -1    0    0  501    0  0.00000000000E+00 -0.00000000000E+00 -0.61339898854E+03  0.61339898854E+03  0.25500000000E-02 0.  1.
    5000001    1    1    2    0    0  0.22131683487E+03 -0.67204633570E+02 -0.19683555183E+03  0.34563975268E+03  0.16500000000E+03 0.  0.
   -5000001    1    1    2    0    0 -0.22131683487E+03  0.67204633570E+02 -0.28318140811E+03  0.40114126448E+03  0.16500000000E+03 0.  0.
<mgrwt>
<rscale>  0 0.57207133E+03</rscale>
<asrwt>0</asrwt>
<pdfrwt beam="1">  1        2 0.87628425E-01 0.57207133E+03</pdfrwt>
<pdfrwt beam="2">  1       -2 0.19054576E-01 0.57207133E+03</pdfrwt>
<totfact> 0.12284049E+03</totfact>
</mgrwt>
</event>
<event>
 4    1  0.1025337E-004  0.6390511E+03  0.7818608E-02  0.9827544E-01
          2   -1    0    0  501    0  0.00000000000E+00  0.00000000000E+00  0.65579009776E+03  0.65579009776E+03  0.25500000000E-02 0.  1.
         -2   -1    0    0    0  501 -0.00000000000E+00 -0.00000000000E+00 -0.15568486257E+03  0.15568486259E+03  0.25500000000E-02 0. -1.
    5000001    1    1    2    0    0 -0.38960706237E+01  0.25523365670E+03  0.12491204307E+03  0.32861439010E+03  0.16500000000E+03 0.  0.
   -5000001    1    1    2    0    0  0.38960706237E+01 -0.25523365670E+03  0.37519319213E+03  0.48286057025E+03  0.16500000000E+03 0.  0.
<mgrwt>
<rscale>  0 0.63905114E+03</rscale>
<asrwt>0</asrwt>
<pdfrwt beam="1">  1        2 0.93684300E-01 0.63905114E+03</pdfrwt>
<pdfrwt beam="2">  1       -2 0.22240694E-01 0.63905114E+03</pdfrwt>
<totfact> 0.86477883E+02</totfact>
</mgrwt>
</event>
<event>
 4    1  0.1025337E-004  0.7875662E+03  0.7818608E-02  0.9578191E-01
          2   -1    0    0  501    0  0.00000000000E+00  0.00000000000E+00  0.90802005573E+03  0.90802005573E+03  0.25500000000E-02 0.  1.
         -2   -1    0    0    0  501 -0.00000000000E+00 -0.00000000000E+00 -0.17077278742E+03  0.17077278744E+03  0.25500000000E-02 0. -1.
    5000001    1    1    2    0    0 -0.23819344724E+02  0.20816230849E+03  0.76548480976E+03  0.81061143702E+03  0.16500000000E+03 0.  0.
   -5000001    1    1    2    0    0  0.23819344724E+02 -0.20816230849E+03 -0.28237541444E+02  0.26818140615E+03  0.16500000000E+03 0.  0.
<mgrwt>
<rscale>  0 0.78756616E+03</rscale>
<asrwt>0</asrwt>
<pdfrwt beam="1">  1        2 0.12971715E+00 0.78756616E+03</pdfrwt>
<pdfrwt beam="2">  1       -2 0.24396113E-01 0.78756616E+03</pdfrwt>
<totfact> 0.48258988E+02</totfact>
</mgrwt>
</event>
<event>
 4    1  0.1025337E-004  0.4705320E+03  0.7818608E-02  0.1021770E+00
         -2   -1    0    0    0  501 -0.00000000000E+00  0.00000000000E+00  0.69709153888E+02  0.69709153935E+02  0.25500000000E-02 0. -1.
          2   -1    0    0  501    0  0.00000000000E+00 -0.00000000000E+00 -0.79401452350E+03  0.79401452350E+03  0.25500000000E-02 0.  1.
    5000001    1    1    2    0    0 -0.71761527619E+02  0.10281186343E+02 -0.84555176239E+02  0.19907284463E+03  0.16500000000E+03 0.  0.
   -5000001    1    1    2    0    0  0.71761527619E+02 -0.10281186343E+02 -0.63975019337E+03  0.66465083281E+03  0.16500000000E+03 0.  0.
<mgrwt>
<rscale>  0 0.47053196E+03</rscale>
<asrwt>0</asrwt>
<pdfrwt beam="1">  1        2 0.11343064E+00 0.47053196E+03</pdfrwt>
<pdfrwt beam="2">  1       -2 0.99584510E-02 0.47053196E+03</pdfrwt>
<totfact> 0.26428512E+03</totfact>
</mgrwt>
</event>
<event>
 4    1  0.1025337E-004  0.5326368E+03  0.7818608E-02  0.1005595E+00
         -2   -1    0    0    0  501 -0.00000000000E+00  0.00000000000E+00  0.88527265916E+02  0.88527265953E+02  0.25500000000E-02 0.  1.
          2   -1    0    0  501    0  0.00000000000E+00 -0.00000000000E+00 -0.80117112187E+03  0.80117112187E+03  0.25500000000E-02 0. -1.
    5000001    1    1    2    0    0  0.13407816260E+03  0.15905572359E+03 -0.39074979095E+03  0.47242573598E+03  0.16500000000E+03 0.  0.
   -5000001    1    1    2    0    0 -0.13407816260E+03 -0.15905572359E+03 -0.32189406500E+03  0.41727265184E+03  0.16500000000E+03 0.  0.
<mgrwt>
<rscale>  0 0.53263680E+03</rscale>
<asrwt>0</asrwt>
<pdfrwt beam="1">  1        2 0.11445301E+00 0.53263680E+03</pdfrwt>
<pdfrwt beam="2">  1       -2 0.12646753E-01 0.53263680E+03</pdfrwt>
<totfact> 0.17703106E+03</totfact>
</mgrwt>
</event>
<event>
 4    1  0.1025337E-004  0.3829305E+03  0.7818608E-02  0.1049856E+00
         -2   -1    0    0    0  501 -0.00000000000E+00  0.00000000000E+00  0.32976096361E+02  0.32976096460E+02  0.25500000000E-02 0. -1.
          2   -1    0    0  501    0  0.00000000000E+00 -0.00000000000E+00 -0.11116823759E+04  0.11116823759E+04  0.25500000000E-02 0.  1.
    5000001    1    1    2    0    0 -0.40625494149E+02  0.86971711272E+02 -0.49507292057E+03  0.53060032607E+03  0.16500000000E+03 0.  0.
   -5000001    1    1    2    0    0  0.40625494149E+02 -0.86971711272E+02 -0.58363335897E+03  0.61405814631E+03  0.16500000000E+03 0.  0.
<mgrwt>
<rscale>  0 0.38293052E+03</rscale>
<asrwt>0</asrwt>
<pdfrwt beam="1">  1        2 0.15881175E+00 0.38293052E+03</pdfrwt>
<pdfrwt beam="2">  1       -2 0.47108716E-02 0.38293052E+03</pdfrwt>
<totfact> 0.54102550E+03</totfact>
</mgrwt>
</event>
<event>
 4    1  0.1025337E-004  0.4495216E+03  0.7818608E-02  0.1027865E+00
         -2   -1    0    0    0  501 -0.00000000000E+00  0.00000000000E+00  0.32112320321E+02  0.32112320422E+02  0.25500000000E-02 0. -1.
          2   -1    0    0  501    0  0.00000000000E+00 -0.00000000000E+00 -0.15731472519E+04  0.15731472519E+04  0.25500000000E-02 0.  1.
    5000001    1    1    2    0    0  0.86043623876E+02  0.12604217333E+03 -0.76513255401E+03  0.79746031869E+03  0.16500000000E+03 0.  0.
   -5000001    1    1    2    0    0 -0.86043623876E+02 -0.12604217333E+03 -0.77590237761E+03  0.80779925369E+03  0.16500000000E+03 0.  0.
<mgrwt>
<rscale>  0 0.44952156E+03</rscale>
<asrwt>0</asrwt>
<pdfrwt beam="1">  1        2 0.22473527E+00 0.44952156E+03</pdfrwt>
<pdfrwt beam="2">  1       -2 0.45874753E-02 0.44952156E+03</pdfrwt>
<totfact> 0.31993152E+03</totfact>
</mgrwt>
</event>
<event>
 4    1  0.1025337E-004  0.6333892E+03  0.7818608E-02  0.9838457E-01
         -2   -1    0    0    0  501 -0.00000000000E+00  0.00000000000E+00  0.41187890098E+02  0.41187890177E+02  0.25500000000E-02 0. -1.
          2   -1    0    0  501    0  0.00000000000E+00 -0.00000000000E+00 -0.24350717123E+04  0.24350717123E+04  0.25500000000E-02 0.  1.
    5000001    1    1    2    0    0  0.22486911419E+03 -0.67617906996E+02 -0.67341151083E+03  0.73201527497E+03  0.16500000000E+03 0.  0.
   -5000001    1    1    2    0    0 -0.22486911419E+03  0.67617906996E+02 -0.17204723114E+04  0.17442443275E+04  0.16500000000E+03 0.  0.
<mgrwt>
<rscale>  0 0.63338919E+03</rscale>
<asrwt>0</asrwt>
<pdfrwt beam="1">  1        2 0.34786730E+00 0.63338919E+03</pdfrwt>
<pdfrwt beam="2">  1       -2 0.58839858E-02 0.63338919E+03</pdfrwt>
<totfact> 0.79361887E+02</totfact>
</mgrwt>
</event>
<event>
 4    1  0.1025337E-004  0.4138137E+03  0.7818608E-02  0.1039099E+00
         -2   -1    0    0    0  501 -0.00000000000E+00  0.00000000000E+00  0.37061687426E+02  0.37061687514E+02  0.25500000000E-02 0. -1.
          2   -1    0    0  501    0  0.00000000000E+00 -0.00000000000E+00 -0.11551131729E+04  0.11551131729E+04  0.25500000000E-02 0.  1.
    5000001    1    1    2    0    0  0.41781870900E+02 -0.11504224961E+03 -0.48816387410E+03  0.52963139248E+03  0.16500000000E+03 0.  0.
   -5000001    1    1    2    0    0 -0.41781870900E+02  0.11504224961E+03 -0.62988761137E+03  0.66254346792E+03  0.16500000000E+03 0.  0.
<mgrwt>
<rscale>  0 0.41381369E+03</rscale>
<asrwt>0</asrwt>
<pdfrwt beam="1">  1        2 0.16501614E+00 0.41381369E+03</pdfrwt>
<pdfrwt beam="2">  1       -2 0.52945275E-02 0.41381369E+03</pdfrwt>
<totfact> 0.42773516E+03</totfact>
</mgrwt>
</event>
<event>
 4    1  0.1025337E-004  0.5348990E+03  0.7818608E-02  0.1005051E+00
         -2   -1    0    0    0  501 -0.00000000000E+00  0.00000000000E+00  0.11972681140E+03  0.11972681142E+03  0.25500000000E-02 0. -1.
          2   -1    0    0  501    0  0.00000000000E+00 -0.00000000000E+00 -0.59743704553E+03  0.59743704553E+03  0.25500000000E-02 0.  1.
    5000001    1    1    2    0    0 -0.44775255350E+02 -0.19554254466E+03 -0.15339873729E+03  0.30165855344E+03  0.16500000000E+03 0.  0.
   -5000001    1    1    2    0    0  0.44775255350E+02  0.19554254466E+03 -0.32431149684E+03  0.41550530351E+03  0.16500000000E+03 0.  0.
<mgrwt>
<rscale>  0 0.53489899E+03</rscale>
<asrwt>0</asrwt>
<pdfrwt beam="1">  1        2 0.85348148E-01 0.53489899E+03</pdfrwt>
<pdfrwt beam="2">  1       -2 0.17103831E-01 0.53489899E+03</pdfrwt>
<totfact> 0.15253662E+03</totfact>
</mgrwt>
</event>
<event>
 4    1  0.1025337E-004  0.4378010E+03  0.7818608E-02  0.1031424E+00
         -2   -1    0    0    0  501 -0.00000000000E+00  0.00000000000E+00  0.21536612233E+03  0.21536612235E+03  0.25500000000E-02 0. -1.
          2   -1    0    0  501    0  0.00000000000E+00 -0.00000000000E+00 -0.22249287377E+03  0.22249287379E+03  0.25500000000E-02 0.  1.
    5000001    1    1    2    0    0  0.14374626076E+02 -0.14188781466E+03  0.15244584464E+02  0.21862337290E+03  0.16500000000E+03 0.  0.
   -5000001    1    1    2    0    0 -0.14374626076E+02  0.14188781466E+03 -0.22371335903E+02  0.21923562323E+03  0.16500000000E+03 0.  0.
<mgrwt>
<rscale>  0 0.43780099E+03</rscale>
<asrwt>0</asrwt>
<pdfrwt beam="1">  1        2 0.31784696E-01 0.43780099E+03</pdfrwt>
<pdfrwt beam="2">  1       -2 0.30766589E-01 0.43780099E+03</pdfrwt>
<totfact> 0.16195086E+03</totfact>
</mgrwt>
</event>
<event>
 4    1  0.1025337E-004  0.4344044E+03  0.7818608E-02  0.1032478E+00
         -2   -1    0    0    0  501 -0.00000000000E+00  0.00000000000E+00  0.94509459360E+03  0.94509459361E+03  0.25500000000E-02 0. -1.
          2   -1    0    0  501    0  0.00000000000E+00 -0.00000000000E+00 -0.49917545449E+02  0.49917545514E+02  0.25500000000E-02 0.  1.
    5000001    1    1    2    0    0  0.23105313939E+02 -0.13505609209E+03  0.52619705687E+03  0.56822737192E+03  0.16500000000E+03 0.  0.
   -5000001    1    1    2    0    0 -0.23105313939E+02  0.13505609209E+03  0.36897999129E+03  0.42678476720E+03  0.16500000000E+03 0.  0.
<mgrwt>
<rscale>  0 0.43440443E+03</rscale>
<asrwt>0</asrwt>
<pdfrwt beam="1">  1        2 0.71310780E-02 0.43440443E+03</pdfrwt>
<pdfrwt beam="2">  1       -2 0.13501351E+00 0.43440443E+03</pdfrwt>
<totfact> 0.41112112E+02</totfact>
</mgrwt>
</event>
<event>
 4    1  0.1025337E-004  0.6034394E+03  0.7818608E-02  0.9898296E-01
         -2   -1    0    0    0  501 -0.00000000000E+00  0.00000000000E+00  0.13662956089E+03  0.13662956091E+03  0.25500000000E-02 0.  1.
          2   -1    0    0  501    0  0.00000000000E+00 -0.00000000000E+00 -0.66628895596E+03  0.66628895596E+03  0.25500000000E-02 0. -1.
    5000001    1    1    2    0    0 -0.17465565105E+03 -0.17510222810E+03 -0.33325233779E+03  0.44659546278E+03  0.16500000000E+03 0.  0.
   -5000001    1    1    2    0    0  0.17465565105E+03  0.17510222810E+03 -0.19640705728E+03  0.35632305410E+03  0.16500000000E+03 0.  0.
<mgrwt>
<rscale>  0 0.60343937E+03</rscale>
<asrwt>0</asrwt>
<pdfrwt beam="1">  1        2 0.95184135E-01 0.60343937E+03</pdfrwt>
<pdfrwt beam="2">  1       -2 0.19518509E-01 0.60343937E+03</pdfrwt>
<totfact> 0.10671207E+03</totfact>
</mgrwt>
</event>
<event>
 4    1  0.1025337E-004  0.4541135E+03  0.7818608E-02  0.1026502E+00
          2   -1    0    0  501    0  0.00000000000E+00  0.00000000000E+00  0.21664723750E+04  0.21664723750E+04  0.25500000000E-02 0.  1.
         -2   -1    0    0    0  501 -0.00000000000E+00 -0.00000000000E+00 -0.23796639279E+02  0.23796639416E+02  0.25500000000E-02 0. -1.
    5000001    1    1    2    0    0 -0.13008989788E+03  0.50436378051E+02  0.73500818247E+03  0.76611307133E+03  0.16500000000E+03 0.  0.
   -5000001    1    1    2    0    0  0.13008989788E+03 -0.50436378051E+02  0.14076675533E+04  0.14241559431E+04  0.16500000000E+03 0.  0.
<mgrwt>
<rscale>  0 0.45411347E+03</rscale>
<asrwt>0</asrwt>
<pdfrwt beam="1">  1        2 0.30949590E+00 0.45411347E+03</pdfrwt>
<pdfrwt beam="2">  1       -2 0.33995216E-02 0.45411347E+03</pdfrwt>
<totfact> 0.25510929E+03</totfact>
</mgrwt>
</event>
<event>
 4    1  0.1025337E-004  0.8368312E+03  0.7818608E-02  0.9508184E-01
         -2   -1    0    0    0  501 -0.00000000000E+00  0.00000000000E+00  0.51272499945E+03  0.51272499946E+03  0.25500000000E-02 0. -1.
          2   -1    0    0  501    0  0.00000000000E+00 -0.00000000000E+00 -0.34145320413E+03  0.34145320414E+03  0.25500000000E-02 0.  1.
    5000001    1    1    2    0    0  0.22314789295E+03  0.17413153034E+03  0.35128026613E+03  0.48035361699E+03  0.16500000000E+03 0.  0.
   -5000001    1    1    2    0    0 -0.22314789295E+03 -0.17413153034E+03 -0.18000847080E+03  0.37382458660E+03  0.16500000000E+03 0.  0.
<mgrwt>
<rscale>  0 0.83683115E+03</rscale>
<asrwt>0</asrwt>
<pdfrwt beam="1">  1        2 0.48779029E-01 0.83683115E+03</pdfrwt>
<pdfrwt beam="2">  1       -2 0.73246428E-01 0.83683115E+03</pdfrwt>
<totfact> 0.17479173E+02</totfact>
</mgrwt>
</event>
<event>
 4    1  0.1025337E-004  0.4836188E+03  0.7818608E-02  0.1018145E+00
          2   -1    0    0  501    0  0.00000000000E+00  0.00000000000E+00  0.46133925665E+03  0.46133925666E+03  0.25500000000E-02 0.  1.
         -2   -1    0    0    0  501 -0.00000000000E+00 -0.00000000000E+00 -0.12674357287E+03  0.12674357290E+03  0.25500000000E-02 0. -1.
    5000001    1    1    2    0    0  0.15117777067E+03  0.36850700156E+02  0.65312117267E+02  0.23601560353E+03  0.16500000000E+03 0.  0.
   -5000001    1    1    2    0    0 -0.15117777067E+03 -0.36850700156E+02  0.26928356652E+03  0.35206722603E+03  0.16500000000E+03 0.  0.
<mgrwt>
<rscale>  0 0.48361880E+03</rscale>
<asrwt>0</asrwt>
<pdfrwt beam="1">  1        2 0.65905609E-01 0.48361880E+03</pdfrwt>
<pdfrwt beam="2">  1       -2 0.18106225E-01 0.48361880E+03</pdfrwt>
<totfact> 0.18587759E+03</totfact>
</mgrwt>
</event>
<event>
 4    1  0.1025337E-004  0.5380257E+03  0.7818608E-02  0.1004304E+00
         -2   -1    0    0    0  501 -0.00000000000E+00  0.00000000000E+00  0.57848363252E+03  0.57848363252E+03  0.25500000000E-02 0. -1.
          2   -1    0    0  501    0  0.00000000000E+00 -0.00000000000E+00 -0.12509932347E+03  0.12509932349E+03  0.25500000000E-02 0.  1.
    5000001    1    1    2    0    0 -0.33052410545E+01 -0.20254070916E+03  0.14286331563E+03  0.29777271607E+03  0.16500000000E+03 0.  0.
   -5000001    1    1    2    0    0  0.33052410545E+01  0.20254070916E+03  0.31052099342E+03  0.40581023994E+03  0.16500000000E+03 0.  0.
<mgrwt>
<rscale>  0 0.53802569E+03</rscale>
<asrwt>0</asrwt>
<pdfrwt beam="1">  1        2 0.17871332E-01 0.53802569E+03</pdfrwt>
<pdfrwt beam="2">  1       -2 0.82640518E-01 0.53802569E+03</pdfrwt>
<totfact> 0.42114724E+02</totfact>
</mgrwt>
</event>
<event>
 4    1  0.1025337E-004  0.7536574E+03  0.7818608E-02  0.9629630E-01
         -2   -1    0    0    0  501 -0.00000000000E+00  0.00000000000E+00  0.21554897550E+03  0.21554897551E+03  0.25500000000E-02 0. -1.
          2   -1    0    0  501    0  0.00000000000E+00 -0.00000000000E+00 -0.65878233759E+03  0.65878233760E+03  0.25500000000E-02 0.  1.
    5000001    1    1    2    0    0  0.23642079864E+03  0.14804952414E+03  0.14200040915E+01  0.32409947862E+03  0.16500000000E+03 0.  0.
   -5000001    1    1    2    0    0 -0.23642079864E+03 -0.14804952414E+03 -0.44465336619E+03  0.55023183449E+03  0.16500000000E+03 0.  0.
<mgrwt>
<rscale>  0 0.75365737E+03</rscale>
<asrwt>0</asrwt>
<pdfrwt beam="1">  1        2 0.94111762E-01 0.75365737E+03</pdfrwt>
<pdfrwt beam="2">  1       -2 0.30792711E-01 0.75365737E+03</pdfrwt>
<totfact> 0.47530367E+02</totfact>
</mgrwt>
</event>
<event>
 4    1  0.1025337E-004  0.4603980E+03  0.7818608E-02  0.1024666E+00
          2   -1    0    0  501    0  0.00000000000E+00  0.00000000000E+00  0.11418789013E+04  0.11418789013E+04  0.25500000000E-02 0.  1.
         -2   -1    0    0    0  501 -0.00000000000E+00 -0.00000000000E+00 -0.46407361187E+02  0.46407361257E+02  0.25500000000E-02 0. -1.
    5000001    1    1    2    0    0  0.15327168802E+03 -0.23190427976E+02  0.65529187353E+03  0.69329823728E+03  0.16500000000E+03 0.  0.
   -5000001    1    1    2    0    0 -0.15327168802E+03  0.23190427976E+02  0.44017966659E+03  0.49498802529E+03  0.16500000000E+03 0.  0.
<mgrwt>
<rscale>  0 0.46039803E+03</rscale>
<asrwt>0</asrwt>
<pdfrwt beam="1">  1        2 0.16312553E+00 0.46039803E+03</pdfrwt>
<pdfrwt beam="2">  1       -2 0.66296241E-02 0.46039803E+03</pdfrwt>
<totfact> 0.30703877E+03</totfact>
</mgrwt>
</event>
<event>
 4    1  0.1025337E-004  0.7275007E+03  0.7818608E-02  0.9671325E-01
         -2   -1    0    0    0  501 -0.00000000000E+00  0.00000000000E+00  0.80795944763E+02  0.80795944803E+02  0.25500000000E-02 0.  1.
          2   -1    0    0  501    0  0.00000000000E+00 -0.00000000000E+00 -0.16376355750E+04  0.16376355750E+04  0.25500000000E-02 0. -1.
    5000001    1    1    2    0    0  0.23249759580E+03 -0.16094790055E+03 -0.11528705383E+04  0.11984551877E+04  0.16500000000E+03 0.  0.
   -5000001    1    1    2    0    0 -0.23249759580E+03  0.16094790055E+03 -0.40396909191E+03  0.51997633212E+03  0.16500000000E+03 0.  0.
<mgrwt>
<rscale>  0 0.72750069E+03</rscale>
<asrwt>0</asrwt>
<pdfrwt beam="1">  1        2 0.23394792E+00 0.72750069E+03</pdfrwt>
<pdfrwt beam="2">  1       -2 0.11542279E-01 0.72750069E+03</pdfrwt>
<totfact> 0.67989168E+02</totfact>
</mgrwt>
</event>
<event>
 4    1  0.1025337E-004  0.4551242E+03  0.7818608E-02  0.1026205E+00
          2   -1    0    0  501    0  0.00000000000E+00  0.00000000000E+00  0.75447347144E+03  0.75447347145E+03  0.25500000000E-02 0.  1.
         -2   -1    0    0    0  501 -0.00000000000E+00 -0.00000000000E+00 -0.68636606801E+02  0.68636606849E+02  0.25500000000E-02 0. -1.
    5000001    1    1    2    0    0 -0.10339606808E+03  0.11139471919E+03  0.41202189365E+03  0.46913385212E+03  0.16500000000E+03 0.  0.
   -5000001    1    1    2    0    0  0.10339606808E+03 -0.11139471919E+03  0.27381497100E+03  0.35397622618E+03  0.16500000000E+03 0.  0.
<mgrwt>
<rscale>  0 0.45512415E+03</rscale>
<asrwt>0</asrwt>
<pdfrwt beam="1">  1        2 0.10778193E+00 0.45512415E+03</pdfrwt>
<pdfrwt beam="2">  1       -2 0.98052295E-02 0.45512415E+03</pdfrwt>
<totfact> 0.28877634E+03</totfact>
</mgrwt>
</event>
<event>
 4    1  0.1025337E-004  0.6045802E+03  0.7818608E-02  0.9895949E-01
         -2   -1    0    0    0  501 -0.00000000000E+00  0.00000000000E+00  0.26240556250E+03  0.26240556251E+03  0.25500000000E-02 0. -1.
          2   -1    0    0  501    0  0.00000000000E+00 -0.00000000000E+00 -0.34823686840E+03  0.34823686841E+03  0.25500000000E-02 0.  1.
    5000001    1    1    2    0    0  0.50745946491E+02  0.24784706746E+03 -0.30505405381E+02  0.30357684314E+03  0.16500000000E+03 0.  0.
   -5000001    1    1    2    0    0 -0.50745946491E+02 -0.24784706746E+03 -0.55325900522E+02  0.30706558778E+03  0.16500000000E+03 0.  0.
<mgrwt>
<rscale>  0 0.60458016E+03</rscale>
<asrwt>0</asrwt>
<pdfrwt beam="1">  1        2 0.49748124E-01 0.60458016E+03</pdfrwt>
<pdfrwt beam="2">  1       -2 0.37486509E-01 0.60458016E+03</pdfrwt>
<totfact> 0.68154971E+02</totfact>
</mgrwt>
</event>
<event>
 4    1  0.1025337E-004  0.4757394E+03  0.7818608E-02  0.1020313E+00
         -2   -1    0    0    0  501 -0.00000000000E+00  0.00000000000E+00  0.13308830540E+03  0.13308830542E+03  0.25500000000E-02 0. -1.
          2   -1    0    0  501    0  0.00000000000E+00 -0.00000000000E+00 -0.42514629703E+03  0.42514629704E+03  0.25500000000E-02 0.  1.
    5000001    1    1    2    0    0 -0.13444151621E+03  0.22658888541E+02 -0.24260096371E+02  0.21541007123E+03  0.16500000000E+03 0.  0.
   -5000001    1    1    2    0    0  0.13444151621E+03 -0.22658888541E+02 -0.26779789526E+03  0.34282453123E+03  0.16500000000E+03 0.  0.
<mgrwt>
<rscale>  0 0.47573943E+03</rscale>
<asrwt>0</asrwt>
<pdfrwt beam="1">  1        2 0.60735184E-01 0.47573943E+03</pdfrwt>
<pdfrwt beam="2">  1       -2 0.19012615E-01 0.47573943E+03</pdfrwt>
<totfact> 0.18717485E+03</totfact>
</mgrwt>
</event>
<event>
 4    1  0.1025337E-004  0.5096222E+03  0.7818608E-02  0.1011297E+00
          2   -1    0    0  501    0  0.00000000000E+00  0.00000000000E+00  0.70394533194E+03  0.70394533194E+03  0.25500000000E-02 0.  1.
         -2   -1    0    0    0  501 -0.00000000000E+00 -0.00000000000E+00 -0.92235426914E+02  0.92235426950E+02  0.25500000000E-02 0. -1.
    5000001    1    1    2    0    0  0.51425476984E+02 -0.17138044281E+03  0.42368006795E+03  0.48861604133E+03  0.16500000000E+03 0.  0.
   -5000001    1    1    2    0    0 -0.51425476984E+02  0.17138044281E+03  0.18802983707E+03  0.30756471757E+03  0.16500000000E+03 0.  0.
<mgrwt>
<rscale>  0 0.50962221E+03</rscale>
<asrwt>0</asrwt>
<pdfrwt beam="1">  1        2 0.10056362E+00 0.50962221E+03</pdfrwt>
<pdfrwt beam="2">  1       -2 0.13176489E-01 0.50962221E+03</pdfrwt>
<totfact> 0.19433197E+03</totfact>
</mgrwt>
</event>
<event>
 4    1  0.1025337E-004  0.4816719E+03  0.7818608E-02  0.1018677E+00
          2   -1    0    0  501    0  0.00000000000E+00  0.00000000000E+00  0.92289155351E+03  0.92289155351E+03  0.25500000000E-02 0.  1.
         -2   -1    0    0    0  501 -0.00000000000E+00 -0.00000000000E+00 -0.62848074476E+02  0.62848074528E+02  0.25500000000E-02 0. -1.
    5000001    1    1    2    0    0 -0.45988339570E+02 -0.10594435650E+03  0.70026634275E+03  0.72865429721E+03  0.16500000000E+03 0.  0.
   -5000001    1    1    2    0    0  0.45988339570E+02  0.10594435650E+03  0.15977713628E+03  0.25708533083E+03  0.16500000000E+03 0.  0.
<mgrwt>
<rscale>  0 0.48167191E+03</rscale>
<asrwt>0</asrwt>
<pdfrwt beam="1">  1        2 0.13184166E+00 0.48167191E+03</pdfrwt>
<pdfrwt beam="2">  1       -2 0.89782957E-02 0.48167191E+03</pdfrwt>
<totfact> 0.25669164E+03</totfact>
</mgrwt>
</event>
<event>
 4    1  0.1025337E-004  0.5262433E+03  0.7818608E-02  0.1007147E+00
          2   -1    0    0  501    0  0.00000000000E+00  0.00000000000E+00  0.86287713927E+03  0.86287713927E+03  0.25500000000E-02 0.  1.
         -2   -1    0    0    0  501 -0.00000000000E+00 -0.00000000000E+00 -0.80235060570E+02  0.80235060611E+02  0.25500000000E-02 0. -1.
    5000001    1    1    2    0    0 -0.18221510305E+03  0.66746799650E+02  0.50952918471E+03  0.56965118196E+03  0.16500000000E+03 0.  0.
   -5000001    1    1    2    0    0  0.18221510305E+03 -0.66746799650E+02  0.27311289399E+03  0.37346101792E+03  0.16500000000E+03 0.  0.
<mgrwt>
<rscale>  0 0.52624329E+03</rscale>
<asrwt>0</asrwt>
<pdfrwt beam="1">  1        2 0.12326816E+00 0.52624329E+03</pdfrwt>
<pdfrwt beam="2">  1       -2 0.11462151E-01 0.52624329E+03</pdfrwt>
<totfact> 0.18907099E+03</totfact>
</mgrwt>
</event>
<event>
 4    1  0.1025337E-004  0.1407845E+04  0.7818608E-02  0.8948159E-01
          2   -1    0    0  501    0  0.00000000000E+00  0.00000000000E+00  0.35372513233E+04  0.35372513234E+04  0.25500000000E-02 0.  1.
         -2   -1    0    0    0  501 -0.00000000000E+00 -0.00000000000E+00 -0.14008254982E+03  0.14008254984E+03  0.25500000000E-02 0. -1.
    5000001    1    1    2    0    0 -0.15029121015E+03  0.66760359548E+03  0.16996809172E+04  0.18396799257E+04  0.16500000000E+03 0.  0.
   -5000001    1    1    2    0    0  0.15029121015E+03 -0.66760359548E+03  0.16974878563E+04  0.18376539475E+04  0.16500000000E+03 0.  0.
<mgrwt>
<rscale>  0 0.14078454E+04</rscale>
<asrwt>0</asrwt>
<pdfrwt beam="1">  1        2 0.50532149E+00 0.14078454E+04</pdfrwt>
<pdfrwt beam="2">  1       -2 0.20011798E-01 0.14078454E+04</pdfrwt>
<totfact> 0.24033676E+01</totfact>
</mgrwt>
</event>
<event>
 4    1  0.1025337E-004  0.9812317E+03  0.7818608E-02  0.9329373E-01
         -2   -1    0    0    0  501 -0.00000000000E+00  0.00000000000E+00  0.12727669255E+03  0.12727669257E+03  0.25500000000E-02 0.  1.
          2   -1    0    0  501    0  0.00000000000E+00 -0.00000000000E+00 -0.18911859274E+04  0.18911859274E+04  0.25500000000E-02 0. -1.
    5000001    1    1    2    0    0  0.47671230314E+02  0.39181153496E+03 -0.13760373477E+04  0.14410040276E+04  0.16500000000E+03 0.  0.
   -5000001    1    1    2    0    0 -0.47671230314E+02 -0.39181153496E+03 -0.38787188714E+03  0.57745859242E+03  0.16500000000E+03 0.  0.
<mgrwt>
<rscale>  0 0.98123165E+03</rscale>
<asrwt>0</asrwt>
<pdfrwt beam="1">  1        2 0.27016940E+00 0.98123165E+03</pdfrwt>
<pdfrwt beam="2">  1       -2 0.18182386E-01 0.98123165E+03</pdfrwt>
<totfact> 0.23052781E+02</totfact>
</mgrwt>
</event>
<event>
 4    1  0.1025337E-004  0.6107364E+03  0.7818608E-02  0.9883378E-01
         -2   -1    0    0    0  501 -0.00000000000E+00  0.00000000000E+00  0.77058561528E+02  0.77058561570E+02  0.25500000000E-02 0. -1.
          2   -1    0    0  501    0  0.00000000000E+00 -0.00000000000E+00 -0.12101153016E+04  0.12101153016E+04  0.25500000000E-02 0.  1.
    5000001    1    1    2    0    0 -0.33043931871E+02 -0.24693912198E+03 -0.69905310660E+03  0.76024409057E+03  0.16500000000E+03 0.  0.
   -5000001    1    1    2    0    0  0.33043931871E+02  0.24693912198E+03 -0.43400363350E+03  0.52692977263E+03  0.16500000000E+03 0.  0.
<mgrwt>
<rscale>  0 0.61073642E+03</rscale>
<asrwt>0</asrwt>
<pdfrwt beam="1">  1        2 0.17287360E+00 0.61073642E+03</pdfrwt>
<pdfrwt beam="2">  1       -2 0.11008367E-01 0.61073642E+03</pdfrwt>
<totfact> 0.12472881E+03</totfact>
</mgrwt>
</event>
<event>
 4    1  0.1025337E-004  0.7849818E+03  0.7818608E-02  0.9582013E-01
          2   -1    0    0  501    0  0.00000000000E+00  0.00000000000E+00  0.12436521454E+04  0.12436521454E+04  0.25500000000E-02 0.  1.
         -2   -1    0    0    0  501 -0.00000000000E+00 -0.00000000000E+00 -0.12386833823E+03  0.12386833825E+03  0.25500000000E-02 0. -1.
    5000001    1    1    2    0    0 -0.34790449355E+03  0.52852487668E+02  0.65520273942E+03  0.76180479904E+03  0.16500000000E+03 0.  0.
   -5000001    1    1    2    0    0  0.34790449355E+03 -0.52852487668E+02  0.46458106777E+03  0.60571568464E+03  0.16500000000E+03 0.  0.
<mgrwt>
<rscale>  0 0.78498185E+03</rscale>
<asrwt>0</asrwt>
<pdfrwt beam="1">  1        2 0.17766459E+00 0.78498185E+03</pdfrwt>
<pdfrwt beam="2">  1       -2 0.17695477E-01 0.78498185E+03</pdfrwt>
<totfact> 0.53557338E+02</totfact>
</mgrwt>
</event>
<event>
 4    1  0.1025337E-004  0.7652595E+03  0.7818608E-02  0.9611710E-01
          2   -1    0    0  501    0  0.00000000000E+00  0.00000000000E+00  0.11505423579E+04  0.11505423579E+04  0.25500000000E-02 0.  1.
         -2   -1    0    0    0  501 -0.00000000000E+00 -0.00000000000E+00 -0.12724912719E+03  0.12724912722E+03  0.25500000000E-02 0. -1.
    5000001    1    1    2    0    0 -0.27689500608E+03  0.13174455075E+03  0.77646401763E+03  0.85096935416E+03  0.16500000000E+03 0.  0.
   -5000001    1    1    2    0    0  0.27689500608E+03 -0.13174455075E+03  0.24682921307E+03  0.42682213095E+03  0.16500000000E+03 0.  0.
<mgrwt>
<rscale>  0 0.76525946E+03</rscale>
<asrwt>0</asrwt>
<pdfrwt beam="1">  1        2 0.16436320E+00 0.76525946E+03</pdfrwt>
<pdfrwt beam="2">  1       -2 0.18178446E-01 0.76525946E+03</pdfrwt>
<totfact> 0.57771153E+02</totfact>
</mgrwt>
</event>
<event>
 4    1  0.1025337E-004  0.7495033E+03  0.7818608E-02  0.9636130E-01
         -2   -1    0    0    0  501 -0.00000000000E+00  0.00000000000E+00  0.91513993727E+03  0.91513993727E+03  0.25500000000E-02 0. -1.
          2   -1    0    0  501    0  0.00000000000E+00 -0.00000000000E+00 -0.15346155279E+03  0.15346155282E+03  0.25500000000E-02 0.  1.
    5000001    1    1    2    0    0  0.21362456142E+03 -0.25070211369E+03  0.28281675152E+03  0.46443225339E+03  0.16500000000E+03 0.  0.
   -5000001    1    1    2    0    0 -0.21362456142E+03  0.25070211369E+03  0.47886163296E+03  0.60416923670E+03  0.16500000000E+03 0.  0.
<mgrwt>
<rscale>  0 0.74950329E+03</rscale>
<asrwt>0</asrwt>
<pdfrwt beam="1">  1        2 0.21923078E-01 0.74950329E+03</pdfrwt>
<pdfrwt beam="2">  1       -2 0.13073428E+00 0.74950329E+03</pdfrwt>
<totfact> 0.11032159E+02</totfact>
</mgrwt>
</event>
<event>
 4    1  0.1025337E-004  0.1105290E+04  0.7818608E-02  0.9200051E-01
         -2   -1    0    0    0  501 -0.00000000000E+00  0.00000000000E+00  0.18396320664E+03  0.18396320665E+03  0.25500000000E-02 0. -1.
          2   -1    0    0  501    0  0.00000000000E+00 -0.00000000000E+00 -0.16602045227E+04  0.16602045227E+04  0.25500000000E-02 0.  1.
    5000001    1    1    2    0    0 -0.44469678837E+02 -0.52395013614E+03 -0.66952452456E+03  0.86717321597E+03  0.16500000000E+03 0.  0.
   -5000001    1    1    2    0    0  0.44469678837E+02  0.52395013614E+03 -0.80671679148E+03  0.97699451337E+03  0.16500000000E+03 0.  0.
<mgrwt>
<rscale>  0 0.11052901E+04</rscale>
<asrwt>0</asrwt>
<pdfrwt beam="1">  1        2 0.23717207E+00 0.11052901E+04</pdfrwt>
<pdfrwt beam="2">  1       -2 0.26280459E-01 0.11052901E+04</pdfrwt>
<totfact> 0.15622453E+02</totfact>
</mgrwt>
</event>
<event>
 4    1  0.1025337E-004  0.1526180E+04  0.7818608E-02  0.8867228E-01
         -2   -1    0    0    0  501 -0.00000000000E+00  0.00000000000E+00  0.37951729192E+03  0.37951729193E+03  0.25500000000E-02 0. -1.
          2   -1    0    0  501    0  0.00000000000E+00 -0.00000000000E+00 -0.15343338967E+04  0.15343338967E+04  0.25500000000E-02 0.  1.
    5000001    1    1    2    0    0 -0.64771570169E+03 -0.20496813396E+03 -0.96092692378E+03  0.11883404895E+04  0.16500000000E+03 0.  0.
   -5000001    1    1    2    0    0  0.64771570169E+03  0.20496813396E+03 -0.19388968100E+03  0.72551069913E+03  0.16500000000E+03 0.  0.
<mgrwt>
<rscale>  0 0.15261799E+04</rscale>
<asrwt>0</asrwt>
<pdfrwt beam="1">  1        2 0.21919055E+00 0.15261799E+04</pdfrwt>
<pdfrwt beam="2">  1       -2 0.54216757E-01 0.15261799E+04</pdfrwt>
<totfact> 0.43356928E+01</totfact>
</mgrwt>
</event>
<event>
 4    1  0.1025337E-004  0.4833219E+03  0.7818608E-02  0.1018226E+00
         -2   -1    0    0    0  501 -0.00000000000E+00  0.00000000000E+00  0.18894223581E+03  0.18894223583E+03  0.25500000000E-02 0. -1.
          2   -1    0    0  501    0  0.00000000000E+00 -0.00000000000E+00 -0.30908922503E+03  0.30908922504E+03  0.25500000000E-02 0.  1.
    5000001    1    1    2    0    0 -0.13849421581E+03 -0.10878874802E+03 -0.73081875889E+02  0.25215392143E+03  0.16500000000E+03 0.  0.
   -5000001    1    1    2    0    0  0.13849421581E+03  0.10878874802E+03 -0.47065113329E+02  0.24587753944E+03  0.16500000000E+03 0.  0.
<mgrwt>
<rscale>  0 0.48332188E+03</rscale>
<asrwt>0</asrwt>
<pdfrwt beam="1">  1        2 0.44155604E-01 0.48332188E+03</pdfrwt>
<pdfrwt beam="2">  1       -2 0.26991748E-01 0.48332188E+03</pdfrwt>
<totfact> 0.14331009E+03</totfact>
</mgrwt>
</event>
<event>
 4    1  0.1025337E-004  0.7761515E+03  0.7818608E-02  0.9595193E-01
         -2   -1    0    0    0  501 -0.00000000000E+00  0.00000000000E+00  0.53745106102E+03  0.53745106103E+03  0.25500000000E-02 0. -1.
          2   -1    0    0  501    0  0.00000000000E+00 -0.00000000000E+00 -0.28021671426E+03  0.28021671427E+03  0.25500000000E-02 0.  1.
    5000001    1    1    2    0    0 -0.20564656072E+03  0.28037037492E+03  0.76156806881E+02  0.39233010884E+03  0.16500000000E+03 0.  0.
   -5000001    1    1    2    0    0  0.20564656072E+03 -0.28037037492E+03  0.18107753988E+03  0.42533766647E+03  0.16500000000E+03 0.  0.
<mgrwt>
<rscale>  0 0.77615146E+03</rscale>
<asrwt>0</asrwt>
<pdfrwt beam="1">  1        2 0.40030960E-01 0.77615146E+03</pdfrwt>
<pdfrwt beam="2">  1       -2 0.76778721E-01 0.77615146E+03</pdfrwt>
<totfact> 0.19659626E+02</totfact>
</mgrwt>
</event>
<event>
 4    1  0.1025337E-004  0.7249275E+03  0.7818608E-02  0.9675528E-01
          2   -1    0    0  501    0  0.00000000000E+00  0.00000000000E+00  0.40929448841E+04  0.40929448841E+04  0.25500000000E-02 0.  1.
         -2   -1    0    0    0  501 -0.00000000000E+00 -0.00000000000E+00 -0.32099126881E+02  0.32099126982E+02  0.25500000000E-02 0. -1.
    5000001    1    1    2    0    0  0.74128988751E+01  0.29202883705E+03  0.12498127121E+04  0.12940605117E+04  0.16500000000E+03 0.  0.
   -5000001    1    1    2    0    0 -0.74128988751E+01 -0.29202883705E+03  0.28110330452E+04  0.28309834994E+04  0.16500000000E+03 0.  0.
<mgrwt>
<rscale>  0 0.72492746E+03</rscale>
<asrwt>0</asrwt>
<pdfrwt beam="1">  1        2 0.58470608E+00 0.72492746E+03</pdfrwt>
<pdfrwt beam="2">  1       -2 0.45855921E-02 0.72492746E+03</pdfrwt>
<totfact> 0.12688348E+02</totfact>
</mgrwt>
</event>
<event>
 4    1  0.1025337E-004  0.3836004E+03  0.7818608E-02  0.1049611E+00
          2   -1    0    0  501    0  0.00000000000E+00  0.00000000000E+00  0.12245338329E+04  0.12245338329E+04  0.25500000000E-02 0.  1.
         -2   -1    0    0    0  501 -0.00000000000E+00 -0.00000000000E+00 -0.30041896043E+02  0.30041896151E+02  0.25500000000E-02 0. -1.
    5000001    1    1    2    0    0  0.29540073848E+02 -0.16262542043E+02  0.29704730502E+03  0.34146623209E+03  0.16500000000E+03 0.  0.
   -5000001    1    1    2    0    0 -0.29540073848E+02  0.16262542043E+02  0.89744463182E+03  0.91310949695E+03  0.16500000000E+03 0.  0.
<mgrwt>
<rscale>  0 0.38360041E+03</rscale>
<asrwt>0</asrwt>
<pdfrwt beam="1">  1        2 0.17493338E+00 0.38360041E+03</pdfrwt>
<pdfrwt beam="2">  1       -2 0.42917000E-02 0.38360041E+03</pdfrwt>
<totfact> 0.53970346E+03</totfact>
</mgrwt>
</event>
<event>
 4    1  0.1025337E-004  0.1199355E+04  0.7818608E-02  0.9113422E-01
          2   -1    0    0  501    0  0.00000000000E+00  0.00000000000E+00  0.20665544153E+04  0.20665544153E+04  0.25500000000E-02 0.  1.
         -2   -1    0    0    0  501 -0.00000000000E+00 -0.00000000000E+00 -0.17401570881E+03  0.17401570883E+03  0.25500000000E-02 0. -1.
    5000001    1    1    2    0    0 -0.19782626315E+03 -0.14795553463E+03 -0.26892998634E+02  0.29828560809E+03  0.16500000000E+03 0.  0.
   -5000001    1    1    2    0    0  0.19782626315E+03  0.14795553463E+03  0.19194317052E+04  0.19422845161E+04  0.16500000000E+03 0.  0.
<mgrwt>
<rscale>  0 0.11993547E+04</rscale>
<asrwt>0</asrwt>
<pdfrwt beam="1">  1        2 0.29522203E+00 0.11993547E+04</pdfrwt>
<pdfrwt beam="2">  1       -2 0.24859389E-01 0.11993547E+04</pdfrwt>
<totfact> 0.10612257E+02</totfact>
</mgrwt>
</event>
<event>
 4    1  0.1025337E-004  0.4676174E+03  0.7818608E-02  0.1022595E+00
          2   -1    0    0  501    0  0.00000000000E+00  0.00000000000E+00  0.93550828765E+03  0.93550828766E+03  0.25500000000E-02 0.  1.
         -2   -1    0    0    0  501 -0.00000000000E+00 -0.00000000000E+00 -0.58435092254E+02  0.58435092310E+02  0.25500000000E-02 0. -1.
    5000001    1    1    2    0    0  0.14812613877E+03 -0.74117137727E+02  0.44408343658E+03  0.50186631859E+03  0.16500000000E+03 0.  0.
   -5000001    1    1    2    0    0 -0.14812613877E+03  0.74117137727E+02  0.43298975882E+03  0.49207706137E+03  0.16500000000E+03 0.  0.
<mgrwt>
<rscale>  0 0.46761742E+03</rscale>
<asrwt>0</asrwt>
<pdfrwt beam="1">  1        2 0.13364404E+00 0.46761742E+03</pdfrwt>
<pdfrwt beam="2">  1       -2 0.83478704E-02 0.46761742E+03</pdfrwt>
<totfact> 0.28303225E+03</totfact>
</mgrwt>
</event>
<event>
 4    1  0.1025337E-004  0.5165249E+03  0.7818608E-02  0.1009553E+00
         -2   -1    0    0    0  501 -0.00000000000E+00  0.00000000000E+00  0.21110439297E+02  0.21110439451E+02  0.25500000000E-02 0. -1.
          2   -1    0    0  501    0  0.00000000000E+00 -0.00000000000E+00 -0.31595507570E+04  0.31595507570E+04  0.25500000000E-02 0.  1.
    5000001    1    1    2    0    0 -0.10109972885E+03 -0.17102046128E+03 -0.15834650194E+04  0.16043863690E+04  0.16500000000E+03 0.  0.
   -5000001    1    1    2    0    0  0.10109972885E+03  0.17102046128E+03 -0.15549752983E+04  0.15762748275E+04  0.16500000000E+03 0.  0.
<mgrwt>
<rscale>  0 0.51652495E+03</rscale>
<asrwt>0</asrwt>
<pdfrwt beam="1">  1        2 0.45136409E+00 0.51652495E+03</pdfrwt>
<pdfrwt beam="2">  1       -2 0.30157791E-02 0.51652495E+03</pdfrwt>
<totfact> 0.92594647E+02</totfact>
</mgrwt>
</event>
<event>
 4    1  0.1025337E-004  0.3623286E+03  0.7818608E-02  0.1057666E+00
         -2   -1    0    0    0  501 -0.00000000000E+00  0.00000000000E+00  0.31274274478E+02  0.31274274581E+02  0.25500000000E-02 0. -1.
          2   -1    0    0  501    0  0.00000000000E+00 -0.00000000000E+00 -0.10494411805E+04  0.10494411805E+04  0.25500000000E-02 0.  1.
    5000001    1    1    2    0    0  0.48343587427E+02 -0.57042907075E+02 -0.50274504116E+03  0.53438616384E+03  0.16500000000E+03 0.  0.
   -5000001    1    1    2    0    0 -0.48343587427E+02  0.57042907075E+02 -0.51542186486E+03  0.54632929124E+03  0.16500000000E+03 0.  0.
<mgrwt>
<rscale>  0 0.36232864E+03</rscale>
<asrwt>0</asrwt>
<pdfrwt beam="1">  1        2 0.14992015E+00 0.36232864E+03</pdfrwt>
<pdfrwt beam="2">  1       -2 0.44677542E-02 0.36232864E+03</pdfrwt>
<totfact> 0.63649287E+03</totfact>
</mgrwt>
</event>
<event>
 4    1  0.1025337E-004  0.5191309E+03  0.7818608E-02  0.1008903E+00
          2   -1    0    0  501    0  0.00000000000E+00  0.00000000000E+00  0.69115734895E+03  0.69115734895E+03  0.25500000000E-02 0. -1.
         -2   -1    0    0    0  501 -0.00000000000E+00 -0.00000000000E+00 -0.97480281476E+02  0.97480281509E+02  0.25500000000E-02 0.  1.
    5000001    1    1    2    0    0  0.11550611183E+03 -0.15493569017E+03  0.21641703926E+03  0.33377846671E+03  0.16500000000E+03 0.  0.
   -5000001    1    1    2    0    0 -0.11550611183E+03  0.15493569017E+03  0.37726002821E+03  0.45485916375E+03  0.16500000000E+03 0.  0.
<mgrwt>
<rscale>  0 0.51913086E+03</rscale>
<asrwt>0</asrwt>
<pdfrwt beam="1">  1        2 0.98736767E-01 0.51913086E+03</pdfrwt>
<pdfrwt beam="2">  1       -2 0.13925754E-01 0.51913086E+03</pdfrwt>
<totfact> 0.18128085E+03</totfact>
</mgrwt>
</event>
<event>
 4    1  0.1025337E-004  0.3479013E+03  0.7818608E-02  0.1063480E+00
         -2   -1    0    0    0  501 -0.00000000000E+00  0.00000000000E+00  0.10301252434E+02  0.10301252749E+02  0.25500000000E-02 0. -1.
          2   -1    0    0  501    0  0.00000000000E+00 -0.00000000000E+00 -0.29373939556E+04  0.29373939556E+04  0.25500000000E-02 0.  1.
    5000001    1    1    2    0    0 -0.35973462382E+02  0.32332325358E+02 -0.16868116685E+04  0.16955524392E+04  0.16500000000E+03 0.  0.
   -5000001    1    1    2    0    0  0.35973462382E+02 -0.32332325358E+02 -0.12402810348E+04  0.12521427692E+04  0.16500000000E+03 0.  0.
<mgrwt>
<rscale>  0 0.34790135E+03</rscale>
<asrwt>0</asrwt>
<pdfrwt beam="1">  1        2 0.41962717E+00 0.34790135E+03</pdfrwt>
<pdfrwt beam="2">  1       -2 0.14716094E-02 0.34790135E+03</pdfrwt>
<totfact> 0.36181189E+03</totfact>
</mgrwt>
</event>
<event>
 4    1  0.1025337E-004  0.5762376E+03  0.7818608E-02  0.9955970E-01
         -2   -1    0    0    0  501 -0.00000000000E+00  0.00000000000E+00  0.31413914390E+02  0.31413914493E+02  0.25500000000E-02 0. -1.
          2   -1    0    0  501    0  0.00000000000E+00 -0.00000000000E+00 -0.26425372349E+04  0.26425372349E+04  0.25500000000E-02 0.  1.
    5000001    1    1    2    0    0 -0.12332103989E+03  0.17333683305E+03 -0.17818197897E+04  0.18020434233E+04  0.16500000000E+03 0.  0.
   -5000001    1    1    2    0    0  0.12332103989E+03 -0.17333683305E+03 -0.82930353084E+03  0.87190772610E+03  0.16500000000E+03 0.  0.
<mgrwt>
<rscale>  0 0.57623759E+03</rscale>
<asrwt>0</asrwt>
<pdfrwt beam="1">  1        2 0.37750518E+00 0.57623759E+03</pdfrwt>
<pdfrwt beam="2">  1       -2 0.44877037E-02 0.57623759E+03</pdfrwt>
<totfact> 0.94934864E+02</totfact>
</mgrwt>
</event>
<event>
 4    1  0.1025337E-004  0.7486367E+03  0.7818608E-02  0.9637492E-01
          2   -1    0    0  501    0  0.00000000000E+00  0.00000000000E+00  0.19891448231E+04  0.19891448231E+04  0.25500000000E-02 0.  1.
         -2   -1    0    0    0  501 -0.00000000000E+00 -0.00000000000E+00 -0.70439424701E+02  0.70439424747E+02  0.25500000000E-02 0. -1.
    5000001    1    1    2    0    0 -0.17091633241E+03 -0.68116426907E+00  0.17551635466E+04  0.17711682394E+04  0.16500000000E+03 0.  0.
   -5000001    1    1    2    0    0  0.17091633241E+03  0.68116426907E+00  0.16354185174E+03  0.28841600847E+03  0.16500000000E+03 0.  0.
<mgrwt>
<rscale>  0 0.74863667E+03</rscale>
<asrwt>0</asrwt>
<pdfrwt beam="1">  1        2 0.28416350E+00 0.74863667E+03</pdfrwt>
<pdfrwt beam="2">  1       -2 0.10062777E-01 0.74863667E+03</pdfrwt>
<totfact> 0.56305457E+02</totfact>
</mgrwt>
</event>
<event>
 4    1  0.1025337E-004  0.8059674E+03  0.7818608E-02  0.9551419E-01
         -2   -1    0    0    0  501 -0.00000000000E+00  0.00000000000E+00  0.55460782263E+02  0.55460782321E+02  0.25500000000E-02 0.  1.
          2   -1    0    0  501    0  0.00000000000E+00 -0.00000000000E+00 -0.29281208433E+04  0.29281208433E+04  0.25500000000E-02 0. -1.
    5000001    1    1    2    0    0  0.13255456483E+03  0.34066263152E+03 -0.15820317140E+04  0.16320756984E+04  0.16500000000E+03 0.  0.
   -5000001    1    1    2    0    0 -0.13255456483E+03 -0.34066263152E+03 -0.12906283471E+04  0.13515059273E+04  0.16500000000E+03 0.  0.
<mgrwt>
<rscale>  0 0.80596743E+03</rscale>
<asrwt>0</asrwt>
<pdfrwt beam="1">  1        2 0.41830288E+00 0.80596743E+03</pdfrwt>
<pdfrwt beam="2">  1       -2 0.79229707E-02 0.80596743E+03</pdfrwt>
<totfact> 0.26878369E+02</totfact>
</mgrwt>
</event>
<event>
 4    1  0.1025337E-004  0.7561320E+03  0.7818608E-02  0.9625779E-01
          2   -1    0    0  501    0  0.00000000000E+00  0.00000000000E+00  0.17917477723E+04  0.17917477723E+04  0.25500000000E-02 0.  1.
         -2   -1    0    0    0  501 -0.00000000000E+00 -0.00000000000E+00 -0.79773458712E+02  0.79773458753E+02  0.25500000000E-02 0. -1.
    5000001    1    1    2    0    0 -0.33166322166E+03  0.64223287915E+02  0.95448946693E+03  0.10258656178E+04  0.16500000000E+03 0.  0.
   -5000001    1    1    2    0    0  0.33166322166E+03 -0.64223287915E+02  0.75748484670E+03  0.84565561329E+03  0.16500000000E+03 0.  0.
<mgrwt>
<rscale>  0 0.75613204E+03</rscale>
<asrwt>0</asrwt>
<pdfrwt beam="1">  1        2 0.25596393E+00 0.75613204E+03</pdfrwt>
<pdfrwt beam="2">  1       -2 0.11396210E-01 0.75613204E+03</pdfrwt>
<totfact> 0.57808017E+02</totfact>
</mgrwt>
</event>
<event>
 4    1  0.1025337E-004  0.7075092E+03  0.7818608E-02  0.9704476E-01
         -2   -1    0    0    0  501 -0.00000000000E+00  0.00000000000E+00  0.15593128191E+03  0.15593128193E+03  0.25500000000E-02 0. -1.
          2   -1    0    0  501    0  0.00000000000E+00 -0.00000000000E+00 -0.80254782491E+03  0.80254782492E+03  0.25500000000E-02 0.  1.
    5000001    1    1    2    0    0  0.21965240349E+03  0.10411925102E+03 -0.56357961166E+02  0.29914748299E+03  0.16500000000E+03 0.  0.
   -5000001    1    1    2    0    0 -0.21965240349E+03 -0.10411925102E+03 -0.59025858184E+03  0.65933162386E+03  0.16500000000E+03 0.  0.
<mgrwt>
<rscale>  0 0.70750918E+03</rscale>
<asrwt>0</asrwt>
<pdfrwt beam="1">  1        2 0.11464969E+00 0.70750918E+03</pdfrwt>
<pdfrwt beam="2">  1       -2 0.22275898E-01 0.70750918E+03</pdfrwt>
<totfact> 0.66983580E+02</totfact>
</mgrwt>
</event>
<event>
 4    1  0.1025337E-004  0.5626724E+03  0.7818608E-02  0.9986026E-01
         -2   -1    0    0    0  501 -0.00000000000E+00  0.00000000000E+00  0.29944922419E+03  0.29944922420E+03  0.25500000000E-02 0. -1.
          2   -1    0    0  501    0  0.00000000000E+00 -0.00000000000E+00 -0.26431874981E+03  0.26431874983E+03  0.25500000000E-02 0.  1.
    5000001    1    1    2    0    0  0.17929546898E+03  0.21001349034E+02 -0.12176351589E+03  0.27320189542E+03  0.16500000000E+03 0.  0.
   -5000001    1    1    2    0    0 -0.17929546898E+03 -0.21001349034E+02  0.15689399027E+03  0.29056607861E+03  0.16500000000E+03 0.  0.
<mgrwt>
<rscale>  0 0.56267235E+03</rscale>
<asrwt>0</asrwt>
<pdfrwt beam="1">  1        2 0.37759821E-01 0.56267235E+03</pdfrwt>
<pdfrwt beam="2">  1       -2 0.42778461E-01 0.56267235E+03</pdfrwt>
<totfact> 0.71547674E+02</totfact>
</mgrwt>
</event>
<event>
 4    1  0.1025337E-004  0.3890870E+03  0.7818608E-02  0.1047625E+00
          2   -1    0    0  501    0  0.00000000000E+00  0.00000000000E+00  0.17454178834E+03  0.17454178836E+03  0.25500000000E-02 0.  1.
         -2   -1    0    0    0  501 -0.00000000000E+00 -0.00000000000E+00 -0.21683726648E+03  0.21683726649E+03  0.25500000000E-02 0. -1.
    5000001    1    1    2    0    0  0.31343818542E+02  0.98007226651E+02 -0.27039962956E+02  0.19632628717E+03  0.16500000000E+03 0.  0.
   -5000001    1    1    2    0    0 -0.31343818542E+02 -0.98007226651E+02 -0.15255515182E+02  0.19505276768E+03  0.16500000000E+03 0.  0.
<mgrwt>
<rscale>  0 0.38908695E+03</rscale>
<asrwt>0</asrwt>
<pdfrwt beam="1">  1        2 0.24934541E-01 0.38908695E+03</pdfrwt>
<pdfrwt beam="2">  1       -2 0.30976752E-01 0.38908695E+03</pdfrwt>
<totfact> 0.20952634E+03</totfact>
</mgrwt>
</event>
<event>
 4    1  0.1025337E-004  0.5120122E+03  0.7818608E-02  0.1010690E+00
         -2   -1    0    0    0  501 -0.00000000000E+00  0.00000000000E+00  0.25408402911E+04  0.25408402911E+04  0.25500000000E-02 0. -1.
          2   -1    0    0  501    0  0.00000000000E+00 -0.00000000000E+00 -0.25794269459E+02  0.25794269585E+02  0.25500000000E-02 0.  1.
    5000001    1    1    2    0    0 -0.14980129938E+03 -0.29973082429E+02  0.64408374698E+03  0.68220795077E+03  0.16500000000E+03 0.  0.
   -5000001    1    1    2    0    0  0.14980129938E+03  0.29973082429E+02  0.18709622747E+04  0.18844266100E+04  0.16500000000E+03 0.  0.
<mgrwt>
<rscale>  0 0.51201218E+03</rscale>
<asrwt>0</asrwt>
<pdfrwt beam="1">  1        2 0.36848975E-02 0.51201218E+03</pdfrwt>
<pdfrwt beam="2">  1       -2 0.36297700E+00 0.51201218E+03</pdfrwt>
<totfact> 0.35134320E+01</totfact>
</mgrwt>
</event>
<event>
 4    1  0.1025337E-004  0.3970958E+03  0.7818608E-02  0.1044790E+00
          2   -1    0    0  501    0  0.00000000000E+00  0.00000000000E+00  0.24109057507E+04  0.24109057507E+04  0.25500000000E-02 0.  1.
         -2   -1    0    0    0  501 -0.00000000000E+00 -0.00000000000E+00 -0.16351231102E+02  0.16351231301E+02  0.25500000000E-02 0. -1.
    5000001    1    1    2    0    0  0.46160541974E+02 -0.99310213308E+02  0.11101951172E+04  0.11277196071E+04  0.16500000000E+03 0.  0.
   -5000001    1    1    2    0    0 -0.46160541974E+02  0.99310213308E+02  0.12843594024E+04  0.12995373749E+04  0.16500000000E+03 0.  0.
<mgrwt>
<rscale>  0 0.39709584E+03</rscale>
<asrwt>0</asrwt>
<pdfrwt beam="1">  1        2 0.34441455E+00 0.39709584E+03</pdfrwt>
<pdfrwt beam="2">  1       -2 0.23358939E-02 0.39709584E+03</pdfrwt>
<totfact> 0.33941941E+03</totfact>
</mgrwt>
</event>
<event>
 4    1  0.1025337E-004  0.6085332E+03  0.7818608E-02  0.9887859E-01
          2   -1    0    0  501    0  0.00000000000E+00  0.00000000000E+00  0.21947667329E+04  0.21947667329E+04  0.25500000000E-02 0.  1.
         -2   -1    0    0    0  501 -0.00000000000E+00 -0.00000000000E+00 -0.42181325846E+02  0.42181325923E+02  0.25500000000E-02 0. -1.
    5000001    1    1    2    0    0  0.12570790853E+03  0.15993278041E+03  0.50714428001E+03  0.57079006058E+03  0.16500000000E+03 0.  0.
   -5000001    1    1    2    0    0 -0.12570790853E+03 -0.15993278041E+03  0.16454411270E+04  0.16661579982E+04  0.16500000000E+03 0.  0.
<mgrwt>
<rscale>  0 0.60853322E+03</rscale>
<asrwt>0</asrwt>
<pdfrwt beam="1">  1        2 0.31353801E+00 0.60853322E+03</pdfrwt>
<pdfrwt beam="2">  1       -2 0.60259055E-02 0.60853322E+03</pdfrwt>
<totfact> 0.10139632E+03</totfact>
</mgrwt>
</event>
<event>
 4    1  0.1025337E-004  0.7305985E+03  0.7818608E-02  0.9666290E-01
         -2   -1    0    0    0  501 -0.00000000000E+00  0.00000000000E+00  0.52240715085E+02  0.52240715148E+02  0.25500000000E-02 0. -1.
          2   -1    0    0  501    0  0.00000000000E+00 -0.00000000000E+00 -0.25543969807E+04  0.25543969807E+04  0.25500000000E-02 0.  1.
    5000001    1    1    2    0    0  0.21343202015E+03  0.53497778063E+02 -0.21088626145E+04  0.21267208953E+04  0.16500000000E+03 0.  0.
   -5000001    1    1    2    0    0 -0.21343202015E+03 -0.53497778063E+02 -0.39329365109E+03  0.47991680057E+03  0.16500000000E+03 0.  0.
<mgrwt>
<rscale>  0 0.73059845E+03</rscale>
<asrwt>0</asrwt>
<pdfrwt beam="1">  1        2 0.36491377E+00 0.73059845E+03</pdfrwt>
<pdfrwt beam="2">  1       -2 0.74629609E-02 0.73059845E+03</pdfrwt>
<totfact> 0.46972888E+02</totfact>
</mgrwt>
</event>
<event>
 4    1  0.1025337E-004  0.5342300E+03  0.7818608E-02  0.1005211E+00
          2   -1    0    0  501    0  0.00000000000E+00  0.00000000000E+00  0.74709964481E+03  0.74709964481E+03  0.25500000000E-02 0.  1.
         -2   -1    0    0    0  501 -0.00000000000E+00 -0.00000000000E+00 -0.95503219997E+02  0.95503220031E+02  0.25500000000E-02 0. -1.
    5000001    1    1    2    0    0  0.99315283308E+02 -0.12092224235E+03  0.54683378442E+03  0.59223129094E+03  0.16500000000E+03 0.  0.
   -5000001    1    1    2    0    0 -0.99315283308E+02  0.12092224235E+03  0.10476264040E+03  0.25037157390E+03  0.16500000000E+03 0.  0.
<mgrwt>
<rscale>  0 0.53422999E+03</rscale>
<asrwt>0</asrwt>
<pdfrwt beam="1">  1        2 0.10672852E+00 0.53422999E+03</pdfrwt>
<pdfrwt beam="2">  1       -2 0.13643317E-01 0.53422999E+03</pdfrwt>
<totfact> 0.17046947E+03</totfact>
</mgrwt>
</event>
<event>
 4    1  0.1025337E-004  0.5532217E+03  0.7818608E-02  0.1000751E+00
          2   -1    0    0  501    0  0.00000000000E+00  0.00000000000E+00  0.88067672779E+03  0.88067672780E+03  0.25500000000E-02 0.  1.
         -2   -1    0    0    0  501 -0.00000000000E+00 -0.00000000000E+00 -0.86880425944E+02  0.86880425981E+02  0.25500000000E-02 0. -1.
    5000001    1    1    2    0    0 -0.73475161625E+02 -0.19701169489E+03  0.52150837927E+03  0.58601040686E+03  0.16500000000E+03 0.  0.
   -5000001    1    1    2    0    0  0.73475161625E+02  0.19701169489E+03  0.27228792258E+03  0.38154674692E+03  0.16500000000E+03 0.  0.
<mgrwt>
<rscale>  0 0.55322172E+03</rscale>
<asrwt>0</asrwt>
<pdfrwt beam="1">  1        2 0.12581096E+00 0.55322172E+03</pdfrwt>
<pdfrwt beam="2">  1       -2 0.12411490E-01 0.55322172E+03</pdfrwt>
<totfact> 0.16149263E+03</totfact>
</mgrwt>
</event>
<event>
 4    1  0.1025337E-004  0.4246652E+03  0.7818608E-02  0.1035559E+00
         -2   -1    0    0    0  501 -0.00000000000E+00  0.00000000000E+00  0.22763864015E+03  0.22763864017E+03  0.25500000000E-02 0. -1.
          2   -1    0    0  501    0  0.00000000000E+00 -0.00000000000E+00 -0.19805572285E+03  0.19805572287E+03  0.25500000000E-02 0.  1.
    5000001    1    1    2    0    0  0.75761245352E+02  0.10778610228E+03 -0.76799436669E+01  0.21128556902E+03  0.16500000000E+03 0.  0.
   -5000001    1    1    2    0    0 -0.75761245352E+02 -0.10778610228E+03  0.37262860963E+02  0.21440879401E+03  0.16500000000E+03 0.  0.
<mgrwt>
<rscale>  0 0.42466521E+03</rscale>
<asrwt>0</asrwt>
<pdfrwt beam="1">  1        2 0.28293675E-01 0.42466521E+03</pdfrwt>
<pdfrwt beam="2">  1       -2 0.32519806E-01 0.42466521E+03</pdfrwt>
<totfact> 0.16633523E+03</totfact>
</mgrwt>
</event>
<event>
 4    1  0.1025337E-004  0.5074016E+03  0.7818608E-02  0.1011865E+00
         -2   -1    0    0    0  501 -0.00000000000E+00  0.00000000000E+00  0.43823469682E+02  0.43823469757E+02  0.25500000000E-02 0. -1.
          2   -1    0    0  501    0  0.00000000000E+00 -0.00000000000E+00 -0.14687129396E+04  0.14687129396E+04  0.25500000000E-02 0.  1.
    5000001    1    1    2    0    0 -0.15935510875E+03  0.56931731628E+02 -0.98733612688E+03  0.10152304665E+04  0.16500000000E+03 0.  0.
   -5000001    1    1    2    0    0  0.15935510875E+03 -0.56931731628E+02 -0.43755334299E+03  0.49730594277E+03  0.16500000000E+03 0.  0.
<mgrwt>
<rscale>  0 0.50740160E+03</rscale>
<asrwt>0</asrwt>
<pdfrwt beam="1">  1        2 0.20981610E+00 0.50740160E+03</pdfrwt>
<pdfrwt beam="2">  1       -2 0.62604966E-02 0.50740160E+03</pdfrwt>
<totfact> 0.22353918E+03</totfact>
</mgrwt>
</event>
<event>
 4    1  0.1025337E-004  0.4003917E+03  0.7818608E-02  0.1043644E+00
          2   -1    0    0  501    0  0.00000000000E+00  0.00000000000E+00  0.10127541293E+04  0.10127541293E+04  0.25500000000E-02 0.  1.
         -2   -1    0    0    0  501 -0.00000000000E+00 -0.00000000000E+00 -0.39573654825E+02  0.39573654907E+02  0.25500000000E-02 0. -1.
    5000001    1    1    2    0    0 -0.27959835019E+02  0.57582032154E+02  0.73252353150E+03  0.75360013734E+03  0.16500000000E+03 0.  0.
   -5000001    1    1    2    0    0  0.27959835019E+02 -0.57582032154E+02  0.24065694298E+03  0.29872764687E+03  0.16500000000E+03 0.  0.
<mgrwt>
<rscale>  0 0.40039172E+03</rscale>
<asrwt>0</asrwt>
<pdfrwt beam="1">  1        2 0.14467916E+00 0.40039172E+03</pdfrwt>
<pdfrwt beam="2">  1       -2 0.56533792E-02 0.40039172E+03</pdfrwt>
<totfact> 0.46695415E+03</totfact>
</mgrwt>
</event>
<event>
 4    1  0.1025337E-004  0.5393652E+03  0.7818608E-02  0.1003986E+00
          2   -1    0    0  501    0  0.00000000000E+00  0.00000000000E+00  0.38872849580E+02  0.38872849664E+02  0.25500000000E-02 0.  1.
         -2   -1    0    0    0  501 -0.00000000000E+00 -0.00000000000E+00 -0.18709383803E+04  0.18709383803E+04  0.25500000000E-02 0. -1.
    5000001    1    1    2    0    0  0.21000424874E+03 -0.37229887345E+02 -0.93013286988E+03  0.96843172430E+03  0.16500000000E+03 0.  0.
   -5000001    1    1    2    0    0 -0.21000424874E+03  0.37229887345E+02 -0.90193266088E+03  0.94137950571E+03  0.16500000000E+03 0.  0.
<mgrwt>
<rscale>  0 0.53936521E+03</rscale>
<asrwt>0</asrwt>
<pdfrwt beam="1">  1        2 0.55532654E-02 0.53936521E+03</pdfrwt>
<pdfrwt beam="2">  1       -2 0.26727686E+00 0.53936521E+03</pdfrwt>
<totfact> 0.75889122E+01</totfact>
</mgrwt>
</event>
<event>
 4    1  0.1025337E-004  0.3647559E+03  0.7818608E-02  0.1056716E+00
          2   -1    0    0  501    0  0.00000000000E+00  0.00000000000E+00  0.37174981637E+04  0.37174981637E+04  0.25500000000E-02 0. -1.
         -2   -1    0    0    0  501 -0.00000000000E+00 -0.00000000000E+00 -0.89473402770E+01  0.89473406404E+01  0.25500000000E-02 0.  1.
    5000001    1    1    2    0    0 -0.30235881596E+02 -0.48367293605E+02  0.13153133025E+04  0.13268487809E+04  0.16500000000E+03 0.  0.
   -5000001    1    1    2    0    0  0.30235881596E+02  0.48367293605E+02  0.23932375209E+04  0.23995967234E+04  0.16500000000E+03 0.  0.
<mgrwt>
<rscale>  0 0.36475593E+03</rscale>
<asrwt>0</asrwt>
<pdfrwt beam="1">  1        2 0.53107037E+00 0.36475593E+03</pdfrwt>
<pdfrwt beam="2">  1       -2 0.12781934E-02 0.36475593E+03</pdfrwt>
<totfact> 0.16044720E+03</totfact>
</mgrwt>
</event>
<event>
 4    1  0.1025337E-004  0.4222929E+03  0.7818608E-02  0.1036323E+00
          2   -1    0    0  501    0  0.00000000000E+00  0.00000000000E+00  0.73001298733E+02  0.73001298778E+02  0.25500000000E-02 0.  1.
         -2   -1    0    0    0  501 -0.00000000000E+00 -0.00000000000E+00 -0.61071265625E+03  0.61071265626E+03  0.25500000000E-02 0. -1.
    5000001    1    1    2    0    0 -0.62096382150E+02  0.10401765632E+03 -0.18500531628E+03  0.27591230591E+03  0.16500000000E+03 0.  0.
   -5000001    1    1    2    0    0  0.62096382150E+02 -0.10401765632E+03 -0.35270604123E+03  0.40780164912E+03  0.16500000000E+03 0.  0.
<mgrwt>
<rscale>  0 0.42229287E+03</rscale>
<asrwt>0</asrwt>
<pdfrwt beam="1">  1        2 0.10428757E-01 0.42229287E+03</pdfrwt>
<pdfrwt beam="2">  1       -2 0.87244662E-01 0.42229287E+03</pdfrwt>
<totfact> 0.71856449E+02</totfact>
</mgrwt>
</event>
<event>
 4    1  0.1025337E-004  0.6975188E+03  0.7818608E-02  0.9721485E-01
          2   -1    0    0  501    0  0.00000000000E+00  0.00000000000E+00  0.14195775827E+04  0.14195775827E+04  0.25500000000E-02 0.  1.
         -2   -1    0    0    0  501 -0.00000000000E+00 -0.00000000000E+00 -0.85682604975E+02  0.85682605013E+02  0.25500000000E-02 0. -1.
    5000001    1    1    2    0    0  0.19438297437E+03 -0.10406751221E+03  0.11287504738E+04  0.11618594665E+04  0.16500000000E+03 0.  0.
   -5000001    1    1    2    0    0 -0.19438297437E+03  0.10406751221E+03  0.20514450390E+03  0.34340072117E+03  0.16500000000E+03 0.  0.
<mgrwt>
<rscale>  0 0.69751876E+03</rscale>
<asrwt>0</asrwt>
<pdfrwt beam="1">  1        2 0.20279680E+00 0.69751876E+03</pdfrwt>
<pdfrwt beam="2">  1       -2 0.12240372E-01 0.69751876E+03</pdfrwt>
<totfact> 0.80334963E+02</totfact>
</mgrwt>
</event>
<event>
 4    1  0.1025337E-004  0.4027388E+03  0.7818608E-02  0.1042835E+00
         -2   -1    0    0    0  501 -0.00000000000E+00  0.00000000000E+00  0.88354481190E+02  0.88354481227E+02  0.25500000000E-02 0. -1.
          2   -1    0    0  501    0  0.00000000000E+00 -0.00000000000E+00 -0.45894248757E+03  0.45894248758E+03  0.25500000000E-02 0.  1.
    5000001    1    1    2    0    0  0.73704865700E+02  0.87007929995E+02 -0.20967314863E+03  0.29015619305E+03  0.16500000000E+03 0.  0.
   -5000001    1    1    2    0    0 -0.73704865700E+02 -0.87007929995E+02 -0.16091485774E+03  0.25714077575E+03  0.16500000000E+03 0.  0.
<mgrwt>
<rscale>  0 0.40273875E+03</rscale>
<asrwt>0</asrwt>
<pdfrwt beam="1">  1        2 0.65563211E-01 0.40273875E+03</pdfrwt>
<pdfrwt beam="2">  1       -2 0.12622069E-01 0.40273875E+03</pdfrwt>
<totfact> 0.34126662E+03</totfact>
</mgrwt>
</event>
<event>
 4    1  0.1025337E-004  0.6788675E+03  0.7818608E-02  0.9754070E-01
         -2   -1    0    0    0  501 -0.00000000000E+00  0.00000000000E+00  0.22508251695E+03  0.22508251697E+03  0.25500000000E-02 0. -1.
          2   -1    0    0  501    0  0.00000000000E+00 -0.00000000000E+00 -0.51188020137E+03  0.51188020137E+03  0.25500000000E-02 0.  1.
    5000001    1    1    2    0    0 -0.25834472580E+03 -0.59317359137E+02  0.11490056202E+01  0.31222886903E+03  0.16500000000E+03 0.  0.
   -5000001    1    1    2    0    0  0.25834472580E+03  0.59317359137E+02 -0.28794669003E+03  0.42473384931E+03  0.16500000000E+03 0.  0.
<mgrwt>
<rscale>  0 0.67886754E+03</rscale>
<asrwt>0</asrwt>
<pdfrwt beam="1">  1        2 0.73125743E-01 0.67886754E+03</pdfrwt>
<pdfrwt beam="2">  1       -2 0.32154645E-01 0.67886754E+03</pdfrwt>
<totfact> 0.59107584E+02</totfact>
</mgrwt>
</event>
<event>
 4    1  0.1025337E-004  0.4161920E+03  0.7818608E-02  0.1038313E+00
         -2   -1    0    0    0  501 -0.00000000000E+00  0.00000000000E+00  0.23779122700E+02  0.23779122837E+02  0.25500000000E-02 0. -1.
          2   -1    0    0  501    0  0.00000000000E+00 -0.00000000000E+00 -0.18210913312E+04  0.18210913312E+04  0.25500000000E-02 0.  1.
    5000001    1    1    2    0    0  0.72244203824E+02 -0.49230920029E+02 -0.13057940378E+04  0.13190776996E+04  0.16500000000E+03 0.  0.
   -5000001    1    1    2    0    0 -0.72244203824E+02  0.49230920029E+02 -0.49151817067E+03  0.52579275439E+03  0.16500000000E+03 0.  0.
<mgrwt>
<rscale>  0 0.41619204E+03</rscale>
<asrwt>0</asrwt>
<pdfrwt beam="1">  1        2 0.26015582E+00 0.41619204E+03</pdfrwt>
<pdfrwt beam="2">  1       -2 0.33970187E-02 0.41619204E+03</pdfrwt>
<totfact> 0.37955303E+03</totfact>
</mgrwt>
</event>
<event>
 4    1  0.1025337E-004  0.4376732E+03  0.7818608E-02  0.1031463E+00
         -2   -1    0    0    0  501 -0.00000000000E+00  0.00000000000E+00  0.20027299187E+03  0.20027299189E+03  0.25500000000E-02 0. -1.
          2   -1    0    0  501    0  0.00000000000E+00 -0.00000000000E+00 -0.23912084922E+03  0.23912084924E+03  0.25500000000E-02 0.  1.
    5000001    1    1    2    0    0  0.92364674317E+01  0.10517634541E+03  0.78515085997E+02  0.21103789871E+03  0.16500000000E+03 0.  0.
   -5000001    1    1    2    0    0 -0.92364674317E+01 -0.10517634541E+03 -0.11736294335E+03  0.22835594241E+03  0.16500000000E+03 0.  0.
<mgrwt>
<rscale>  0 0.43767316E+03</rscale>
<asrwt>0</asrwt>
<pdfrwt beam="1">  1        2 0.34160121E-01 0.43767316E+03</pdfrwt>
<pdfrwt beam="2">  1       -2 0.28610428E-01 0.43767316E+03</pdfrwt>
<totfact> 0.17082592E+03</totfact>
</mgrwt>
</event>
<event>
 4    1  0.1025337E-004  0.6871872E+03  0.7818608E-02  0.9739398E-01
          2   -1    0    0  501    0  0.00000000000E+00  0.00000000000E+00  0.45421493926E+03  0.45421493927E+03  0.25500000000E-02 0.  1.
         -2   -1    0    0    0  501 -0.00000000000E+00 -0.00000000000E+00 -0.25991344887E+03  0.25991344889E+03  0.25500000000E-02 0. -1.
    5000001    1    1    2    0    0  0.18360451855E+03  0.23769362104E+03  0.12308291154E+03  0.36411987014E+03  0.16500000000E+03 0.  0.
   -5000001    1    1    2    0    0 -0.18360451855E+03 -0.23769362104E+03  0.71218578848E+02  0.35000851802E+03  0.16500000000E+03 0.  0.
<mgrwt>
<rscale>  0 0.68718723E+03</rscale>
<asrwt>0</asrwt>
<pdfrwt beam="1">  1        2 0.64887848E-01 0.68718723E+03</pdfrwt>
<pdfrwt beam="2">  1       -2 0.37130493E-01 0.68718723E+03</pdfrwt>
<totfact> 0.51536715E+02</totfact>
</mgrwt>
</event>
<event>
 4    1  0.1025337E-004  0.7718300E+03  0.7818608E-02  0.9601712E-01
         -2   -1    0    0    0  501 -0.00000000000E+00  0.00000000000E+00  0.48056951884E+03  0.48056951885E+03  0.25500000000E-02 0. -1.
          2   -1    0    0  501    0  0.00000000000E+00 -0.00000000000E+00 -0.30990396604E+03  0.30990396605E+03  0.25500000000E-02 0.  1.
    5000001    1    1    2    0    0  0.30160376054E+02 -0.25601372326E+03  0.32606957708E+03  0.44721252652E+03  0.16500000000E+03 0.  0.
   -5000001    1    1    2    0    0 -0.30160376054E+02  0.25601372326E+03 -0.15540402427E+03  0.34326095837E+03  0.16500000000E+03 0.  0.
<mgrwt>
<rscale>  0 0.77183003E+03</rscale>
<asrwt>0</asrwt>
<pdfrwt beam="1">  1        2 0.44271996E-01 0.77183003E+03</pdfrwt>
<pdfrwt beam="2">  1       -2 0.68652788E-01 0.77183003E+03</pdfrwt>
<totfact> 0.22485534E+02</totfact>
</mgrwt>
</event>
<event>
 4    1  0.1025337E-004  0.6222215E+03  0.7818608E-02  0.9860347E-01
         -2   -1    0    0    0  501 -0.00000000000E+00  0.00000000000E+00  0.46283602689E+03  0.46283602689E+03  0.25500000000E-02 0. -1.
          2   -1    0    0  501    0  0.00000000000E+00 -0.00000000000E+00 -0.20912350158E+03  0.20912350160E+03  0.25500000000E-02 0.  1.
    5000001    1    1    2    0    0  0.13108134616E+03 -0.87850786392E+02  0.35509054028E+03  0.42215444067E+03  0.16500000000E+03 0.  0.
   -5000001    1    1    2    0    0 -0.13108134616E+03  0.87850786392E+02 -0.10137801498E+03  0.24980508782E+03  0.16500000000E+03 0.  0.
<mgrwt>
<rscale>  0 0.62222147E+03</rscale>
<asrwt>0</asrwt>
<pdfrwt beam="1">  1        2 0.29874786E-01 0.62222147E+03</pdfrwt>
<pdfrwt beam="2">  1       -2 0.66119432E-01 0.62222147E+03</pdfrwt>
<totfact> 0.37978937E+02</totfact>
</mgrwt>
</event>
<event>
 4    1  0.1025337E-004  0.3565792E+03  0.7818608E-02  0.1059947E+00
         -2   -1    0    0    0  501 -0.00000000000E+00  0.00000000000E+00  0.63860940754E+02  0.63860940805E+02  0.25500000000E-02 0. -1.
          2   -1    0    0  501    0  0.00000000000E+00 -0.00000000000E+00 -0.49775630717E+03  0.49775630718E+03  0.25500000000E-02 0.  1.
    5000001    1    1    2    0    0  0.57770866334E+02  0.16204754436E+02 -0.16809383328E+03  0.24306501980E+03  0.16500000000E+03 0.  0.
   -5000001    1    1    2    0    0 -0.57770866334E+02 -0.16204754436E+02 -0.26580153314E+03  0.31855222818E+03  0.16500000000E+03 0.  0.
<mgrwt>
<rscale>  0 0.35657923E+03</rscale>
<asrwt>0</asrwt>
<pdfrwt beam="1">  1        2 0.71108042E-01 0.35657923E+03</pdfrwt>
<pdfrwt beam="2">  1       -2 0.91229918E-02 0.35657923E+03</pdfrwt>
<totfact> 0.52491762E+03</totfact>
</mgrwt>
</event>
<event>
 4    1  0.1025337E-004  0.4455120E+03  0.7818608E-02  0.1029069E+00
         -2   -1    0    0    0  501 -0.00000000000E+00  0.00000000000E+00  0.29078613990E+03  0.29078613991E+03  0.25500000000E-02 0. -1.
          2   -1    0    0  501    0  0.00000000000E+00 -0.00000000000E+00 -0.17064168748E+03  0.17064168750E+03  0.25500000000E-02 0.  1.
    5000001    1    1    2    0    0  0.97454796991E+02  0.11333153281E+03  0.67666556083E+02  0.23269129034E+03  0.16500000000E+03 0.  0.
   -5000001    1    1    2    0    0 -0.97454796991E+02 -0.11333153281E+03  0.52477896338E+02  0.22873653707E+03  0.16500000000E+03 0.  0.
<mgrwt>
<rscale>  0 0.44551201E+03</rscale>
<asrwt>0</asrwt>
<pdfrwt beam="1">  1        2 0.24377384E-01 0.44551201E+03</pdfrwt>
<pdfrwt beam="2">  1       -2 0.41540877E-01 0.44551201E+03</pdfrwt>
<totfact> 0.12362648E+03</totfact>
</mgrwt>
</event>
<event>
 4    1  0.1025337E-004  0.4727816E+03  0.7818608E-02  0.1021138E+00
          2   -1    0    0  501    0  0.00000000000E+00  0.00000000000E+00  0.82766841229E+03  0.82766841229E+03  0.25500000000E-02 0.  1.
         -2   -1    0    0    0  501 -0.00000000000E+00 -0.00000000000E+00 -0.67515700023E+02  0.67515700071E+02  0.25500000000E-02 0. -1.
    5000001    1    1    2    0    0 -0.49207099456E+02  0.16131731385E+03  0.40758003815E+03  0.47094702662E+03  0.16500000000E+03 0.  0.
   -5000001    1    1    2    0    0  0.49207099456E+02 -0.16131731385E+03  0.35257267411E+03  0.42423708574E+03  0.16500000000E+03 0.  0.
<mgrwt>
<rscale>  0 0.47278161E+03</rscale>
<asrwt>0</asrwt>
<pdfrwt beam="1">  1        2 0.11823833E+00 0.47278161E+03</pdfrwt>
<pdfrwt beam="2">  1       -2 0.96451009E-02 0.47278161E+03</pdfrwt>
<totfact> 0.26393212E+03</totfact>
</mgrwt>
</event>
<event>
 4    1  0.1025337E-004  0.4052704E+03  0.7818608E-02  0.1041970E+00
          2   -1    0    0  501    0  0.00000000000E+00  0.00000000000E+00  0.12894281144E+04  0.12894281144E+04  0.25500000000E-02 0.  1.
         -2   -1    0    0    0  501 -0.00000000000E+00 -0.00000000000E+00 -0.31844371517E+02  0.31844371619E+02  0.25500000000E-02 0. -1.
    5000001    1    1    2    0    0 -0.49953351864E+02  0.86876092376E+02  0.82958663033E+03  0.85175217640E+03  0.16500000000E+03 0.  0.
   -5000001    1    1    2    0    0  0.49953351864E+02 -0.86876092376E+02  0.42799711256E+03  0.46952030963E+03  0.16500000000E+03 0.  0.
<mgrwt>
<rscale>  0 0.40527042E+03</rscale>
<asrwt>0</asrwt>
<pdfrwt beam="1">  1        2 0.18420405E+00 0.40527042E+03</pdfrwt>
<pdfrwt beam="2">  1       -2 0.45491951E-02 0.40527042E+03</pdfrwt>
<totfact> 0.45563385E+03</totfact>
</mgrwt>
</event>
<event>
 4    1  0.1025337E-004  0.5091315E+03  0.7818608E-02  0.1011423E+00
         -2   -1    0    0    0  501 -0.00000000000E+00  0.00000000000E+00  0.21564587177E+03  0.21564587179E+03  0.25500000000E-02 0. -1.
          2   -1    0    0  501    0  0.00000000000E+00 -0.00000000000E+00 -0.30050995290E+03  0.30050995291E+03  0.25500000000E-02 0.  1.
    5000001    1    1    2    0    0 -0.17171642514E+03  0.89856388031E+02 -0.38127325604E+02  0.25737014996E+03  0.16500000000E+03 0.  0.
   -5000001    1    1    2    0    0  0.17171642514E+03 -0.89856388031E+02 -0.46736755527E+02  0.25878567474E+03  0.16500000000E+03 0.  0.
<mgrwt>
<rscale>  0 0.50913154E+03</rscale>
<asrwt>0</asrwt>
<pdfrwt beam="1">  1        2 0.42929993E-01 0.50913154E+03</pdfrwt>
<pdfrwt beam="2">  1       -2 0.30806553E-01 0.50913154E+03</pdfrwt>
<totfact> 0.11608479E+03</totfact>
</mgrwt>
</event>
<event>
 4    1  0.1025337E-004  0.4012321E+03  0.7818608E-02  0.1043354E+00
          2   -1    0    0  501    0  0.00000000000E+00  0.00000000000E+00  0.28847463622E+02  0.28847463735E+02  0.25500000000E-02 0.  1.
         -2   -1    0    0    0  501 -0.00000000000E+00 -0.00000000000E+00 -0.13951590661E+04  0.13951590661E+04  0.25500000000E-02 0. -1.
    5000001    1    1    2    0    0 -0.10615892074E+03 -0.25507827258E+02 -0.56536925203E+03  0.59898894551E+03  0.16500000000E+03 0.  0.
   -5000001    1    1    2    0    0  0.10615892074E+03  0.25507827258E+02 -0.80094235044E+03  0.82501758432E+03  0.16500000000E+03 0.  0.
<mgrwt>
<rscale>  0 0.40123210E+03</rscale>
<asrwt>0</asrwt>
<pdfrwt beam="1">  1        2 0.41210671E-02 0.40123210E+03</pdfrwt>
<pdfrwt beam="2">  1       -2 0.19930840E+00 0.40123210E+03</pdfrwt>
<totfact> 0.29687501E+02</totfact>
</mgrwt>
</event>
<event>
 4    1  0.1025337E-004  0.6558809E+03  0.7818608E-02  0.9795806E-01
         -2   -1    0    0    0  501 -0.00000000000E+00  0.00000000000E+00  0.89170247204E+02  0.89170247240E+02  0.25500000000E-02 0. -1.
          2   -1    0    0  501    0  0.00000000000E+00 -0.00000000000E+00 -0.12060628876E+04  0.12060628876E+04  0.25500000000E-02 0.  1.
    5000001    1    1    2    0    0  0.18963934872E+03  0.29672198688E+02 -0.14668097254E+03  0.29254714093E+03  0.16500000000E+03 0.  0.
   -5000001    1    1    2    0    0 -0.18963934872E+03 -0.29672198688E+02 -0.97021166783E+03  0.10026859939E+04  0.16500000000E+03 0.  0.
<mgrwt>
<rscale>  0 0.65588086E+03</rscale>
<asrwt>0</asrwt>
<pdfrwt beam="1">  1        2 0.17229469E+00 0.65588086E+03</pdfrwt>
<pdfrwt beam="2">  1       -2 0.12738607E-01 0.65588086E+03</pdfrwt>
<totfact> 0.98462055E+02</totfact>
</mgrwt>
</event>
<event>
 4    1  0.1025337E-004  0.7131293E+03  0.7818608E-02  0.9695039E-01
          2   -1    0    0  501    0  0.00000000000E+00  0.00000000000E+00  0.13053552261E+04  0.13053552261E+04  0.25500000000E-02 0.  1.
         -2   -1    0    0    0  501 -0.00000000000E+00 -0.00000000000E+00 -0.97397514720E+02  0.97397514754E+02  0.25500000000E-02 0. -1.
    5000001    1    1    2    0    0  0.20458447029E+03 -0.16650952138E+03  0.94656629849E+03  0.99638997568E+03  0.16500000000E+03 0.  0.
   -5000001    1    1    2    0    0 -0.20458447029E+03  0.16650952138E+03  0.26139141289E+03  0.40636276518E+03  0.16500000000E+03 0.  0.
<mgrwt>
<rscale>  0 0.71312931E+03</rscale>
<asrwt>0</asrwt>
<pdfrwt beam="1">  1        2 0.18647930E+00 0.71312931E+03</pdfrwt>
<pdfrwt beam="2">  1       -2 0.13913932E-01 0.71312931E+03</pdfrwt>
<totfact> 0.74729185E+02</totfact>
</mgrwt>
</event>
<event>
 4    1  0.1025337E-004  0.5528568E+03  0.7818608E-02  0.1000835E+00
          2   -1    0    0  501    0  0.00000000000E+00  0.00000000000E+00  0.11935467137E+04  0.11935467137E+04  0.25500000000E-02 0.  1.
         -2   -1    0    0    0  501 -0.00000000000E+00 -0.00000000000E+00 -0.64021508839E+02  0.64021508889E+02  0.25500000000E-02 0. -1.
    5000001    1    1    2    0    0  0.64720341805E+02 -0.11330249545E+03  0.97269381038E+03  0.99518060013E+03  0.16500000000E+03 0.  0.
   -5000001    1    1    2    0    0 -0.64720341805E+02  0.11330249545E+03  0.15683139444E+03  0.26238762243E+03  0.16500000000E+03 0.  0.
<mgrwt>
<rscale>  0 0.55285680E+03</rscale>
<asrwt>0</asrwt>
<pdfrwt beam="1">  1        2 0.17050667E+00 0.55285680E+03</pdfrwt>
<pdfrwt beam="2">  1       -2 0.91459301E-02 0.55285680E+03</pdfrwt>
<totfact> 0.17228936E+03</totfact>
</mgrwt>
</event>
<event>
 4    1  0.1025337E-004  0.6239479E+03  0.7818608E-02  0.9856931E-01
         -2   -1    0    0    0  501 -0.00000000000E+00  0.00000000000E+00  0.71368746352E+02  0.71368746397E+02  0.25500000000E-02 0. -1.
          2   -1    0    0  501    0  0.00000000000E+00 -0.00000000000E+00 -0.13637304713E+04  0.13637304713E+04  0.25500000000E-02 0.  1.
    5000001    1    1    2    0    0  0.66295616547E+02 -0.25626234109E+03 -0.63214541726E+03  0.70491015370E+03  0.16500000000E+03 0.  0.
   -5000001    1    1    2    0    0 -0.66295616547E+02  0.25626234109E+03 -0.66021630764E+03  0.73018906395E+03  0.16500000000E+03 0.  0.
<mgrwt>
<rscale>  0 0.62394786E+03</rscale>
<asrwt>0</asrwt>
<pdfrwt beam="1">  1        2 0.19481862E+00 0.62394786E+03</pdfrwt>
<pdfrwt beam="2">  1       -2 0.10195536E-01 0.62394786E+03</pdfrwt>
<totfact> 0.11643427E+03</totfact>
</mgrwt>
</event>
<event>
 4    1  0.1025337E-004  0.1215520E+04  0.7818608E-02  0.9099379E-01
         -2   -1    0    0    0  501 -0.00000000000E+00  0.00000000000E+00  0.17869009839E+03  0.17869009841E+03  0.25500000000E-02 0. -1.
          2   -1    0    0  501    0  0.00000000000E+00 -0.00000000000E+00 -0.20671112949E+04  0.20671112949E+04  0.25500000000E-02 0.  1.
    5000001    1    1    2    0    0 -0.46279627552E+03  0.30918231160E+03 -0.12766420978E+04  0.14024315100E+04  0.16500000000E+03 0.  0.
   -5000001    1    1    2    0    0  0.46279627552E+03 -0.30918231160E+03 -0.61177909874E+03  0.84336988332E+03  0.16500000000E+03 0.  0.
<mgrwt>
<rscale>  0 0.12155202E+04</rscale>
<asrwt>0</asrwt>
<pdfrwt beam="1">  1        2 0.29530160E+00 0.12155202E+04</pdfrwt>
<pdfrwt beam="2">  1       -2 0.25527158E-01 0.12155202E+04</pdfrwt>
<totfact> 0.10095510E+02</totfact>
</mgrwt>
</event>
<event>
 4    1  0.1025337E-004  0.4656341E+03  0.7818608E-02  0.1023160E+00
          2   -1    0    0  501    0  0.00000000000E+00  0.00000000000E+00  0.32145326861E+03  0.32145326862E+03  0.25500000000E-02 0.  1.
         -2   -1    0    0    0  501 -0.00000000000E+00 -0.00000000000E+00 -0.16862104826E+03  0.16862104828E+03  0.25500000000E-02 0. -1.
    5000001    1    1    2    0    0  0.89237579820E+02 -0.13477463387E+03  0.10712350877E+03  0.25461342015E+03  0.16500000000E+03 0.  0.
   -5000001    1    1    2    0    0 -0.89237579820E+02  0.13477463387E+03  0.45708711581E+02  0.23546089676E+03  0.16500000000E+03 0.  0.
<mgrwt>
<rscale>  0 0.46563414E+03</rscale>
<asrwt>0</asrwt>
<pdfrwt beam="1">  1        2 0.45921896E-01 0.46563414E+03</pdfrwt>
<pdfrwt beam="2">  1       -2 0.24088721E-01 0.46563414E+03</pdfrwt>
<totfact> 0.16828899E+03</totfact>
</mgrwt>
</event>
<event>
 4    1  0.1025337E-004  0.5335841E+03  0.7818608E-02  0.1005367E+00
         -2   -1    0    0    0  501 -0.00000000000E+00  0.00000000000E+00  0.44326230715E+02  0.44326230788E+02  0.25500000000E-02 0. -1.
          2   -1    0    0  501    0  0.00000000000E+00 -0.00000000000E+00 -0.16057757984E+04  0.16057757984E+04  0.25500000000E-02 0.  1.
    5000001    1    1    2    0    0  0.16006785159E+03  0.55612922568E+02 -0.11624744718E+04  0.11862910316E+04  0.16500000000E+03 0.  0.
   -5000001    1    1    2    0    0 -0.16006785159E+03 -0.55612922568E+02 -0.39897509588E+03  0.46381099750E+03  0.16500000000E+03 0.  0.
<mgrwt>
<rscale>  0 0.53358406E+03</rscale>
<asrwt>0</asrwt>
<pdfrwt beam="1">  1        2 0.22939651E+00 0.53358406E+03</pdfrwt>
<pdfrwt beam="2">  1       -2 0.63323197E-02 0.53358406E+03</pdfrwt>
<totfact> 0.18647516E+03</totfact>
</mgrwt>
</event>
<event>
 4    1  0.1025337E-004  0.5944946E+03  0.7818608E-02  0.9916894E-01
         -2   -1    0    0    0  501 -0.00000000000E+00  0.00000000000E+00  0.13472383247E+03  0.13472383249E+03  0.25500000000E-02 0. -1.
          2   -1    0    0  501    0  0.00000000000E+00 -0.00000000000E+00 -0.65583019818E+03  0.65583019818E+03  0.25500000000E-02 0.  1.
    5000001    1    1    2    0    0  0.10624071045E+03  0.22084124155E+03 -0.30411305395E+03  0.42399020284E+03  0.16500000000E+03 0.  0.
   -5000001    1    1    2    0    0 -0.10624071045E+03 -0.22084124155E+03 -0.21699331176E+03  0.36656382783E+03  0.16500000000E+03 0.  0.
<mgrwt>
<rscale>  0 0.59449460E+03</rscale>
<asrwt>0</asrwt>
<pdfrwt beam="1">  1        2 0.93690027E-01 0.59449460E+03</pdfrwt>
<pdfrwt beam="2">  1       -2 0.19246262E-01 0.59449460E+03</pdfrwt>
<totfact> 0.11146212E+03</totfact>
</mgrwt>
</event>
<event>
 4    1  0.1025337E-004  0.5737498E+03  0.7818608E-02  0.9961415E-01
          2   -1    0    0  501    0  0.00000000000E+00  0.00000000000E+00  0.23683344268E+03  0.23683344269E+03  0.25500000000E-02 0.  1.
         -2   -1    0    0    0  501 -0.00000000000E+00 -0.00000000000E+00 -0.34748976585E+03  0.34748976586E+03  0.25500000000E-02 0. -1.
    5000001    1    1    2    0    0  0.19796472492E+03  0.55533466108E+01 -0.18355041660E+03  0.31644371918E+03  0.16500000000E+03 0.  0.
   -5000001    1    1    2    0    0 -0.19796472492E+03 -0.55533466108E+01  0.72894093429E+02  0.26787948938E+03  0.16500000000E+03 0.  0.
<mgrwt>
<rscale>  0 0.57374976E+03</rscale>
<asrwt>0</asrwt>
<pdfrwt beam="1">  1        2 0.33833349E-01 0.57374976E+03</pdfrwt>
<pdfrwt beam="2">  1       -2 0.49641395E-01 0.57374976E+03</pdfrwt>
<totfact> 0.60083058E+02</totfact>
</mgrwt>
</event>
<event>
 4    1  0.1025337E-004  0.4120645E+03  0.7818608E-02  0.1039680E+00
         -2   -1    0    0    0  501 -0.00000000000E+00  0.00000000000E+00  0.18315707774E+03  0.18315707776E+03  0.25500000000E-02 0. -1.
          2   -1    0    0  501    0  0.00000000000E+00 -0.00000000000E+00 -0.23176435433E+03  0.23176435434E+03  0.25500000000E-02 0.  1.
    5000001    1    1    2    0    0  0.48996353001E+02  0.10981675096E+03  0.35271029320E+01  0.20420039631E+03  0.16500000000E+03 0.  0.
   -5000001    1    1    2    0    0 -0.48996353001E+02 -0.10981675096E+03 -0.52134379516E+02  0.21072103579E+03  0.16500000000E+03 0.  0.
<mgrwt>
<rscale>  0 0.41206447E+03</rscale>
<asrwt>0</asrwt>
<pdfrwt beam="1">  1        2 0.33109193E-01 0.41206447E+03</pdfrwt>
<pdfrwt beam="2">  1       -2 0.26165297E-01 0.41206447E+03</pdfrwt>
<totfact> 0.20766691E+03</totfact>
</mgrwt>
</event>
<event>
 4    1  0.1025337E-004  0.8184044E+03  0.7818608E-02  0.9533753E-01
         -2   -1    0    0    0  501 -0.00000000000E+00  0.00000000000E+00  0.14608383969E+03  0.14608383971E+03  0.25500000000E-02 0. -1.
          2   -1    0    0  501    0  0.00000000000E+00 -0.00000000000E+00 -0.11462352129E+04  0.11462352129E+04  0.25500000000E-02 0.  1.
    5000001    1    1    2    0    0  0.51305349972E+01 -0.37129629663E+03 -0.57636590413E+03  0.70520204035E+03  0.16500000000E+03 0.  0.
   -5000001    1    1    2    0    0 -0.51305349972E+01  0.37129629663E+03 -0.42378546909E+03  0.58711701226E+03  0.16500000000E+03 0.  0.
<mgrwt>
<rscale>  0 0.81840440E+03</rscale>
<asrwt>0</asrwt>
<pdfrwt beam="1">  1        2 0.16374788E+00 0.81840440E+03</pdfrwt>
<pdfrwt beam="2">  1       -2 0.20869120E-01 0.81840440E+03</pdfrwt>
<totfact> 0.45565341E+02</totfact>
</mgrwt>
</event>
<event>
 4    1  0.1025337E-004  0.6611469E+03  0.7818608E-02  0.9786085E-01
         -2   -1    0    0    0  501 -0.00000000000E+00  0.00000000000E+00  0.67847004437E+02  0.67847004485E+02  0.25500000000E-02 0. -1.
          2   -1    0    0  501    0  0.00000000000E+00 -0.00000000000E+00 -0.16106650959E+04  0.16106650959E+04  0.25500000000E-02 0.  1.
    5000001    1    1    2    0    0  0.34700294014E+02  0.17851131125E+03 -0.13332986488E+04  0.13557214632E+04  0.16500000000E+03 0.  0.
   -5000001    1    1    2    0    0 -0.34700294014E+02 -0.17851131125E+03 -0.20951944261E+03  0.32279063723E+03  0.16500000000E+03 0.  0.
<mgrwt>
<rscale>  0 0.66114689E+03</rscale>
<asrwt>0</asrwt>
<pdfrwt beam="1">  1        2 0.23009499E+00 0.66114689E+03</pdfrwt>
<pdfrwt beam="2">  1       -2 0.96924302E-02 0.66114689E+03</pdfrwt>
<totfact> 0.93675051E+02</totfact>
</mgrwt>
</event>
<event>
 4    1  0.1025337E-004  0.5580846E+03  0.7818608E-02  0.9996398E-01
         -2   -1    0    0    0  501 -0.00000000000E+00  0.00000000000E+00  0.41034857768E+03  0.41034857769E+03  0.25500000000E-02 0. -1.
          2   -1    0    0  501    0  0.00000000000E+00 -0.00000000000E+00 -0.18975234387E+03  0.18975234389E+03  0.25500000000E-02 0.  1.
    5000001    1    1    2    0    0 -0.90544601241E+02  0.17868785296E+03  0.51440860878E-01  0.25952394158E+03  0.16500000000E+03 0.  0.
   -5000001    1    1    2    0    0  0.90544601241E+02 -0.17868785296E+03  0.22054479295E+03  0.34057698000E+03  0.16500000000E+03 0.  0.
<mgrwt>
<rscale>  0 0.55808460E+03</rscale>
<asrwt>0</asrwt>
<pdfrwt beam="1">  1        2 0.27107478E-01 0.55808460E+03</pdfrwt>
<pdfrwt beam="2">  1       -2 0.58621225E-01 0.55808460E+03</pdfrwt>
<totfact> 0.54749750E+02</totfact>
</mgrwt>
</event>
<event>
 4    1  0.1025337E-004  0.7343411E+03  0.7818608E-02  0.9660242E-01
         -2   -1    0    0    0  501 -0.00000000000E+00  0.00000000000E+00  0.17791319961E+03  0.17791319963E+03  0.25500000000E-02 0. -1.
          2   -1    0    0  501    0  0.00000000000E+00 -0.00000000000E+00 -0.75775263384E+03  0.75775263385E+03  0.25500000000E-02 0.  1.
    5000001    1    1    2    0    0  0.26030236449E+03 -0.48419132810E+02 -0.43221515400E+02  0.31495211187E+03  0.16500000000E+03 0.  0.
   -5000001    1    1    2    0    0 -0.26030236449E+03  0.48419132810E+02 -0.53661791883E+03  0.62071372160E+03  0.16500000000E+03 0.  0.
<mgrwt>
<rscale>  0 0.73434105E+03</rscale>
<asrwt>0</asrwt>
<pdfrwt beam="1">  1        2 0.10825037E+00 0.73434105E+03</pdfrwt>
<pdfrwt beam="2">  1       -2 0.25416172E-01 0.73434105E+03</pdfrwt>
<totfact> 0.56876417E+02</totfact>
</mgrwt>
</event>
<event>
 4    1  0.1025337E-004  0.6151174E+03  0.7818608E-02  0.9874529E-01
          2   -1    0    0  501    0  0.00000000000E+00  0.00000000000E+00  0.11658819986E+04  0.11658819986E+04  0.25500000000E-02 0.  1.
         -2   -1    0    0    0  501 -0.00000000000E+00 -0.00000000000E+00 -0.81133740657E+02  0.81133740697E+02  0.25500000000E-02 0. -1.
    5000001    1    1    2    0    0  0.14712171293E+03 -0.13593685065E+03  0.20775769221E+03  0.33243327819E+03  0.16500000000E+03 0.  0.
   -5000001    1    1    2    0    0 -0.14712171293E+03  0.13593685065E+03  0.87699056571E+03  0.91458246108E+03  0.16500000000E+03 0.  0.
<mgrwt>
<rscale>  0 0.61511744E+03</rscale>
<asrwt>0</asrwt>
<pdfrwt beam="1">  1        2 0.16655455E+00 0.61511744E+03</pdfrwt>
<pdfrwt beam="2">  1       -2 0.11590536E-01 0.61511744E+03</pdfrwt>
<totfact> 0.12138472E+03</totfact>
</mgrwt>
</event>
<event>
 4    1  0.1025337E-004  0.4419234E+03  0.7818608E-02  0.1030158E+00
          2   -1    0    0  501    0  0.00000000000E+00  0.00000000000E+00  0.23128071691E+03  0.23128071693E+03  0.25500000000E-02 0.  1.
         -2   -1    0    0    0  501 -0.00000000000E+00 -0.00000000000E+00 -0.21110311667E+03  0.21110311669E+03  0.25500000000E-02 0. -1.
    5000001    1    1    2    0    0 -0.73645221696E+02 -0.10338805362E+03 -0.64058413846E+02  0.21780998300E+03  0.16500000000E+03 0.  0.
   -5000001    1    1    2    0    0  0.73645221696E+02  0.10338805362E+03  0.84236014090E+02  0.22457385061E+03  0.16500000000E+03 0.  0.
<mgrwt>
<rscale>  0 0.44192343E+03</rscale>
<asrwt>0</asrwt>
<pdfrwt beam="1">  1        2 0.33040103E-01 0.44192343E+03</pdfrwt>
<pdfrwt beam="2">  1       -2 0.30157588E-01 0.44192343E+03</pdfrwt>
<totfact> 0.16097436E+03</totfact>
</mgrwt>
</event>
<event>
 4    1  0.1025337E-004  0.4019911E+03  0.7818608E-02  0.1043092E+00
          2   -1    0    0  501    0  0.00000000000E+00  0.00000000000E+00  0.22281649788E+04  0.22281649788E+04  0.25500000000E-02 0.  1.
         -2   -1    0    0    0  501 -0.00000000000E+00 -0.00000000000E+00 -0.18131161007E+02  0.18131161186E+02  0.25500000000E-02 0. -1.
    5000001    1    1    2    0    0  0.54868955003E+02  0.10002028784E+03  0.10344323340E+04  0.10537029533E+04  0.16500000000E+03 0.  0.
   -5000001    1    1    2    0    0 -0.54868955003E+02 -0.10002028784E+03  0.11756014838E+04  0.11925931867E+04  0.16500000000E+03 0.  0.
<mgrwt>
<rscale>  0 0.40199114E+03</rscale>
<asrwt>0</asrwt>
<pdfrwt beam="1">  1        2 0.31830924E+00 0.40199114E+03</pdfrwt>
<pdfrwt beam="2">  1       -2 0.25901662E-02 0.40199114E+03</pdfrwt>
<totfact> 0.35877340E+03</totfact>
</mgrwt>
</event>
<event>
 4    1  0.1025337E-004  0.1036474E+04  0.7818608E-02  0.9269421E-01
          2   -1    0    0  501    0  0.00000000000E+00  0.00000000000E+00  0.69754736179E+03  0.69754736179E+03  0.25500000000E-02 0.  1.
         -2   -1    0    0    0  501 -0.00000000000E+00 -0.00000000000E+00 -0.38501979731E+03  0.38501979732E+03  0.25500000000E-02 0. -1.
    5000001    1    1    2    0    0  0.14700275622E+03  0.39335329932E+03  0.42256894849E+03  0.61816352582E+03  0.16500000000E+03 0.  0.
   -5000001    1    1    2    0    0 -0.14700275622E+03 -0.39335329932E+03 -0.11004138401E+03  0.46440363330E+03  0.16500000000E+03 0.  0.
<mgrwt>
<rscale>  0 0.10364739E+04</rscale>
<asrwt>0</asrwt>
<pdfrwt beam="1">  1        2 0.99649622E-01 0.10364739E+04</pdfrwt>
<pdfrwt beam="2">  1       -2 0.55002829E-01 0.10364739E+04</pdfrwt>
<totfact> 0.14005948E+02</totfact>
</mgrwt>
</event>
<event>
 4    1  0.1025337E-004  0.5721278E+03  0.7818608E-02  0.9964981E-01
         -2   -1    0    0    0  501 -0.00000000000E+00  0.00000000000E+00  0.82988927440E+02  0.82988927480E+02  0.25500000000E-02 0. -1.
          2   -1    0    0  501    0  0.00000000000E+00 -0.00000000000E+00 -0.98606603745E+03  0.98606603745E+03  0.25500000000E-02 0.  1.
    5000001    1    1    2    0    0  0.18504496825E+03  0.99624038511E+01 -0.18552841370E+03  0.30981717521E+03  0.16500000000E+03 0.  0.
   -5000001    1    1    2    0    0 -0.18504496825E+03 -0.99624038511E+01 -0.71754869631E+03  0.75923778972E+03  0.16500000000E+03 0.  0.
<mgrwt>
<rscale>  0 0.57212783E+03</rscale>
<asrwt>0</asrwt>
<pdfrwt beam="1">  1        2 0.14086657E+00 0.57212783E+03</pdfrwt>
<pdfrwt beam="2">  1       -2 0.11855562E-01 0.57212783E+03</pdfrwt>
<totfact> 0.14936762E+03</totfact>
</mgrwt>
</event>
<event>
 4    1  0.1025337E-004  0.6298443E+03  0.7818608E-02  0.9845353E-01
          2   -1    0    0  501    0  0.00000000000E+00  0.00000000000E+00  0.93118091557E+03  0.93118091557E+03  0.25500000000E-02 0.  1.
         -2   -1    0    0    0  501 -0.00000000000E+00 -0.00000000000E+00 -0.10650556020E+03  0.10650556023E+03  0.25500000000E-02 0. -1.
    5000001    1    1    2    0    0  0.18176430909E+03 -0.19726047098E+03  0.41397496622E+03  0.52014443199E+03  0.16500000000E+03 0.  0.
   -5000001    1    1    2    0    0 -0.18176430909E+03  0.19726047098E+03  0.41070038915E+03  0.51754204382E+03  0.16500000000E+03 0.  0.
<mgrwt>
<rscale>  0 0.62984425E+03</rscale>
<asrwt>0</asrwt>
<pdfrwt beam="1">  1        2 0.13302584E+00 0.62984425E+03</pdfrwt>
<pdfrwt beam="2">  1       -2 0.15215080E-01 0.62984425E+03</pdfrwt>
<totfact> 0.10656234E+03</totfact>
</mgrwt>
</event>
<event>
 4    1  0.1025337E-004  0.9591605E+03  0.7818608E-02  0.9354507E-01
         -2   -1    0    0    0  501 -0.00000000000E+00  0.00000000000E+00  0.51976686026E+02  0.51976686089E+02  0.25500000000E-02 0. -1.
          2   -1    0    0  501    0  0.00000000000E+00 -0.00000000000E+00 -0.44250068741E+04  0.44250068741E+04  0.25500000000E-02 0.  1.
    5000001    1    1    2    0    0  0.38037081888E+03  0.17439895189E+03 -0.29630123489E+04  0.29969591479E+04  0.16500000000E+03 0.  0.
   -5000001    1    1    2    0    0 -0.38037081888E+03 -0.17439895189E+03 -0.14100178392E+04  0.14800244124E+04  0.16500000000E+03 0.  0.
<mgrwt>
<rscale>  0 0.95916045E+03</rscale>
<asrwt>0</asrwt>
<pdfrwt beam="1">  1        2 0.63214360E+00 0.95916045E+03</pdfrwt>
<pdfrwt beam="2">  1       -2 0.74252437E-02 0.95916045E+03</pdfrwt>
<totfact> 0.33061792E+01</totfact>
</mgrwt>
</event>
<event>
 4    1  0.1025337E-004  0.3748464E+03  0.7818608E-02  0.1052855E+00
          2   -1    0    0  501    0  0.00000000000E+00  0.00000000000E+00  0.11122754437E+04  0.11122754437E+04  0.25500000000E-02 0.  1.
         -2   -1    0    0    0  501 -0.00000000000E+00 -0.00000000000E+00 -0.31581619151E+02  0.31581619254E+02  0.25500000000E-02 0. -1.
    5000001    1    1    2    0    0 -0.61332213767E+02  0.57723330407E+02  0.62713271417E+03  0.65392206302E+03  0.16500000000E+03 0.  0.
   -5000001    1    1    2    0    0  0.61332213767E+02 -0.57723330407E+02  0.45356111040E+03  0.48993499996E+03  0.16500000000E+03 0.  0.
<mgrwt>
<rscale>  0 0.37484642E+03</rscale>
<asrwt>0</asrwt>
<pdfrwt beam="1">  1        2 0.15889648E+00 0.37484642E+03</pdfrwt>
<pdfrwt beam="2">  1       -2 0.45116604E-02 0.37484642E+03</pdfrwt>
<totfact> 0.57731415E+03</totfact>
</mgrwt>
</event>
<event>
 4    1  0.1025337E-004  0.1003166E+04  0.7818608E-02  0.9305080E-01
          2   -1    0    0  501    0  0.00000000000E+00  0.00000000000E+00  0.70843574655E+03  0.70843574655E+03  0.25500000000E-02 0.  1.
         -2   -1    0    0    0  501 -0.00000000000E+00 -0.00000000000E+00 -0.35512792517E+03  0.35512792518E+03  0.25500000000E-02 0. -1.
    5000001    1    1    2    0    0 -0.34592298374E+02 -0.47127750394E+03  0.14211645932E+03  0.52030875530E+03  0.16500000000E+03 0.  0.
   -5000001    1    1    2    0    0  0.34592298374E+02  0.47127750394E+03  0.21119136205E+03  0.54325491644E+03  0.16500000000E+03 0.  0.
<mgrwt>
<rscale>  0 0.10031656E+04</rscale>
<asrwt>0</asrwt>
<pdfrwt beam="1">  1        2 0.10120511E+00 0.10031656E+04</pdfrwt>
<pdfrwt beam="2">  1       -2 0.50732561E-01 0.10031656E+04</pdfrwt>
<totfact> 0.16257169E+02</totfact>
</mgrwt>
</event>
<event>
 4    1  0.1025337E-004  0.3868791E+03  0.7818608E-02  0.1048420E+00
          2   -1    0    0  501    0  0.00000000000E+00  0.00000000000E+00  0.24079284722E+02  0.24079284857E+02  0.25500000000E-02 0.  1.
         -2   -1    0    0    0  501 -0.00000000000E+00 -0.00000000000E+00 -0.15539855211E+04  0.15539855211E+04  0.25500000000E-02 0. -1.
    5000001    1    1    2    0    0  0.73421687204E+02  0.46409030924E+02 -0.55500278074E+03  0.58548922188E+03  0.16500000000E+03 0.  0.
   -5000001    1    1    2    0    0 -0.73421687204E+02 -0.46409030924E+02 -0.97490345563E+03  0.99257558408E+03  0.16500000000E+03 0.  0.
<mgrwt>
<rscale>  0 0.38687910E+03</rscale>
<asrwt>0</asrwt>
<pdfrwt beam="1">  1        2 0.34398988E-02 0.38687910E+03</pdfrwt>
<pdfrwt beam="2">  1       -2 0.22199787E+00 0.38687910E+03</pdfrwt>
<totfact> 0.27386057E+02</totfact>
</mgrwt>
</event>
<event>
 4    1  0.1025337E-004  0.4339338E+03  0.7818608E-02  0.1032624E+00
         -2   -1    0    0    0  501 -0.00000000000E+00  0.00000000000E+00  0.37071083349E+02  0.37071083437E+02  0.25500000000E-02 0. -1.
          2   -1    0    0  501    0  0.00000000000E+00 -0.00000000000E+00 -0.12698479558E+04  0.12698479559E+04  0.25500000000E-02 0.  1.
    5000001    1    1    2    0    0  0.11423464893E+03  0.70172270681E+02 -0.48594137519E+03  0.53041278520E+03  0.16500000000E+03 0.  0.
   -5000001    1    1    2    0    0 -0.11423464893E+03 -0.70172270681E+02 -0.74683549732E+03  0.77650625409E+03  0.16500000000E+03 0.  0.
<mgrwt>
<rscale>  0 0.43393382E+03</rscale>
<asrwt>0</asrwt>
<pdfrwt beam="1">  1        2 0.18140682E+00 0.43393382E+03</pdfrwt>
<pdfrwt beam="2">  1       -2 0.52958698E-02 0.43393382E+03</pdfrwt>
<totfact> 0.36975472E+03</totfact>
</mgrwt>
</event>
<event>
 4    1  0.1025337E-004  0.5117149E+03  0.7818608E-02  0.1010766E+00
          2   -1    0    0  501    0  0.00000000000E+00  0.00000000000E+00  0.17326614181E+04  0.17326614181E+04  0.25500000000E-02 0.  1.
         -2   -1    0    0    0  501 -0.00000000000E+00 -0.00000000000E+00 -0.37781776706E+02  0.37781776792E+02  0.25500000000E-02 0. -1.
    5000001    1    1    2    0    0  0.13669775704E+03  0.12354395923E+03  0.10740157491E+04  0.11021271324E+04  0.16500000000E+03 0.  0.
   -5000001    1    1    2    0    0 -0.13669775704E+03 -0.12354395923E+03  0.62086389228E+03  0.66831606249E+03  0.16500000000E+03 0.  0.
<mgrwt>
<rscale>  0 0.51171487E+03</rscale>
<asrwt>0</asrwt>
<pdfrwt beam="1">  1        2 0.24752304E+00 0.51171487E+03</pdfrwt>
<pdfrwt beam="2">  1       -2 0.53973972E-02 0.51171487E+03</pdfrwt>
<totfact> 0.20637681E+03</totfact>
</mgrwt>
</event>
<event>
 4    1  0.1025337E-004  0.4041558E+03  0.7818608E-02  0.1042350E+00
         -2   -1    0    0    0  501 -0.00000000000E+00  0.00000000000E+00  0.21570250460E+03  0.21570250461E+03  0.25500000000E-02 0. -1.
          2   -1    0    0  501    0  0.00000000000E+00 -0.00000000000E+00 -0.18931386399E+03  0.18931386401E+03  0.25500000000E-02 0.  1.
    5000001    1    1    2    0    0 -0.51219141743E+02 -0.10443698255E+03  0.42315173477E+01  0.20192421733E+03  0.16500000000E+03 0.  0.
   -5000001    1    1    2    0    0  0.51219141743E+02  0.10443698255E+03  0.22157123260E+02  0.20309215129E+03  0.16500000000E+03 0.  0.
<mgrwt>
<rscale>  0 0.40415578E+03</rscale>
<asrwt>0</asrwt>
<pdfrwt beam="1">  1        2 0.27044838E-01 0.40415578E+03</pdfrwt>
<pdfrwt beam="2">  1       -2 0.30814644E-01 0.40415578E+03</pdfrwt>
<totfact> 0.19317360E+03</totfact>
</mgrwt>
</event>
<event>
 4    1  0.1025337E-004  0.5123681E+03  0.7818608E-02  0.1010600E+00
         -2   -1    0    0    0  501 -0.00000000000E+00  0.00000000000E+00  0.17403373523E+03  0.17403373525E+03  0.25500000000E-02 0. -1.
          2   -1    0    0  501    0  0.00000000000E+00 -0.00000000000E+00 -0.37711226775E+03  0.37711226776E+03  0.25500000000E-02 0.  1.
    5000001    1    1    2    0    0  0.18360330711E+03  0.28144413595E+02 -0.16874130580E+03  0.30033466447E+03  0.16500000000E+03 0.  0.
   -5000001    1    1    2    0    0 -0.18360330711E+03 -0.28144413595E+02 -0.34337226721E+02  0.25081133853E+03  0.16500000000E+03 0.  0.
<mgrwt>
<rscale>  0 0.51236806E+03</rscale>
<asrwt>0</asrwt>
<pdfrwt beam="1">  1        2 0.53873181E-01 0.51236806E+03</pdfrwt>
<pdfrwt beam="2">  1       -2 0.24861962E-01 0.51236806E+03</pdfrwt>
<totfact> 0.13353896E+03</totfact>
</mgrwt>
</event>
<event>
 4    1  0.1025337E-004  0.7084604E+03  0.7818608E-02  0.9702872E-01
          2   -1    0    0  501    0  0.00000000000E+00  0.00000000000E+00  0.12146469421E+04  0.12146469421E+04  0.25500000000E-02 0.  1.
         -2   -1    0    0    0  501 -0.00000000000E+00 -0.00000000000E+00 -0.10330493463E+03  0.10330493466E+03  0.25500000000E-02 0. -1.
    5000001    1    1    2    0    0 -0.20390182649E+03 -0.20240350385E+03  0.32249471613E+03  0.46235373379E+03  0.16500000000E+03 0.  0.
   -5000001    1    1    2    0    0  0.20390182649E+03  0.20240350385E+03  0.78884729134E+03  0.85559814298E+03  0.16500000000E+03 0.  0.
<mgrwt>
<rscale>  0 0.70846037E+03</rscale>
<asrwt>0</asrwt>
<pdfrwt beam="1">  1        2 0.17352098E+00 0.70846037E+03</pdfrwt>
<pdfrwt beam="2">  1       -2 0.14757849E-01 0.70846037E+03</pdfrwt>
<totfact> 0.75994150E+02</totfact>
</mgrwt>
</event>
<event>
 4    1  0.1025337E-004  0.5113577E+03  0.7818608E-02  0.1010856E+00
         -2   -1    0    0    0  501 -0.00000000000E+00  0.00000000000E+00  0.28021992173E+02  0.28021992289E+02  0.25500000000E-02 0. -1.
          2   -1    0    0  501    0  0.00000000000E+00 -0.00000000000E+00 -0.23328702736E+04  0.23328702736E+04  0.25500000000E-02 0.  1.
    5000001    1    1    2    0    0 -0.10925678348E+03 -0.11506311458E+03 -0.62662101348E+03  0.66712477064E+03  0.16500000000E+03 0.  0.
   -5000001    1    1    2    0    0  0.10925678348E+03  0.11506311458E+03 -0.16782272680E+04  0.16937674953E+04  0.16500000000E+03 0.  0.
<mgrwt>
<rscale>  0 0.51135769E+03</rscale>
<asrwt>0</asrwt>
<pdfrwt beam="1">  1        2 0.33326706E+00 0.51135769E+03</pdfrwt>
<pdfrwt beam="2">  1       -2 0.40031432E-02 0.51135769E+03</pdfrwt>
<totfact> 0.16365990E+03</totfact>
</mgrwt>
</event>
<event>
 4    1  0.1025337E-004  0.3678303E+03  0.7818608E-02  0.1055526E+00
         -2   -1    0    0    0  501 -0.00000000000E+00  0.00000000000E+00  0.25907221393E+03  0.25907221395E+03  0.25500000000E-02 0. -1.
          2   -1    0    0  501    0  0.00000000000E+00 -0.00000000000E+00 -0.13056118239E+03  0.13056118241E+03  0.25500000000E-02 0.  1.
    5000001    1    1    2    0    0 -0.51901868416E+02 -0.62466688494E+02  0.62168054292E+02  0.19412820014E+03  0.16500000000E+03 0.  0.
   -5000001    1    1    2    0    0  0.51901868416E+02  0.62466688494E+02  0.66342977252E+02  0.19550519622E+03  0.16500000000E+03 0.  0.
<mgrwt>
<rscale>  0 0.36783026E+03</rscale>
<asrwt>0</asrwt>
<pdfrwt beam="1">  1        2 0.18651598E-01 0.36783026E+03</pdfrwt>
<pdfrwt beam="2">  1       -2 0.37010315E-01 0.36783026E+03</pdfrwt>
<totfact> 0.20947525E+03</totfact>
</mgrwt>
</event>
<event>
 4    1  0.1025337E-004  0.4916341E+03  0.7818608E-02  0.1015986E+00
         -2   -1    0    0    0  501 -0.00000000000E+00  0.00000000000E+00  0.64185553204E+02  0.64185553255E+02  0.25500000000E-02 0. -1.
          2   -1    0    0  501    0  0.00000000000E+00 -0.00000000000E+00 -0.94142713320E+03  0.94142713320E+03  0.25500000000E-02 0.  1.
    5000001    1    1    2    0    0 -0.13510467742E+03 -0.11641596339E+03 -0.51501965390E+03  0.56945253911E+03  0.16500000000E+03 0.  0.
   -5000001    1    1    2    0    0  0.13510467742E+03  0.11641596339E+03 -0.36222192609E+03  0.43616014735E+03  0.16500000000E+03 0.  0.
<mgrwt>
<rscale>  0 0.49163410E+03</rscale>
<asrwt>0</asrwt>
<pdfrwt beam="1">  1        2 0.13448958E+00 0.49163410E+03</pdfrwt>
<pdfrwt beam="2">  1       -2 0.91693653E-02 0.49163410E+03</pdfrwt>
<totfact> 0.24163067E+03</totfact>
</mgrwt>
</event>
<event>
 4    1  0.1025337E-004  0.6785851E+03  0.7818608E-02  0.9754572E-01
          2   -1    0    0  501    0  0.00000000000E+00  0.00000000000E+00  0.49679890614E+03  0.49679890615E+03  0.25500000000E-02 0.  1.
         -2   -1    0    0    0  501 -0.00000000000E+00 -0.00000000000E+00 -0.23172236909E+03  0.23172236910E+03  0.25500000000E-02 0. -1.
    5000001    1    1    2    0    0 -0.23526246621E+03  0.14266005482E+03  0.25109134503E+03  0.40739683700E+03  0.16500000000E+03 0.  0.
   -5000001    1    1    2    0    0  0.23526246621E+03 -0.14266005482E+03  0.13985192024E+02  0.32112443825E+03  0.16500000000E+03 0.  0.
<mgrwt>
<rscale>  0 0.67858506E+03</rscale>
<asrwt>0</asrwt>
<pdfrwt beam="1">  1        2 0.70971272E-01 0.67858506E+03</pdfrwt>
<pdfrwt beam="2">  1       -2 0.33103196E-01 0.67858506E+03</pdfrwt>
<totfact> 0.57916464E+02</totfact>
</mgrwt>
</event>
<event>
 4    1  0.1025337E-004  0.5507521E+03  0.7818608E-02  0.1001320E+00
         -2   -1    0    0    0  501 -0.00000000000E+00  0.00000000000E+00  0.47321449646E+02  0.47321449715E+02  0.25500000000E-02 0. -1.
          2   -1    0    0  501    0  0.00000000000E+00 -0.00000000000E+00 -0.16024863898E+04  0.16024863898E+04  0.25500000000E-02 0.  1.
    5000001    1    1    2    0    0 -0.23238584357E+01 -0.18520227322E+03 -0.41934504513E+03  0.48721714789E+03  0.16500000000E+03 0.  0.
   -5000001    1    1    2    0    0  0.23238584357E+01  0.18520227322E+03 -0.11358198951E+04  0.11625906917E+04  0.16500000000E+03 0.  0.
<mgrwt>
<rscale>  0 0.55075214E+03</rscale>
<asrwt>0</asrwt>
<pdfrwt beam="1">  1        2 0.22892659E+00 0.55075214E+03</pdfrwt>
<pdfrwt beam="2">  1       -2 0.67602081E-02 0.55075214E+03</pdfrwt>
<totfact> 0.16883871E+03</totfact>
</mgrwt>
</event>
<event>
 4    1  0.1025337E-004  0.4972216E+03  0.7818608E-02  0.1014507E+00
          2   -1    0    0  501    0  0.00000000000E+00  0.00000000000E+00  0.19860049029E+03  0.19860049030E+03  0.25500000000E-02 0.  1.
         -2   -1    0    0    0  501 -0.00000000000E+00 -0.00000000000E+00 -0.31121444829E+03  0.31121444830E+03  0.25500000000E-02 0. -1.
    5000001    1    1    2    0    0  0.17509147737E+02  0.17055176472E+03 -0.13015807720E+03  0.27122057400E+03  0.16500000000E+03 0.  0.
   -5000001    1    1    2    0    0 -0.17509147737E+02 -0.17055176472E+03  0.17544119198E+02  0.23859436460E+03  0.16500000000E+03 0.  0.
<mgrwt>
<rscale>  0 0.49722165E+03</rscale>
<asrwt>0</asrwt>
<pdfrwt beam="1">  1        2 0.28371499E-01 0.49722165E+03</pdfrwt>
<pdfrwt beam="2">  1       -2 0.44459207E-01 0.49722165E+03</pdfrwt>
<totfact> 0.91217675E+02</totfact>
</mgrwt>
</event>
<event>
 4    1  0.1025337E-004  0.4233127E+03  0.7818608E-02  0.1035994E+00
         -2   -1    0    0    0  501 -0.00000000000E+00  0.00000000000E+00  0.29129536174E+02  0.29129536286E+02  0.25500000000E-02 0. -1.
          2   -1    0    0  501    0  0.00000000000E+00 -0.00000000000E+00 -0.15379034204E+04  0.15379034204E+04  0.25500000000E-02 0.  1.
    5000001    1    1    2    0    0  0.44552549983E+02 -0.11867240081E+03 -0.89801352814E+03  0.92180332237E+03  0.16500000000E+03 0.  0.
   -5000001    1    1    2    0    0 -0.44552549983E+02  0.11867240081E+03 -0.61076035606E+03  0.64522963429E+03  0.16500000000E+03 0.  0.
<mgrwt>
<rscale>  0 0.42331271E+03</rscale>
<asrwt>0</asrwt>
<pdfrwt beam="1">  1        2 0.21970044E+00 0.42331271E+03</pdfrwt>
<pdfrwt beam="2">  1       -2 0.41613633E-02 0.42331271E+03</pdfrwt>
<totfact> 0.38717285E+03</totfact>
</mgrwt>
</event>
<event>
 4    1  0.1025337E-004  0.6349850E+03  0.7818608E-02  0.9835369E-01
          2   -1    0    0  501    0  0.00000000000E+00  0.00000000000E+00  0.56121576958E+03  0.56121576959E+03  0.25500000000E-02 0.  1.
         -2   -1    0    0    0  501 -0.00000000000E+00 -0.00000000000E+00 -0.17961269215E+03  0.17961269217E+03  0.25500000000E-02 0. -1.
    5000001    1    1    2    0    0  0.72543058471E+02  0.22935911860E+03  0.44577139865E+02  0.29509358180E+03  0.16500000000E+03 0.  0.
   -5000001    1    1    2    0    0 -0.72543058471E+02 -0.22935911860E+03  0.33702593757E+03  0.44573487996E+03  0.16500000000E+03 0.  0.
<mgrwt>
<rscale>  0 0.63498496E+03</rscale>
<asrwt>0</asrwt>
<pdfrwt beam="1">  1        2 0.80173681E-01 0.63498496E+03</pdfrwt>
<pdfrwt beam="2">  1       -2 0.25658956E-01 0.63498496E+03</pdfrwt>
<totfact> 0.80540430E+02</totfact>
</mgrwt>
</event>
<event>
 4    1  0.1025337E-004  0.3828689E+03  0.7818608E-02  0.1049878E+00
          2   -1    0    0  501    0  0.00000000000E+00  0.00000000000E+00  0.40803441481E+03  0.40803441482E+03  0.25500000000E-02 0.  1.
         -2   -1    0    0    0  501 -0.00000000000E+00 -0.00000000000E+00 -0.89813843612E+02  0.89813843649E+02  0.25500000000E-02 0. -1.
    5000001    1    1    2    0    0 -0.29714239390E+02  0.49695428870E+02  0.57806463919E+02  0.18417154760E+03  0.16500000000E+03 0.  0.
   -5000001    1    1    2    0    0  0.29714239390E+02 -0.49695428870E+02  0.26041410728E+03  0.31367671087E+03  0.16500000000E+03 0.  0.
<mgrwt>
<rscale>  0 0.38286885E+03</rscale>
<asrwt>0</asrwt>
<pdfrwt beam="1">  1        2 0.58290630E-01 0.38286885E+03</pdfrwt>
<pdfrwt beam="2">  1       -2 0.12830549E-01 0.38286885E+03</pdfrwt>
<totfact> 0.37783340E+03</totfact>
</mgrwt>
</event>
<event>
 4    1  0.1025337E-004  0.7414149E+03  0.7818608E-02  0.9648916E-01
         -2   -1    0    0    0  501 -0.00000000000E+00  0.00000000000E+00  0.10576864249E+03  0.10576864252E+03  0.25500000000E-02 0.  1.
          2   -1    0    0  501    0  0.00000000000E+00 -0.00000000000E+00 -0.12992887746E+04  0.12992887746E+04  0.25500000000E-02 0. -1.
    5000001    1    1    2    0    0  0.15364942538E+03 -0.28119866279E+03 -0.43244060077E+03  0.56294822770E+03  0.16500000000E+03 0.  0.
   -5000001    1    1    2    0    0 -0.15364942538E+03  0.28119866279E+03 -0.76107953130E+03  0.84210918937E+03  0.16500000000E+03 0.  0.
<mgrwt>
<rscale>  0 0.74141489E+03</rscale>
<asrwt>0</asrwt>
<pdfrwt beam="1">  1        2 0.18561267E+00 0.74141489E+03</pdfrwt>
<pdfrwt beam="2">  1       -2 0.15109807E-01 0.74141489E+03</pdfrwt>
<totfact> 0.65463741E+02</totfact>
</mgrwt>
</event>
<event>
 4    1  0.1025337E-004  0.3792598E+03  0.7818608E-02  0.1051208E+00
          2   -1    0    0  501    0  0.00000000000E+00  0.00000000000E+00  0.46439885353E+03  0.46439885354E+03  0.25500000000E-02 0.  1.
         -2   -1    0    0    0  501 -0.00000000000E+00 -0.00000000000E+00 -0.77432343464E+02  0.77432343506E+02  0.25500000000E-02 0. -1.
    5000001    1    1    2    0    0 -0.68473016268E+02 -0.42966039987E+02  0.26049091702E+03  0.31877131677E+03  0.16500000000E+03 0.  0.
   -5000001    1    1    2    0    0  0.68473016268E+02  0.42966039987E+02  0.12647559305E+03  0.22305988027E+03  0.16500000000E+03 0.  0.
<mgrwt>
<rscale>  0 0.37925976E+03</rscale>
<asrwt>0</asrwt>
<pdfrwt beam="1">  1        2 0.66342690E-01 0.37925976E+03</pdfrwt>
<pdfrwt beam="2">  1       -2 0.11061764E-01 0.37925976E+03</pdfrwt>
<totfact> 0.41699590E+03</totfact>
</mgrwt>
</event>
<event>
 4    1  0.1025337E-004  0.5191958E+03  0.7818608E-02  0.1008887E+00
          2   -1    0    0  501    0  0.00000000000E+00  0.00000000000E+00  0.15188860835E+04  0.15188860835E+04  0.25500000000E-02 0.  1.
         -2   -1    0    0    0  501 -0.00000000000E+00 -0.00000000000E+00 -0.44368742763E+02  0.44368742836E+02  0.25500000000E-02 0. -1.
    5000001    1    1    2    0    0  0.10268995294E+03  0.12547256451E+03  0.38256466551E+03  0.44706746043E+03  0.16500000000E+03 0.  0.
   -5000001    1    1    2    0    0 -0.10268995294E+03 -0.12547256451E+03  0.10919526752E+04  0.11161873659E+04  0.16500000000E+03 0.  0.
<mgrwt>
<rscale>  0 0.51919579E+03</rscale>
<asrwt>0</asrwt>
<pdfrwt beam="1">  1        2 0.21698367E+00 0.51919579E+03</pdfrwt>
<pdfrwt beam="2">  1       -2 0.63383935E-02 0.51919579E+03</pdfrwt>
<totfact> 0.20644503E+03</totfact>
</mgrwt>
</event>
<event>
 4    1  0.1025337E-004  0.9281541E+03  0.7818608E-02  0.9391056E-01
          2   -1    0    0  501    0  0.00000000000E+00  0.00000000000E+00  0.14047994441E+04  0.14047994441E+04  0.25500000000E-02 0.  1.
         -2   -1    0    0    0  501 -0.00000000000E+00 -0.00000000000E+00 -0.15330838182E+03  0.15330838184E+03  0.25500000000E-02 0. -1.
    5000001    1    1    2    0    0  0.17177810430E+03 -0.24865444003E+03  0.11480551797E+04  0.11985793438E+04  0.16500000000E+03 0.  0.
   -5000001    1    1    2    0    0 -0.17177810430E+03  0.24865444003E+03  0.10343588253E+03  0.35952848213E+03  0.16500000000E+03 0.  0.
<mgrwt>
<rscale>  0 0.92815415E+03</rscale>
<asrwt>0</asrwt>
<pdfrwt beam="1">  1        2 0.20068564E+00 0.92815415E+03</pdfrwt>
<pdfrwt beam="2">  1       -2 0.21901197E-01 0.92815415E+03</pdfrwt>
<totfact> 0.29894638E+02</totfact>
</mgrwt>
</event>
<event>
 4    1  0.1025337E-004  0.3807253E+03  0.7818608E-02  0.1050666E+00
          2   -1    0    0  501    0  0.00000000000E+00  0.00000000000E+00  0.85860386392E+02  0.85860386430E+02  0.25500000000E-02 0.  1.
         -2   -1    0    0    0  501 -0.00000000000E+00 -0.00000000000E+00 -0.42205646535E+03  0.42205646535E+03  0.25500000000E-02 0. -1.
    5000001    1    1    2    0    0 -0.70272641235E+02 -0.52716563774E+01 -0.83230425967E+02  0.19778356422E+03  0.16500000000E+03 0.  0.
   -5000001    1    1    2    0    0  0.70272641235E+02  0.52716563774E+01 -0.25296565299E+03  0.31013328757E+03  0.16500000000E+03 0.  0.
<mgrwt>
<rscale>  0 0.38072526E+03</rscale>
<asrwt>0</asrwt>
<pdfrwt beam="1">  1        2 0.12265770E-01 0.38072526E+03</pdfrwt>
<pdfrwt beam="2">  1       -2 0.60293780E-01 0.38072526E+03</pdfrwt>
<totfact> 0.13115229E+03</totfact>
</mgrwt>
</event>
<event>
 4    1  0.1025337E-004  0.4920641E+03  0.7818608E-02  0.1015871E+00
         -2   -1    0    0    0  501 -0.00000000000E+00  0.00000000000E+00  0.62277151443E+02  0.62277151496E+02  0.25500000000E-02 0. -1.
          2   -1    0    0  501    0  0.00000000000E+00 -0.00000000000E+00 -0.97197387486E+03  0.97197387487E+03  0.25500000000E-02 0.  1.
    5000001    1    1    2    0    0 -0.11070303937E+03 -0.97155439344E+02 -0.22834966767E+03  0.31790393682E+03  0.16500000000E+03 0.  0.
   -5000001    1    1    2    0    0  0.11070303937E+03  0.97155439344E+02 -0.68134705575E+03  0.71634708954E+03  0.16500000000E+03 0.  0.
<mgrwt>
<rscale>  0 0.49206408E+03</rscale>
<asrwt>0</asrwt>
<pdfrwt beam="1">  1        2 0.13885340E+00 0.49206408E+03</pdfrwt>
<pdfrwt beam="2">  1       -2 0.88967365E-02 0.49206408E+03</pdfrwt>
<totfact> 0.24278473E+03</totfact>
</mgrwt>
</event>
<event>
 4    1  0.1025337E-004  0.5657883E+03  0.7818608E-02  0.9979042E-01
          2   -1    0    0  501    0  0.00000000000E+00  0.00000000000E+00  0.34651279717E+03  0.34651279718E+03  0.25500000000E-02 0.  1.
         -2   -1    0    0    0  501 -0.00000000000E+00 -0.00000000000E+00 -0.23095570918E+03  0.23095570919E+03  0.25500000000E-02 0. -1.
    5000001    1    1    2    0    0  0.92509196467E+02 -0.13905348290E+03 -0.10330963689E+03  0.25649893491E+03  0.16500000000E+03 0.  0.
   -5000001    1    1    2    0    0 -0.92509196467E+02  0.13905348290E+03  0.21886672488E+03  0.32096957145E+03  0.16500000000E+03 0.  0.
<mgrwt>
<rscale>  0 0.56578833E+03</rscale>
<asrwt>0</asrwt>
<pdfrwt beam="1">  1        2 0.49501828E-01 0.56578833E+03</pdfrwt>
<pdfrwt beam="2">  1       -2 0.32993673E-01 0.56578833E+03</pdfrwt>
<totfact> 0.87334650E+02</totfact>
</mgrwt>
</event>
<event>
 4    1  0.1025337E-004  0.4555833E+03  0.7818608E-02  0.1026070E+00
          2   -1    0    0  501    0  0.00000000000E+00  0.00000000000E+00  0.31218941260E+04  0.31218941260E+04  0.25500000000E-02 0.  1.
         -2   -1    0    0    0  501 -0.00000000000E+00 -0.00000000000E+00 -0.16621012165E+02  0.16621012361E+02  0.25500000000E-02 0. -1.
    5000001    1    1    2    0    0 -0.13070943128E+03 -0.46959741110E+02  0.20576464696E+04  0.20689185983E+04  0.16500000000E+03 0.  0.
   -5000001    1    1    2    0    0  0.13070943128E+03  0.46959741110E+02  0.10476266442E+04  0.10695965400E+04  0.16500000000E+03 0.  0.
<mgrwt>
<rscale>  0 0.45558332E+03</rscale>
<asrwt>0</asrwt>
<pdfrwt beam="1">  1        2 0.44598520E+00 0.45558332E+03</pdfrwt>
<pdfrwt beam="2">  1       -2 0.23744286E-02 0.45558332E+03</pdfrwt>
<totfact> 0.14012573E+03</totfact>
</mgrwt>
</event>
<event>
 4    1  0.1025337E-004  0.6316447E+03  0.7818608E-02  0.9841844E-01
          2   -1    0    0  501    0  0.00000000000E+00  0.00000000000E+00  0.66196898790E+03  0.66196898791E+03  0.25500000000E-02 0.  1.
         -2   -1    0    0    0  501 -0.00000000000E+00 -0.00000000000E+00 -0.15067739452E+03  0.15067739454E+03  0.25500000000E-02 0. -1.
    5000001    1    1    2    0    0  0.17441197936E+03  0.14645315560E+03  0.44052842027E+03  0.52264553418E+03  0.16500000000E+03 0.  0.
   -5000001    1    1    2    0    0 -0.17441197936E+03 -0.14645315560E+03  0.70763173116E+02  0.29000084827E+03  0.16500000000E+03 0.  0.
<mgrwt>
<rscale>  0 0.63164472E+03</rscale>
<asrwt>0</asrwt>
<pdfrwt beam="1">  1        2 0.94566999E-01 0.63164472E+03</pdfrwt>
<pdfrwt beam="2">  1       -2 0.21525342E-01 0.63164472E+03</pdfrwt>
<totfact> 0.90595432E+02</totfact>
</mgrwt>
</event>
<event>
 4    1  0.1025337E-004  0.8991418E+03  0.7818608E-02  0.9426655E-01
         -2   -1    0    0    0  501 -0.00000000000E+00  0.00000000000E+00  0.40175243961E+03  0.40175243962E+03  0.25500000000E-02 0. -1.
          2   -1    0    0  501    0  0.00000000000E+00 -0.00000000000E+00 -0.50308093302E+03  0.50308093303E+03  0.25500000000E-02 0.  1.
    5000001    1    1    2    0    0 -0.32763450379E+03 -0.15657453316E+03  0.15808323792E+03  0.42903993127E+03  0.16500000000E+03 0.  0.
   -5000001    1    1    2    0    0  0.32763450379E+03  0.15657453316E+03 -0.25941173133E+03  0.47579344138E+03  0.16500000000E+03 0.  0.
<mgrwt>
<rscale>  0 0.89914180E+03</rscale>
<asrwt>0</asrwt>
<pdfrwt beam="1">  1        2 0.71868704E-01 0.89914180E+03</pdfrwt>
<pdfrwt beam="2">  1       -2 0.57393206E-01 0.89914180E+03</pdfrwt>
<totfact> 0.19027145E+02</totfact>
</mgrwt>
</event>
<event>
 4    1  0.1025337E-004  0.5730904E+03  0.7818608E-02  0.9962863E-01
         -2   -1    0    0    0  501 -0.00000000000E+00  0.00000000000E+00  0.12541288003E+03  0.12541288005E+03  0.25500000000E-02 0. -1.
          2   -1    0    0  501    0  0.00000000000E+00 -0.00000000000E+00 -0.65470265086E+03  0.65470265087E+03  0.25500000000E-02 0.  1.
    5000001    1    1    2    0    0 -0.22496777044E+03  0.63289073493E+02 -0.24239613410E+03  0.37496251864E+03  0.16500000000E+03 0.  0.
   -5000001    1    1    2    0    0  0.22496777044E+03 -0.63289073493E+02 -0.28689363674E+03  0.40515301228E+03  0.16500000000E+03 0.  0.
<mgrwt>
<rscale>  0 0.57309038E+03</rscale>
<asrwt>0</asrwt>
<pdfrwt beam="1">  1        2 0.93528948E-01 0.57309038E+03</pdfrwt>
<pdfrwt beam="2">  1       -2 0.17916126E-01 0.57309038E+03</pdfrwt>
<totfact> 0.12639864E+03</totfact>
</mgrwt>
</event>
<event>
 4    1  0.1025337E-004  0.8857404E+03  0.7818608E-02  0.9443584E-01
         -2   -1    0    0    0  501 -0.00000000000E+00  0.00000000000E+00  0.67889270343E+02  0.67889270391E+02  0.25500000000E-02 0. -1.
          2   -1    0    0  501    0  0.00000000000E+00 -0.00000000000E+00 -0.28890281677E+04  0.28890281677E+04  0.25500000000E-02 0.  1.
    5000001    1    1    2    0    0  0.32538693281E+03  0.24128763382E+03 -0.11789770737E+04  0.12575008225E+04  0.16500000000E+03 0.  0.
   -5000001    1    1    2    0    0 -0.32538693281E+03 -0.24128763382E+03 -0.16421618236E+04  0.16994166156E+04  0.16500000000E+03 0.  0.
<mgrwt>
<rscale>  0 0.88574040E+03</rscale>
<asrwt>0</asrwt>
<pdfrwt beam="1">  1        2 0.41271823E+00 0.88574040E+03</pdfrwt>
<pdfrwt beam="2">  1       -2 0.96984690E-02 0.88574040E+03</pdfrwt>
<totfact> 0.20211897E+02</totfact>
</mgrwt>
</event>
<event>
 4    1  0.1025337E-004  0.5282545E+03  0.7818608E-02  0.1006656E+00
          2   -1    0    0  501    0  0.00000000000E+00  0.00000000000E+00  0.43341556569E+03  0.43341556570E+03  0.25500000000E-02 0.  1.
         -2   -1    0    0    0  501 -0.00000000000E+00 -0.00000000000E+00 -0.16096146228E+03  0.16096146230E+03  0.25500000000E-02 0. -1.
    5000001    1    1    2    0    0 -0.34278066080E+02 -0.19997129429E+03  0.94509135831E+02  0.27806560576E+03  0.16500000000E+03 0.  0.
   -5000001    1    1    2    0    0  0.34278066080E+02  0.19997129429E+03  0.17794496758E+03  0.31631142224E+03  0.16500000000E+03 0.  0.
<mgrwt>
<rscale>  0 0.52825450E+03</rscale>
<asrwt>0</asrwt>
<pdfrwt beam="1">  1        2 0.61916509E-01 0.52825450E+03</pdfrwt>
<pdfrwt beam="2">  1       -2 0.22994495E-01 0.52825450E+03</pdfrwt>
<totfact> 0.13151785E+03</totfact>
</mgrwt>
</event>
<event>
 4    1  0.1025337E-004  0.8243502E+03  0.7818608E-02  0.9525425E-01
         -2   -1    0    0    0  501 -0.00000000000E+00  0.00000000000E+00  0.16748004944E+03  0.16748004946E+03  0.25500000000E-02 0. -1.
          2   -1    0    0  501    0  0.00000000000E+00 -0.00000000000E+00 -0.10143794644E+04  0.10143794644E+04  0.25500000000E-02 0.  1.
    5000001    1    1    2    0    0 -0.85101886157E+02 -0.33902077313E+03 -0.62865175797E+03  0.73797388059E+03  0.16500000000E+03 0.  0.
   -5000001    1    1    2    0    0  0.85101886157E+02  0.33902077313E+03 -0.21824765700E+03  0.44388563327E+03  0.16500000000E+03 0.  0.
<mgrwt>
<rscale>  0 0.82435022E+03</rscale>
<asrwt>0</asrwt>
<pdfrwt beam="1">  1        2 0.14491135E+00 0.82435022E+03</pdfrwt>
<pdfrwt beam="2">  1       -2 0.23925722E-01 0.82435022E+03</pdfrwt>
<totfact> 0.42781478E+02</totfact>
</mgrwt>
</event>
<event>
 4    1  0.1025337E-004  0.6084712E+03  0.7818608E-02  0.9887985E-01
          2   -1    0    0  501    0  0.00000000000E+00  0.00000000000E+00  0.14805316448E+04  0.14805316448E+04  0.25500000000E-02 0.  1.
         -2   -1    0    0    0  501 -0.00000000000E+00 -0.00000000000E+00 -0.62517607507E+02  0.62517607559E+02  0.25500000000E-02 0. -1.
    5000001    1    1    2    0    0 -0.21193155775E+03  0.73762686906E+02  0.10193715984E+04  0.10567399750E+04  0.16500000000E+03 0.  0.
   -5000001    1    1    2    0    0  0.21193155775E+03 -0.73762686906E+02  0.39864243885E+03  0.48630927731E+03  0.16500000000E+03 0.  0.
<mgrwt>
<rscale>  0 0.60847119E+03</rscale>
<asrwt>0</asrwt>
<pdfrwt beam="1">  1        2 0.21150451E+00 0.60847119E+03</pdfrwt>
<pdfrwt beam="2">  1       -2 0.89310874E-02 0.60847119E+03</pdfrwt>
<totfact> 0.12514622E+03</totfact>
</mgrwt>
</event>
<event>
 4    1  0.1025337E-004  0.3607428E+03  0.7818608E-02  0.1058290E+00
         -2   -1    0    0    0  501 -0.00000000000E+00  0.00000000000E+00  0.25740883216E+02  0.25740883342E+02  0.25500000000E-02 0. -1.
          2   -1    0    0  501    0  0.00000000000E+00 -0.00000000000E+00 -0.12638974324E+04  0.12638974324E+04  0.25500000000E-02 0.  1.
    5000001    1    1    2    0    0 -0.22364250243E+02  0.68826979018E+02 -0.58884432738E+03  0.61579213589E+03  0.16500000000E+03 0.  0.
   -5000001    1    1    2    0    0  0.22364250243E+02 -0.68826979018E+02 -0.64931222185E+03  0.67384617990E+03  0.16500000000E+03 0.  0.
<mgrwt>
<rscale>  0 0.36074277E+03</rscale>
<asrwt>0</asrwt>
<pdfrwt beam="1">  1        2 0.18055674E+00 0.36074277E+03</pdfrwt>
<pdfrwt beam="2">  1       -2 0.36772698E-02 0.36074277E+03</pdfrwt>
<totfact> 0.64901368E+03</totfact>
</mgrwt>
</event>
<event>
 4    1  0.1025337E-004  0.4576008E+03  0.7818608E-02  0.1025479E+00
         -2   -1    0    0    0  501 -0.00000000000E+00  0.00000000000E+00  0.49767778353E+02  0.49767778419E+02  0.25500000000E-02 0. -1.
          2   -1    0    0  501    0  0.00000000000E+00 -0.00000000000E+00 -0.10518777227E+04  0.10518777227E+04  0.25500000000E-02 0.  1.
    5000001    1    1    2    0    0  0.13948388351E+03  0.52625069955E+02 -0.37142241217E+03  0.43290271426E+03  0.16500000000E+03 0.  0.
   -5000001    1    1    2    0    0 -0.13948388351E+03 -0.52625069955E+02 -0.63068753220E+03  0.66874278689E+03  0.16500000000E+03 0.  0.
<mgrwt>
<rscale>  0 0.45760078E+03</rscale>
<asrwt>0</asrwt>
<pdfrwt beam="1">  1        2 0.15026823E+00 0.45760078E+03</pdfrwt>
<pdfrwt beam="2">  1       -2 0.71096833E-02 0.45760078E+03</pdfrwt>
<totfact> 0.31008237E+03</totfact>
</mgrwt>
</event>
<event>
 4    1  0.1025337E-004  0.3977293E+03  0.7818608E-02  0.1044569E+00
          2   -1    0    0  501    0  0.00000000000E+00  0.00000000000E+00  0.61422193606E+03  0.61422193607E+03  0.25500000000E-02 0.  1.
         -2   -1    0    0    0  501 -0.00000000000E+00 -0.00000000000E+00 -0.64385778214E+02  0.64385778264E+02  0.25500000000E-02 0. -1.
    5000001    1    1    2    0    0  0.73357305768E+02 -0.60001315894E+02  0.17630143155E+03  0.25940055317E+03  0.16500000000E+03 0.  0.
   -5000001    1    1    2    0    0 -0.73357305768E+02  0.60001315894E+02  0.37353472629E+03  0.41920716116E+03  0.16500000000E+03 0.  0.
<mgrwt>
<rscale>  0 0.39772934E+03</rscale>
<asrwt>0</asrwt>
<pdfrwt beam="1">  1        2 0.87745991E-01 0.39772934E+03</pdfrwt>
<pdfrwt beam="2">  1       -2 0.91979683E-02 0.39772934E+03</pdfrwt>
<totfact> 0.40874583E+03</totfact>
</mgrwt>
</event>
<event>
 4    1  0.1025337E-004  0.4131154E+03  0.7818608E-02  0.1039331E+00
          2   -1    0    0  501    0  0.00000000000E+00  0.00000000000E+00  0.38931736398E+03  0.38931736399E+03  0.25500000000E-02 0.  1.
         -2   -1    0    0    0  501 -0.00000000000E+00 -0.00000000000E+00 -0.10959206273E+03  0.10959206276E+03  0.25500000000E-02 0. -1.
    5000001    1    1    2    0    0  0.26948532138E+02 -0.12063853390E+03  0.12452879733E+03  0.24085742797E+03  0.16500000000E+03 0.  0.
   -5000001    1    1    2    0    0 -0.26948532138E+02  0.12063853390E+03  0.15519650392E+03  0.25805199878E+03  0.16500000000E+03 0.  0.
<mgrwt>
<rscale>  0 0.41311545E+03</rscale>
<asrwt>0</asrwt>
<pdfrwt beam="1">  1        2 0.55616768E-01 0.41311545E+03</pdfrwt>
<pdfrwt beam="2">  1       -2 0.15656008E-01 0.41311545E+03</pdfrwt>
<totfact> 0.28641223E+03</totfact>
</mgrwt>
</event>
<event>
 4    1  0.1025337E-004  0.5738469E+03  0.7818608E-02  0.9961202E-01
          2   -1    0    0  501    0  0.00000000000E+00  0.00000000000E+00  0.11975858614E+04  0.11975858614E+04  0.25500000000E-02 0.  1.
         -2   -1    0    0    0  501 -0.00000000000E+00 -0.00000000000E+00 -0.68742514059E+02  0.68742514106E+02  0.25500000000E-02 0. -1.
    5000001    1    1    2    0    0  0.66363666122E+02  0.16827744604E+03  0.23430532345E+03  0.33888850618E+03  0.16500000000E+03 0.  0.
   -5000001    1    1    2    0    0 -0.66363666122E+02 -0.16827744604E+03  0.89453802388E+03  0.92743986931E+03  0.16500000000E+03 0.  0.
<mgrwt>
<rscale>  0 0.57384689E+03</rscale>
<asrwt>0</asrwt>
<pdfrwt beam="1">  1        2 0.17108370E+00 0.57384689E+03</pdfrwt>
<pdfrwt beam="2">  1       -2 0.98203590E-02 0.57384689E+03</pdfrwt>
<totfact> 0.15275773E+03</totfact>
</mgrwt>
</event>
<event>
 4    1  0.1025337E-004  0.4502655E+03  0.7818608E-02  0.1027643E+00
         -2   -1    0    0    0  501 -0.00000000000E+00  0.00000000000E+00  0.25201266117E+02  0.25201266246E+02  0.25500000000E-02 0. -1.
          2   -1    0    0  501    0  0.00000000000E+00 -0.00000000000E+00 -0.20111983105E+04  0.20111983105E+04  0.25500000000E-02 0.  1.
    5000001    1    1    2    0    0  0.10955768763E+03 -0.10580461609E+03 -0.10662378014E+04  0.10896263364E+04  0.16500000000E+03 0.  0.
   -5000001    1    1    2    0    0 -0.10955768763E+03  0.10580461609E+03 -0.91975924299E+03  0.94677324041E+03  0.16500000000E+03 0.  0.
<mgrwt>
<rscale>  0 0.45026545E+03</rscale>
<asrwt>0</asrwt>
<pdfrwt beam="1">  1        2 0.28731394E+00 0.45026545E+03</pdfrwt>
<pdfrwt beam="2">  1       -2 0.36001822E-02 0.45026545E+03</pdfrwt>
<totfact> 0.27939426E+03</totfact>
</mgrwt>
</event>
<event>
 4    1  0.1025337E-004  0.3648090E+03  0.7818608E-02  0.1056696E+00
         -2   -1    0    0    0  501 -0.00000000000E+00  0.00000000000E+00  0.33687045360E+02  0.33687045456E+02  0.25500000000E-02 0. -1.
          2   -1    0    0  501    0  0.00000000000E+00 -0.00000000000E+00 -0.98766188384E+03  0.98766188385E+03  0.25500000000E-02 0.  1.
    5000001    1    1    2    0    0 -0.15211243452E+02  0.66898269550E+02 -0.57945919520E+03  0.60638660878E+03  0.16500000000E+03 0.  0.
   -5000001    1    1    2    0    0  0.15211243452E+02 -0.66898269550E+02 -0.37451564328E+03  0.41496232053E+03  0.16500000000E+03 0.  0.
<mgrwt>
<rscale>  0 0.36480905E+03</rscale>
<asrwt>0</asrwt>
<pdfrwt beam="1">  1        2 0.14109454E+00 0.36480905E+03</pdfrwt>
<pdfrwt beam="2">  1       -2 0.48124357E-02 0.36480905E+03</pdfrwt>
<totfact> 0.61823609E+03</totfact>
</mgrwt>
</event>
<event>
 4    1  0.1025337E-004  0.5194237E+03  0.7818608E-02  0.1008830E+00
          2   -1    0    0  501    0  0.00000000000E+00  0.00000000000E+00  0.15536448122E+04  0.15536448122E+04  0.25500000000E-02 0.  1.
         -2   -1    0    0    0  501 -0.00000000000E+00 -0.00000000000E+00 -0.43414194600E+02  0.43414194675E+02  0.25500000000E-02 0. -1.
    5000001    1    1    2    0    0 -0.24623433849E+02  0.19076310841E+03  0.92981425526E+03  0.96373047389E+03  0.16500000000E+03 0.  0.
   -5000001    1    1    2    0    0  0.24623433849E+02 -0.19076310841E+03  0.58041636236E+03  0.63332853301E+03  0.16500000000E+03 0.  0.
<mgrwt>
<rscale>  0 0.51942367E+03</rscale>
<asrwt>0</asrwt>
<pdfrwt beam="1">  1        2 0.22194927E+00 0.51942367E+03</pdfrwt>
<pdfrwt beam="2">  1       -2 0.62020274E-02 0.51942367E+03</pdfrwt>
<totfact> 0.20495670E+03</totfact>
</mgrwt>
</event>
<event>
 4    1  0.1025337E-004  0.3458287E+03  0.7818608E-02  0.1064340E+00
         -2   -1    0    0    0  501 -0.00000000000E+00  0.00000000000E+00  0.10341957801E+03  0.10341957804E+03  0.25500000000E-02 0. -1.
          2   -1    0    0  501    0  0.00000000000E+00 -0.00000000000E+00 -0.28910752635E+03  0.28910752636E+03  0.25500000000E-02 0.  1.
    5000001    1    1    2    0    0  0.41846569770E+02  0.29829130301E+02 -0.99410116151E+02  0.19936971588E+03  0.16500000000E+03 0.  0.
   -5000001    1    1    2    0    0 -0.41846569770E+02 -0.29829130301E+02 -0.86277832188E+02  0.19315738853E+03  0.16500000000E+03 0.  0.
<mgrwt>
<rscale>  0 0.34582873E+03</rscale>
<asrwt>0</asrwt>
<pdfrwt beam="1">  1        2 0.41301075E-01 0.34582873E+03</pdfrwt>
<pdfrwt beam="2">  1       -2 0.14774225E-01 0.34582873E+03</pdfrwt>
<totfact> 0.43464961E+03</totfact>
</mgrwt>
</event>
<event>
 4    1  0.1025337E-004  0.5678195E+03  0.7818608E-02  0.9974515E-01
          2   -1    0    0  501    0  0.00000000000E+00  0.00000000000E+00  0.86203830036E+02  0.86203830073E+02  0.25500000000E-02 0.  1.
         -2   -1    0    0    0  501 -0.00000000000E+00 -0.00000000000E+00 -0.93504822513E+03  0.93504822513E+03  0.25500000000E-02 0. -1.
    5000001    1    1    2    0    0  0.60186220142E+02  0.22015640263E+03 -0.48898278885E+03  0.56428750695E+03  0.16500000000E+03 0.  0.
   -5000001    1    1    2    0    0 -0.60186220142E+02 -0.22015640263E+03 -0.35986160624E+03  0.45696454825E+03  0.16500000000E+03 0.  0.
<mgrwt>
<rscale>  0 0.56781947E+03</rscale>
<asrwt>0</asrwt>
<pdfrwt beam="1">  1        2 0.12314833E-01 0.56781947E+03</pdfrwt>
<pdfrwt beam="2">  1       -2 0.13357831E+00 0.56781947E+03</pdfrwt>
<totfact> 0.21027837E+02</totfact>
</mgrwt>
</event>
<event>
 4    1  0.1025337E-004  0.5351526E+03  0.7818608E-02  0.1004990E+00
         -2   -1    0    0    0  501 -0.00000000000E+00  0.00000000000E+00  0.14545845414E+03  0.14545845416E+03  0.25500000000E-02 0. -1.
          2   -1    0    0  501    0  0.00000000000E+00 -0.00000000000E+00 -0.49221671384E+03  0.49221671384E+03  0.25500000000E-02 0.  1.
    5000001    1    1    2    0    0  0.13204048584E+03 -0.16244947195E+03 -0.14549620773E+03  0.30367526620E+03  0.16500000000E+03 0.  0.
   -5000001    1    1    2    0    0 -0.13204048584E+03  0.16244947195E+03 -0.20126205197E+03  0.33399990180E+03  0.16500000000E+03 0.  0.
<mgrwt>
<rscale>  0 0.53515262E+03</rscale>
<asrwt>0</asrwt>
<pdfrwt beam="1">  1        2 0.70316673E-01 0.53515262E+03</pdfrwt>
<pdfrwt beam="2">  1       -2 0.20779779E-01 0.53515262E+03</pdfrwt>
<totfact> 0.13623958E+03</totfact>
</mgrwt>
</event>
<event>
 4    1  0.1025337E-004  0.4634028E+03  0.7818608E-02  0.1023799E+00
          2   -1    0    0  501    0  0.00000000000E+00  0.00000000000E+00  0.72034379817E+03  0.72034379817E+03  0.25500000000E-02 0.  1.
         -2   -1    0    0    0  501 -0.00000000000E+00 -0.00000000000E+00 -0.74527654149E+02  0.74527654192E+02  0.25500000000E-02 0. -1.
    5000001    1    1    2    0    0  0.93391970404E+02 -0.11443406296E+03  0.43979138371E+03  0.49240093023E+03  0.16500000000E+03 0.  0.
   -5000001    1    1    2    0    0 -0.93391970404E+02  0.11443406296E+03  0.20602476031E+03  0.30247052214E+03  0.16500000000E+03 0.  0.
<mgrwt>
<rscale>  0 0.46340278E+03</rscale>
<asrwt>0</asrwt>
<pdfrwt beam="1">  1        2 0.10290625E+00 0.46340278E+03</pdfrwt>
<pdfrwt beam="2">  1       -2 0.10646808E-01 0.46340278E+03</pdfrwt>
<totfact> 0.26771146E+03</totfact>
</mgrwt>
</event>
<event>
 4    1  0.1025337E-004  0.5456024E+03  0.7818608E-02  0.1002517E+00
          2   -1    0    0  501    0  0.00000000000E+00  0.00000000000E+00  0.11948215026E+04  0.11948215026E+04  0.25500000000E-02 0.  1.
         -2   -1    0    0    0  501 -0.00000000000E+00 -0.00000000000E+00 -0.62285866987E+02  0.62285867039E+02  0.25500000000E-02 0. -1.
    5000001    1    1    2    0    0 -0.20316313133E+03 -0.87409620674E+01  0.74240251773E+03  0.78723450171E+03  0.16500000000E+03 0.  0.
   -5000001    1    1    2    0    0  0.20316313133E+03  0.87409620674E+01  0.39013311789E+03  0.46987286794E+03  0.16500000000E+03 0.  0.
<mgrwt>
<rscale>  0 0.54560239E+03</rscale>
<asrwt>0</asrwt>
<pdfrwt beam="1">  1        2 0.17068879E+00 0.54560239E+03</pdfrwt>
<pdfrwt beam="2">  1       -2 0.88979810E-02 0.54560239E+03</pdfrwt>
<totfact> 0.17978751E+03</totfact>
</mgrwt>
</event>
<event>
 4    1  0.1025337E-004  0.4995052E+03  0.7818608E-02  0.1013908E+00
          2   -1    0    0  501    0  0.00000000000E+00  0.00000000000E+00  0.14541812677E+03  0.14541812679E+03  0.25500000000E-02 0.  1.
         -2   -1    0    0    0  501 -0.00000000000E+00 -0.00000000000E+00 -0.42894484680E+03  0.42894484681E+03  0.25500000000E-02 0. -1.
    5000001    1    1    2    0    0  0.13882452093E+02 -0.18434958132E+03 -0.10587976625E+03  0.26946802317E+03  0.16500000000E+03 0.  0.
   -5000001    1    1    2    0    0 -0.13882452093E+02  0.18434958132E+03 -0.17764695378E+03  0.30489495043E+03  0.16500000000E+03 0.  0.
<mgrwt>
<rscale>  0 0.49950518E+03</rscale>
<asrwt>0</asrwt>
<pdfrwt beam="1">  1        2 0.20774018E-01 0.49950518E+03</pdfrwt>
<pdfrwt beam="2">  1       -2 0.61277835E-01 0.49950518E+03</pdfrwt>
<totfact> 0.67714386E+02</totfact>
</mgrwt>
</event>
<event>
 4    1  0.1025337E-004  0.4175148E+03  0.7818608E-02  0.1037878E+00
         -2   -1    0    0    0  501 -0.00000000000E+00  0.00000000000E+00  0.28939312648E+02  0.28939312760E+02  0.25500000000E-02 0. -1.
          2   -1    0    0  501    0  0.00000000000E+00 -0.00000000000E+00 -0.15058978522E+04  0.15058978522E+04  0.25500000000E-02 0.  1.
    5000001    1    1    2    0    0  0.11896282130E+03  0.46930567175E+02 -0.73897055418E+03  0.76789134058E+03  0.16500000000E+03 0.  0.
   -5000001    1    1    2    0    0 -0.11896282130E+03 -0.46930567175E+02 -0.73798798535E+03  0.76694582436E+03  0.16500000000E+03 0.  0.
<mgrwt>
<rscale>  0 0.41751478E+03</rscale>
<asrwt>0</asrwt>
<pdfrwt beam="1">  1        2 0.21512821E+00 0.41751478E+03</pdfrwt>
<pdfrwt beam="2">  1       -2 0.41341885E-02 0.41751478E+03</pdfrwt>
<totfact> 0.40610879E+03</totfact>
</mgrwt>
</event>
<event>
 4    1  0.1025337E-004  0.4980994E+03  0.7818608E-02  0.1014276E+00
         -2   -1    0    0    0  501 -0.00000000000E+00  0.00000000000E+00  0.34275264480E+03  0.34275264481E+03  0.25500000000E-02 0. -1.
          2   -1    0    0  501    0  0.00000000000E+00 -0.00000000000E+00 -0.18096359146E+03  0.18096359147E+03  0.25500000000E-02 0.  1.
    5000001    1    1    2    0    0  0.41508202864E+02 -0.18098351153E+03  0.62004254630E+02  0.25602244031E+03  0.16500000000E+03 0.  0.
   -5000001    1    1    2    0    0 -0.41508202864E+02  0.18098351153E+03  0.99784798712E+02  0.26769379597E+03  0.16500000000E+03 0.  0.
<mgrwt>
<rscale>  0 0.49809939E+03</rscale>
<asrwt>0</asrwt>
<pdfrwt beam="1">  1        2 0.25851942E-01 0.49809939E+03</pdfrwt>
<pdfrwt beam="2">  1       -2 0.48964663E-01 0.49809939E+03</pdfrwt>
<totfact> 0.83592631E+02</totfact>
</mgrwt>
</event>
<event>
 4    1  0.1025337E-004  0.4642481E+03  0.7818608E-02  0.1023556E+00
         -2   -1    0    0    0  501 -0.00000000000E+00  0.00000000000E+00  0.59651084117E+02  0.59651084172E+02  0.25500000000E-02 0. -1.
          2   -1    0    0  501    0  0.00000000000E+00 -0.00000000000E+00 -0.90327915951E+03  0.90327915951E+03  0.25500000000E-02 0.  1.
    5000001    1    1    2    0    0 -0.33365650513E+02  0.15981183048E+03 -0.41793730180E+03  0.47806869385E+03  0.16500000000E+03 0.  0.
   -5000001    1    1    2    0    0  0.33365650513E+02 -0.15981183048E+03 -0.42569077359E+03  0.48486154984E+03  0.16500000000E+03 0.  0.
<mgrwt>
<rscale>  0 0.46424813E+03</rscale>
<asrwt>0</asrwt>
<pdfrwt beam="1">  1        2 0.12903987E+00 0.46424813E+03</pdfrwt>
<pdfrwt beam="2">  1       -2 0.85215840E-02 0.46424813E+03</pdfrwt>
<totfact> 0.28704920E+03</totfact>
</mgrwt>
</event>
<event>
 4    1  0.1025337E-004  0.3414121E+03  0.7818608E-02  0.1066196E+00
         -2   -1    0    0    0  501 -0.00000000000E+00  0.00000000000E+00  0.16020812779E+03  0.16020812781E+03  0.25500000000E-02 0. -1.
          2   -1    0    0  501    0  0.00000000000E+00 -0.00000000000E+00 -0.18189181425E+03  0.18189181427E+03  0.25500000000E-02 0.  1.
    5000001    1    1    2    0    0 -0.12762861247E+01 -0.40742175525E+02 -0.26811119989E+02  0.17206216879E+03  0.16500000000E+03 0.  0.
   -5000001    1    1    2    0    0  0.12762861247E+01  0.40742175525E+02  0.51274335303E+01  0.17003777330E+03  0.16500000000E+03 0.  0.
<mgrwt>
<rscale>  0 0.34141205E+03</rscale>
<asrwt>0</asrwt>
<pdfrwt beam="1">  1        2 0.25984545E-01 0.34141205E+03</pdfrwt>
<pdfrwt beam="2">  1       -2 0.22886875E-01 0.34141205E+03</pdfrwt>
<totfact> 0.34339293E+03</totfact>
</mgrwt>
</event>
<event>
 4    1  0.1025337E-004  0.5794479E+03  0.7818608E-02  0.9948987E-01
          2   -1    0    0  501    0  0.00000000000E+00  0.00000000000E+00  0.57490228491E+03  0.57490228492E+03  0.25500000000E-02 0.  1.
         -2   -1    0    0    0  501 -0.00000000000E+00 -0.00000000000E+00 -0.14600734104E+03  0.14600734106E+03  0.25500000000E-02 0. -1.
    5000001    1    1    2    0    0 -0.14340653293E+03 -0.15992233844E+03  0.34238372696E+03  0.43656867101E+03  0.16500000000E+03 0.  0.
   -5000001    1    1    2    0    0  0.14340653293E+03  0.15992233844E+03  0.86511216916E+02  0.28434095497E+03  0.16500000000E+03 0.  0.
<mgrwt>
<rscale>  0 0.57944785E+03</rscale>
<asrwt>0</asrwt>
<pdfrwt beam="1">  1        2 0.82128897E-01 0.57944785E+03</pdfrwt>
<pdfrwt beam="2">  1       -2 0.20858192E-01 0.57944785E+03</pdfrwt>
<totfact> 0.11323771E+03</totfact>
</mgrwt>
</event>
<event>
 4    1  0.1025337E-004  0.4274412E+03  0.7818608E-02  0.1034671E+00
         -2   -1    0    0    0  501 -0.00000000000E+00  0.00000000000E+00  0.31027032188E+02  0.31027032293E+02  0.25500000000E-02 0. -1.
          2   -1    0    0  501    0  0.00000000000E+00 -0.00000000000E+00 -0.14721515422E+04  0.14721515422E+04  0.25500000000E-02 0.  1.
    5000001    1    1    2    0    0 -0.12253490807E+03  0.12234599916E+02 -0.51894191837E+03  0.55829222077E+03  0.16500000000E+03 0.  0.
   -5000001    1    1    2    0    0  0.12253490807E+03 -0.12234599916E+02 -0.92218259164E+03  0.94488635372E+03  0.16500000000E+03 0.  0.
<mgrwt>
<rscale>  0 0.42744119E+03</rscale>
<asrwt>0</asrwt>
<pdfrwt beam="1">  1        2 0.21030732E+00 0.42744119E+03</pdfrwt>
<pdfrwt beam="2">  1       -2 0.44324341E-02 0.42744119E+03</pdfrwt>
<totfact> 0.38004070E+03</totfact>
</mgrwt>
</event>
<event>
 4    1  0.1025337E-004  0.9233444E+03  0.7818608E-02  0.9396861E-01
         -2   -1    0    0    0  501 -0.00000000000E+00  0.00000000000E+00  0.13117727085E+03  0.13117727087E+03  0.25500000000E-02 0. -1.
          2   -1    0    0  501    0  0.00000000000E+00 -0.00000000000E+00 -0.16248335648E+04  0.16248335648E+04  0.25500000000E-02 0.  1.
    5000001    1    1    2    0    0 -0.19351133706E+03 -0.25082315813E+03 -0.13031064129E+04  0.13511736444E+04  0.16500000000E+03 0.  0.
   -5000001    1    1    2    0    0  0.19351133706E+03  0.25082315813E+03 -0.19054988112E+03  0.40483719125E+03  0.16500000000E+03 0.  0.
<mgrwt>
<rscale>  0 0.92334443E+03</rscale>
<asrwt>0</asrwt>
<pdfrwt beam="1">  1        2 0.23211907E+00 0.92334443E+03</pdfrwt>
<pdfrwt beam="2">  1       -2 0.18739611E-01 0.92334443E+03</pdfrwt>
<totfact> 0.30097787E+02</totfact>
</mgrwt>
</event>
<event>
 4    1  0.1025337E-004  0.4322594E+03  0.7818608E-02  0.1033149E+00
         -2   -1    0    0    0  501 -0.00000000000E+00  0.00000000000E+00  0.70324883368E+02  0.70324883414E+02  0.25500000000E-02 0. -1.
          2   -1    0    0  501    0  0.00000000000E+00 -0.00000000000E+00 -0.66423200278E+03  0.66423200279E+03  0.25500000000E-02 0.  1.
    5000001    1    1    2    0    0 -0.34034262873E+02  0.13514308890E+03 -0.28324747494E+03  0.35619674000E+03  0.16500000000E+03 0.  0.
   -5000001    1    1    2    0    0  0.34034262873E+02 -0.13514308890E+03 -0.31065964447E+03  0.37836014620E+03  0.16500000000E+03 0.  0.
<mgrwt>
<rscale>  0 0.43225936E+03</rscale>
<asrwt>0</asrwt>
<pdfrwt beam="1">  1        2 0.94890283E-01 0.43225936E+03</pdfrwt>
<pdfrwt beam="2">  1       -2 0.10046412E-01 0.43225936E+03</pdfrwt>
<totfact> 0.32401719E+03</totfact>
</mgrwt>
</event>
<event>
 4    1  0.1025337E-004  0.5105243E+03  0.7818608E-02  0.1011068E+00
          2   -1    0    0  501    0  0.00000000000E+00  0.00000000000E+00  0.11095601499E+04  0.11095601499E+04  0.25500000000E-02 0.  1.
         -2   -1    0    0    0  501 -0.00000000000E+00 -0.00000000000E+00 -0.58724852376E+02  0.58724852431E+02  0.25500000000E-02 0. -1.
    5000001    1    1    2    0    0 -0.19388035498E+03 -0.14246831920E+02  0.55260939568E+03  0.60860061491E+03  0.16500000000E+03 0.  0.
   -5000001    1    1    2    0    0  0.19388035498E+03  0.14246831920E+02  0.49822590186E+03  0.55968438744E+03  0.16500000000E+03 0.  0.
<mgrwt>
<rscale>  0 0.51052426E+03</rscale>
<asrwt>0</asrwt>
<pdfrwt beam="1">  1        2 0.15850859E+00 0.51052426E+03</pdfrwt>
<pdfrwt beam="2">  1       -2 0.83892650E-02 0.51052426E+03</pdfrwt>
<totfact> 0.22089714E+03</totfact>
</mgrwt>
</event>
<event>
 4    1  0.1025337E-004  0.5029693E+03  0.7818608E-02  0.1013007E+00
         -2   -1    0    0    0  501 -0.00000000000E+00  0.00000000000E+00  0.76223745733E+02  0.76223745775E+02  0.25500000000E-02 0. -1.
          2   -1    0    0  501    0  0.00000000000E+00 -0.00000000000E+00 -0.82972197423E+03  0.82972197423E+03  0.25500000000E-02 0.  1.
    5000001    1    1    2    0    0 -0.15998891954E+03 -0.73202691223E+02 -0.50493079498E+03  0.55958484263E+03  0.16500000000E+03 0.  0.
   -5000001    1    1    2    0    0  0.15998891954E+03  0.73202691223E+02 -0.24856743352E+03  0.34636087738E+03  0.16500000000E+03 0.  0.
<mgrwt>
<rscale>  0 0.50296925E+03</rscale>
<asrwt>0</asrwt>
<pdfrwt beam="1">  1        2 0.11853171E+00 0.50296925E+03</pdfrwt>
<pdfrwt beam="2">  1       -2 0.10889107E-01 0.50296925E+03</pdfrwt>
<totfact> 0.21628860E+03</totfact>
</mgrwt>
</event>
<event>
 4    1  0.1025337E-004  0.7697503E+03  0.7818608E-02  0.9604865E-01
          2   -1    0    0  501    0  0.00000000000E+00  0.00000000000E+00  0.62125486850E+03  0.62125486851E+03  0.25500000000E-02 0.  1.
         -2   -1    0    0    0  501 -0.00000000000E+00 -0.00000000000E+00 -0.23843493256E+03  0.23843493258E+03  0.25500000000E-02 0. -1.
    5000001    1    1    2    0    0 -0.27263162041E+03  0.21448160950E+03  0.16466394681E+03  0.41793489522E+03  0.16500000000E+03 0.  0.
   -5000001    1    1    2    0    0  0.27263162041E+03 -0.21448160950E+03  0.21815598913E+03  0.44175490586E+03  0.16500000000E+03 0.  0.
<mgrwt>
<rscale>  0 0.76975025E+03</rscale>
<asrwt>0</asrwt>
<pdfrwt beam="1">  1        2 0.88750695E-01 0.76975025E+03</pdfrwt>
<pdfrwt beam="2">  1       -2 0.34062133E-01 0.76975025E+03</pdfrwt>
<totfact> 0.42177966E+02</totfact>
</mgrwt>
</event>
<event>
 4    1  0.1025337E-004  0.4355608E+03  0.7818608E-02  0.1032118E+00
         -2   -1    0    0    0  501 -0.00000000000E+00  0.00000000000E+00  0.48224637610E+02  0.48224637677E+02  0.25500000000E-02 0. -1.
          2   -1    0    0  501    0  0.00000000000E+00 -0.00000000000E+00 -0.98348717013E+03  0.98348717013E+03  0.25500000000E-02 0.  1.
    5000001    1    1    2    0    0 -0.13263147962E+03  0.39770400600E+02 -0.39159208798E+03  0.44692522587E+03  0.16500000000E+03 0.  0.
   -5000001    1    1    2    0    0  0.13263147962E+03 -0.39770400600E+02 -0.54367044454E+03  0.58478658194E+03  0.16500000000E+03 0.  0.
<mgrwt>
<rscale>  0 0.43556084E+03</rscale>
<asrwt>0</asrwt>
<pdfrwt beam="1">  1        2 0.14049816E+00 0.43556084E+03</pdfrwt>
<pdfrwt beam="2">  1       -2 0.68892345E-02 0.43556084E+03</pdfrwt>
<totfact> 0.35782344E+03</totfact>
</mgrwt>
</event>
<event>
 4    1  0.1025337E-004  0.1038742E+04  0.7818608E-02  0.9267045E-01
         -2   -1    0    0    0  501 -0.00000000000E+00  0.00000000000E+00  0.13334207672E+03  0.13334207675E+03  0.25500000000E-02 0. -1.
          2   -1    0    0  501    0  0.00000000000E+00 -0.00000000000E+00 -0.20229651646E+04  0.20229651646E+04  0.25500000000E-02 0.  1.
    5000001    1    1    2    0    0 -0.17073000555E+03  0.21417704983E+03 -0.95217769420E+02  0.33363448126E+03  0.16500000000E+03 0.  0.
   -5000001    1    1    2    0    0  0.17073000555E+03 -0.21417704983E+03 -0.17944053184E+04  0.18226727601E+04  0.16500000000E+03 0.  0.
<mgrwt>
<rscale>  0 0.10387423E+04</rscale>
<asrwt>0</asrwt>
<pdfrwt beam="1">  1        2 0.28899500E+00 0.10387423E+04</pdfrwt>
<pdfrwt beam="2">  1       -2 0.19048869E-01 0.10387423E+04</pdfrwt>
<totfact> 0.18136479E+02</totfact>
</mgrwt>
</event>
<event>
 4    1  0.1025337E-004  0.3470979E+03  0.7818608E-02  0.1063813E+00
         -2   -1    0    0    0  501 -0.00000000000E+00  0.00000000000E+00  0.29557212014E+02  0.29557212124E+02  0.25500000000E-02 0.  1.
          2   -1    0    0  501    0  0.00000000000E+00 -0.00000000000E+00 -0.10190145862E+04  0.10190145862E+04  0.25500000000E-02 0. -1.
    5000001    1    1    2    0    0  0.36807703020E+02 -0.38774827600E+02 -0.51283837366E+03  0.54137463161E+03  0.16500000000E+03 0.  0.
   -5000001    1    1    2    0    0 -0.36807703020E+02  0.38774827600E+02 -0.47661900050E+03  0.50719716668E+03  0.16500000000E+03 0.  0.
<mgrwt>
<rscale>  0 0.34709785E+03</rscale>
<asrwt>0</asrwt>
<pdfrwt beam="1">  1        2 0.14557349E+00 0.34709785E+03</pdfrwt>
<pdfrwt beam="2">  1       -2 0.42224595E-02 0.34709785E+03</pdfrwt>
<totfact> 0.72206313E+03</totfact>
</mgrwt>
</event>
<event>
 4    1  0.1025337E-004  0.4466425E+03  0.7818608E-02  0.1028728E+00
         -2   -1    0    0    0  501 -0.00000000000E+00  0.00000000000E+00  0.22579640155E+03  0.22579640156E+03  0.25500000000E-02 0. -1.
          2   -1    0    0  501    0  0.00000000000E+00 -0.00000000000E+00 -0.22087324785E+03  0.22087324787E+03  0.25500000000E-02 0.  1.
    5000001    1    1    2    0    0 -0.12632433375E+03  0.80177157310E+02 -0.13700182024E+02  0.22315669122E+03  0.16500000000E+03 0.  0.
   -5000001    1    1    2    0    0  0.12632433375E+03 -0.80177157310E+02  0.18623335719E+02  0.22351295820E+03  0.16500000000E+03 0.  0.
<mgrwt>
<rscale>  0 0.44664252E+03</rscale>
<asrwt>0</asrwt>
<pdfrwt beam="1">  1        2 0.31553321E-01 0.44664252E+03</pdfrwt>
<pdfrwt beam="2">  1       -2 0.32256629E-01 0.44664252E+03</pdfrwt>
<totfact> 0.14961375E+03</totfact>
</mgrwt>
</event>
<event>
 4    1  0.1025337E-004  0.1176423E+04  0.7818608E-02  0.9133747E-01
          2   -1    0    0  501    0  0.00000000000E+00  0.00000000000E+00  0.41775870665E+03  0.41775870666E+03  0.25500000000E-02 0.  1.
         -2   -1    0    0    0  501 -0.00000000000E+00 -0.00000000000E+00 -0.82821225878E+03  0.82821225878E+03  0.25500000000E-02 0. -1.
    5000001    1    1    2    0    0 -0.26050592732E+02  0.53055855179E+03 -0.40783931872E+03  0.68973104914E+03  0.16500000000E+03 0.  0.
   -5000001    1    1    2    0    0  0.26050592732E+02 -0.53055855179E+03 -0.26142334078E+01  0.55623991629E+03  0.16500000000E+03 0.  0.
<mgrwt>
<rscale>  0 0.11764232E+04</rscale>
<asrwt>0</asrwt>
<pdfrwt beam="1">  1        2 0.59679816E-01 0.11764232E+04</pdfrwt>
<pdfrwt beam="2">  1       -2 0.11831604E+00 0.11764232E+04</pdfrwt>
<totfact> 0.44792032E+01</totfact>
</mgrwt>
</event>
<event>
 4    1  0.1025337E-004  0.1226818E+04  0.7818608E-02  0.9089701E-01
          2   -1    0    0  501    0  0.00000000000E+00  0.00000000000E+00  0.18442501174E+04  0.18442501174E+04  0.25500000000E-02 0.  1.
         -2   -1    0    0    0  501 -0.00000000000E+00 -0.00000000000E+00 -0.20402376136E+03  0.20402376137E+03  0.25500000000E-02 0. -1.
    5000001    1    1    2    0    0 -0.48737132451E+03  0.32522282788E+03  0.69356425989E+03  0.92279850364E+03  0.16500000000E+03 0.  0.
   -5000001    1    1    2    0    0  0.48737132451E+03 -0.32522282788E+03  0.94666209612E+03  0.11254753751E+04  0.16500000000E+03 0.  0.
<mgrwt>
<rscale>  0 0.12268184E+04</rscale>
<asrwt>0</asrwt>
<pdfrwt beam="1">  1        2 0.26346429E+00 0.12268184E+04</pdfrwt>
<pdfrwt beam="2">  1       -2 0.29146253E-01 0.12268184E+04</pdfrwt>
<totfact> 0.10289642E+02</totfact>
</mgrwt>
</event>
<event>
 4    1  0.1025337E-004  0.1009679E+04  0.7818608E-02  0.9297992E-01
          2   -1    0    0  501    0  0.00000000000E+00  0.00000000000E+00  0.25771779740E+03  0.25771779741E+03  0.25500000000E-02 0.  1.
         -2   -1    0    0    0  501 -0.00000000000E+00 -0.00000000000E+00 -0.98892301707E+03  0.98892301708E+03  0.25500000000E-02 0. -1.
    5000001    1    1    2    0    0  0.45819870699E+03 -0.46124808080E+02 -0.21156541301E+03  0.53297136602E+03  0.16500000000E+03 0.  0.
   -5000001    1    1    2    0    0 -0.45819870699E+03  0.46124808080E+02 -0.51963980666E+03  0.71366944847E+03  0.16500000000E+03 0.  0.
<mgrwt>
<rscale>  0 0.10096793E+04</rscale>
<asrwt>0</asrwt>
<pdfrwt beam="1">  1        2 0.36816829E-01 0.10096793E+04</pdfrwt>
<pdfrwt beam="2">  1       -2 0.14127471E+00 0.10096793E+04</pdfrwt>
<totfact> 0.49460522E+01</totfact>
</mgrwt>
</event>
<event>
 4    1  0.1025337E-004  0.6626814E+03  0.7818608E-02  0.9783270E-01
         -2   -1    0    0    0  501 -0.00000000000E+00  0.00000000000E+00  0.32847346597E+03  0.32847346598E+03  0.25500000000E-02 0. -1.
          2   -1    0    0  501    0  0.00000000000E+00 -0.00000000000E+00 -0.33423291404E+03  0.33423291405E+03  0.25500000000E-02 0.  1.
    5000001    1    1    2    0    0  0.41085445568E+02 -0.23150094842E+03  0.16229594441E+03  0.32991768145E+03  0.16500000000E+03 0.  0.
   -5000001    1    1    2    0    0 -0.41085445568E+02  0.23150094842E+03 -0.16805539249E+03  0.33278869858E+03  0.16500000000E+03 0.  0.
<mgrwt>
<rscale>  0 0.66268135E+03</rscale>
<asrwt>0</asrwt>
<pdfrwt beam="1">  1        2 0.47747559E-01 0.66268135E+03</pdfrwt>
<pdfrwt beam="2">  1       -2 0.46924781E-01 0.66268135E+03</pdfrwt>
<totfact> 0.45870481E+02</totfact>
</mgrwt>
</event>
<event>
 4    1  0.1025337E-004  0.6023567E+03  0.7818608E-02  0.9900529E-01
          2   -1    0    0  501    0  0.00000000000E+00  0.00000000000E+00  0.11847223568E+04  0.11847223568E+04  0.25500000000E-02 0.  1.
         -2   -1    0    0    0  501 -0.00000000000E+00 -0.00000000000E+00 -0.76565111472E+02  0.76565111515E+02  0.25500000000E-02 0. -1.
    5000001    1    1    2    0    0  0.18500374030E+03  0.16962325741E+03  0.50796641015E+03  0.59012990707E+03  0.16500000000E+03 0.  0.
   -5000001    1    1    2    0    0 -0.18500374030E+03 -0.16962325741E+03  0.60019083516E+03  0.67115756122E+03  0.16500000000E+03 0.  0.
<mgrwt>
<rscale>  0 0.60235670E+03</rscale>
<asrwt>0</asrwt>
<pdfrwt beam="1">  1        2 0.16924605E+00 0.60235670E+03</pdfrwt>
<pdfrwt beam="2">  1       -2 0.10937873E-01 0.60235670E+03</pdfrwt>
<totfact> 0.13027916E+03</totfact>
</mgrwt>
</event>
<event>
 4    1  0.1025337E-004  0.7090846E+03  0.7818608E-02  0.9701821E-01
          2   -1    0    0  501    0  0.00000000000E+00  0.00000000000E+00  0.14679877070E+04  0.14679877070E+04  0.25500000000E-02 0.  1.
         -2   -1    0    0    0  501 -0.00000000000E+00 -0.00000000000E+00 -0.85627591192E+02  0.85627591230E+02  0.25500000000E-02 0. -1.
    5000001    1    1    2    0    0 -0.17574292052E+03 -0.22987880147E+03  0.95723657583E+03  0.10135367283E+04  0.16500000000E+03 0.  0.
   -5000001    1    1    2    0    0  0.17574292052E+03  0.22987880147E+03  0.42512353999E+03  0.54007856996E+03  0.16500000000E+03 0.  0.
<mgrwt>
<rscale>  0 0.70908462E+03</rscale>
<asrwt>0</asrwt>
<pdfrwt beam="1">  1        2 0.20971253E+00 0.70908462E+03</pdfrwt>
<pdfrwt beam="2">  1       -2 0.12232513E-01 0.70908462E+03</pdfrwt>
<totfact> 0.75773161E+02</totfact>
</mgrwt>
</event>
<event>
 4    1  0.1025337E-004  0.4942749E+03  0.7818608E-02  0.1015284E+00
         -2   -1    0    0    0  501 -0.00000000000E+00  0.00000000000E+00  0.35225286967E+02  0.35225287059E+02  0.25500000000E-02 0. -1.
          2   -1    0    0  501    0  0.00000000000E+00 -0.00000000000E+00 -0.17338941140E+04  0.17338941140E+04  0.25500000000E-02 0.  1.
    5000001    1    1    2    0    0  0.16820702467E+02 -0.18305796647E+03 -0.82189723413E+03  0.85821513538E+03  0.16500000000E+03 0.  0.
   -5000001    1    1    2    0    0 -0.16820702467E+02  0.18305796647E+03 -0.87677159292E+03  0.91090426570E+03  0.16500000000E+03 0.  0.
<mgrwt>
<rscale>  0 0.49427489E+03</rscale>
<asrwt>0</asrwt>
<pdfrwt beam="1">  1        2 0.24769910E+00 0.49427489E+03</pdfrwt>
<pdfrwt beam="2">  1       -2 0.50321850E-02 0.49427489E+03</pdfrwt>
<totfact> 0.22981409E+03</totfact>
</mgrwt>
</event>
<event>
 4    1  0.1025337E-004  0.7048467E+03  0.7818608E-02  0.9708979E-01
          2   -1    0    0  501    0  0.00000000000E+00  0.00000000000E+00  0.89425144556E+03  0.89425144556E+03  0.25500000000E-02 0.  1.
         -2   -1    0    0    0  501 -0.00000000000E+00 -0.00000000000E+00 -0.13888960926E+03  0.13888960929E+03  0.25500000000E-02 0. -1.
    5000001    1    1    2    0    0  0.20427884374E+03 -0.20183684364E+03  0.20112275660E+03  0.38748331664E+03  0.16500000000E+03 0.  0.
   -5000001    1    1    2    0    0 -0.20427884374E+03  0.20183684364E+03  0.55423907969E+03  0.64565773821E+03  0.16500000000E+03 0.  0.
<mgrwt>
<rscale>  0 0.70484675E+03</rscale>
<asrwt>0</asrwt>
<pdfrwt beam="1">  1        2 0.12775021E+00 0.70484675E+03</pdfrwt>
<pdfrwt beam="2">  1       -2 0.19841372E-01 0.70484675E+03</pdfrwt>
<totfact> 0.71235609E+02</totfact>
</mgrwt>
</event>
<event>
 4    1  0.1025337E-004  0.6945047E+03  0.7818608E-02  0.9726676E-01
         -2   -1    0    0    0  501 -0.00000000000E+00  0.00000000000E+00  0.49833907610E+02  0.49833907676E+02  0.25500000000E-02 0. -1.
          2   -1    0    0  501    0  0.00000000000E+00 -0.00000000000E+00 -0.24197216672E+04  0.24197216672E+04  0.25500000000E-02 0.  1.
    5000001    1    1    2    0    0 -0.23946510805E+03 -0.61912122171E+02 -0.54704216385E+03  0.62262089419E+03  0.16500000000E+03 0.  0.
   -5000001    1    1    2    0    0  0.23946510805E+03  0.61912122171E+02 -0.18228455957E+04  0.18469346807E+04  0.16500000000E+03 0.  0.
<mgrwt>
<rscale>  0 0.69450468E+03</rscale>
<asrwt>0</asrwt>
<pdfrwt beam="1">  1        2 0.34567445E+00 0.69450468E+03</pdfrwt>
<pdfrwt beam="2">  1       -2 0.71191312E-02 0.69450468E+03</pdfrwt>
<totfact> 0.59573666E+02</totfact>
</mgrwt>
</event>
<event>
 4    1  0.1025337E-004  0.5077219E+03  0.7818608E-02  0.1011783E+00
          2   -1    0    0  501    0  0.00000000000E+00  0.00000000000E+00  0.25402892709E+04  0.25402892709E+04  0.25500000000E-02 0.  1.
         -2   -1    0    0    0  501 -0.00000000000E+00 -0.00000000000E+00 -0.25369309341E+02  0.25369309469E+02  0.25500000000E-02 0. -1.
    5000001    1    1    2    0    0  0.10550315858E+03 -0.15874305325E+03  0.14082230808E+04  0.14306108900E+04  0.16500000000E+03 0.  0.
   -5000001    1    1    2    0    0 -0.10550315858E+03  0.15874305325E+03  0.11066968808E+04  0.11350476904E+04  0.16500000000E+03 0.  0.
<mgrwt>
<rscale>  0 0.50772191E+03</rscale>
<asrwt>0</asrwt>
<pdfrwt beam="1">  1        2 0.36289866E+00 0.50772191E+03</pdfrwt>
<pdfrwt beam="2">  1       -2 0.36241852E-02 0.50772191E+03</pdfrwt>
<totfact> 0.14950511E+03</totfact>
</mgrwt>
</event>
<event>
 4    1  0.1025337E-004  0.5228295E+03  0.7818608E-02  0.1007986E+00
         -2   -1    0    0    0  501 -0.00000000000E+00  0.00000000000E+00  0.70082174388E+02  0.70082174434E+02  0.25500000000E-02 0. -1.
          2   -1    0    0  501    0  0.00000000000E+00 -0.00000000000E+00 -0.97510791382E+03  0.97510791382E+03  0.25500000000E-02 0.  1.
    5000001    1    1    2    0    0 -0.62594755354E+02  0.17053352564E+03 -0.27245043423E+03  0.36667973202E+03  0.16500000000E+03 0.  0.
   -5000001    1    1    2    0    0  0.62594755354E+02 -0.17053352564E+03 -0.63257530520E+03  0.67851035624E+03  0.16500000000E+03 0.  0.
<mgrwt>
<rscale>  0 0.52282954E+03</rscale>
<asrwt>0</asrwt>
<pdfrwt beam="1">  1        2 0.13930112E+00 0.52282954E+03</pdfrwt>
<pdfrwt beam="2">  1       -2 0.10011740E-01 0.52282954E+03</pdfrwt>
<totfact> 0.19990371E+03</totfact>
</mgrwt>
</event>
<event>
 4    1  0.1025337E-004  0.7614242E+03  0.7818608E-02  0.9617596E-01
          2   -1    0    0  501    0  0.00000000000E+00  0.00000000000E+00  0.80520401888E+02  0.80520401928E+02  0.25500000000E-02 0.  1.
         -2   -1    0    0    0  501 -0.00000000000E+00 -0.00000000000E+00 -0.18000618467E+04  0.18000618467E+04  0.25500000000E-02 0. -1.
    5000001    1    1    2    0    0  0.12148961659E+03  0.25898561895E+03 -0.13276271543E+04  0.13680833814E+04  0.16500000000E+03 0.  0.
   -5000001    1    1    2    0    0 -0.12148961659E+03 -0.25898561895E+03 -0.39191429056E+03  0.51249886722E+03  0.16500000000E+03 0.  0.
<mgrwt>
<rscale>  0 0.76142420E+03</rscale>
<asrwt>0</asrwt>
<pdfrwt beam="1">  1        2 0.11502916E-01 0.76142420E+03</pdfrwt>
<pdfrwt beam="2">  1       -2 0.25715167E+00 0.76142420E+03</pdfrwt>
<totfact> 0.33279993E+01</totfact>
</mgrwt>
</event>
<event>
 4    1  0.1025337E-004  0.5716467E+03  0.7818608E-02  0.9966041E-01
          2   -1    0    0  501    0  0.00000000000E+00  0.00000000000E+00  0.22591695158E+04  0.22591695158E+04  0.25500000000E-02 0.  1.
         -2   -1    0    0    0  501 -0.00000000000E+00 -0.00000000000E+00 -0.36161510475E+02  0.36161510565E+02  0.25500000000E-02 0. -1.
    5000001    1    1    2    0    0  0.21645118709E+03 -0.67772248931E+02  0.13323740862E+04  0.13615762555E+04  0.16500000000E+03 0.  0.
   -5000001    1    1    2    0    0 -0.21645118709E+03  0.67772248931E+02  0.89063391916E+03  0.93375477084E+03  0.16500000000E+03 0.  0.
<mgrwt>
<rscale>  0 0.57164668E+03</rscale>
<asrwt>0</asrwt>
<pdfrwt beam="1">  1        2 0.32273859E+00 0.57164668E+03</pdfrwt>
<pdfrwt beam="2">  1       -2 0.51659287E-02 0.57164668E+03</pdfrwt>
<totfact> 0.11990477E+03</totfact>
</mgrwt>
</event>
<event>
 4    1  0.1025337E-004  0.3707442E+03  0.7818608E-02  0.1054409E+00
          2   -1    0    0  501    0  0.00000000000E+00  0.00000000000E+00  0.14231977362E+04  0.14231977362E+04  0.25500000000E-02 0.  1.
         -2   -1    0    0    0  501 -0.00000000000E+00 -0.00000000000E+00 -0.24144798149E+02  0.24144798284E+02  0.25500000000E-02 0. -1.
    5000001    1    1    2    0    0 -0.69533390046E+02 -0.38105301884E+02  0.81340456889E+03  0.83374990198E+03  0.16500000000E+03 0.  0.
   -5000001    1    1    2    0    0  0.69533390046E+02  0.38105301884E+02  0.58564836917E+03  0.61359263251E+03  0.16500000000E+03 0.  0.
<mgrwt>
<rscale>  0 0.37074424E+03</rscale>
<asrwt>0</asrwt>
<pdfrwt beam="1">  1        2 0.20331396E+00 0.37074424E+03</pdfrwt>
<pdfrwt beam="2">  1       -2 0.34492569E-02 0.37074424E+03</pdfrwt>
<totfact> 0.58925813E+03</totfact>
</mgrwt>
</event>
<event>
 4    1  0.1025337E-004  0.1264683E+04  0.7818608E-02  0.9058050E-01
          2   -1    0    0  501    0  0.00000000000E+00  0.00000000000E+00  0.56781456753E+03  0.56781456754E+03  0.25500000000E-02 0.  1.
         -2   -1    0    0    0  501 -0.00000000000E+00 -0.00000000000E+00 -0.70420164226E+03  0.70420164226E+03  0.25500000000E-02 0. -1.
    5000001    1    1    2    0    0  0.22868137010E+03  0.55552116812E+03  0.40748915367E+02  0.62432716693E+03  0.16500000000E+03 0.  0.
   -5000001    1    1    2    0    0 -0.22868137010E+03 -0.55552116812E+03 -0.17713599009E+03  0.64768904287E+03  0.16500000000E+03 0.  0.
<mgrwt>
<rscale>  0 0.12646833E+04</rscale>
<asrwt>0</asrwt>
<pdfrwt beam="1">  1        2 0.81116367E-01 0.12646833E+04</pdfrwt>
<pdfrwt beam="2">  1       -2 0.10060023E+00 0.12646833E+04</pdfrwt>
<totfact> 0.46406834E+01</totfact>
</mgrwt>
</event>
<event>
 4    1  0.1025337E-004  0.4696257E+03  0.7818608E-02  0.1022026E+00
          2   -1    0    0  501    0  0.00000000000E+00  0.00000000000E+00  0.80096185903E+03  0.80096185903E+03  0.25500000000E-02 0.  1.
         -2   -1    0    0    0  501 -0.00000000000E+00 -0.00000000000E+00 -0.68838577747E+02  0.68838577795E+02  0.25500000000E-02 0. -1.
    5000001    1    1    2    0    0  0.14096047799E+03  0.39189880934E+02  0.51545703600E+03  0.56064842734E+03  0.16500000000E+03 0.  0.
   -5000001    1    1    2    0    0 -0.14096047799E+03 -0.39189880934E+02  0.21666624528E+03  0.30915200948E+03  0.16500000000E+03 0.  0.
<mgrwt>
<rscale>  0 0.46962570E+03</rscale>
<asrwt>0</asrwt>
<pdfrwt beam="1">  1        2 0.11442312E+00 0.46962570E+03</pdfrwt>
<pdfrwt beam="2">  1       -2 0.98340832E-02 0.46962570E+03</pdfrwt>
<totfact> 0.26673032E+03</totfact>
</mgrwt>
</event>
<event>
 4    1  0.1025337E-004  0.5329955E+03  0.7818608E-02  0.1005508E+00
          2   -1    0    0  501    0  0.00000000000E+00  0.00000000000E+00  0.17170145488E+03  0.17170145490E+03  0.25500000000E-02 0.  1.
         -2   -1    0    0    0  501 -0.00000000000E+00 -0.00000000000E+00 -0.41363099518E+03  0.41363099519E+03  0.25500000000E-02 0. -1.
    5000001    1    1    2    0    0  0.17886287440E+03 -0.10818324329E+03 -0.10995531616E+03  0.28811579880E+03  0.16500000000E+03 0.  0.
   -5000001    1    1    2    0    0 -0.17886287440E+03  0.10818324329E+03 -0.13197422413E+03  0.29721665129E+03  0.16500000000E+03 0.  0.
<mgrwt>
<rscale>  0 0.53299547E+03</rscale>
<asrwt>0</asrwt>
<pdfrwt beam="1">  1        2 0.24528779E-01 0.53299547E+03</pdfrwt>
<pdfrwt beam="2">  1       -2 0.59090142E-01 0.53299547E+03</pdfrwt>
<totfact> 0.60344808E+02</totfact>
</mgrwt>
</event>
<event>
 4    1  0.1025337E-004  0.3850788E+03  0.7818608E-02  0.1049072E+00
         -2   -1    0    0    0  501 -0.00000000000E+00  0.00000000000E+00  0.89560254271E+02  0.89560254307E+02  0.25500000000E-02 0. -1.
          2   -1    0    0  501    0  0.00000000000E+00 -0.00000000000E+00 -0.41392711702E+03  0.41392711702E+03  0.25500000000E-02 0.  1.
    5000001    1    1    2    0    0  0.70505727688E+02  0.54123749138E+02 -0.10450569941E+03  0.21458536546E+03  0.16500000000E+03 0.  0.
   -5000001    1    1    2    0    0 -0.70505727688E+02 -0.54123749138E+02 -0.21986116333E+03  0.28890200588E+03  0.16500000000E+03 0.  0.
<mgrwt>
<rscale>  0 0.38507879E+03</rscale>
<asrwt>0</asrwt>
<pdfrwt beam="1">  1        2 0.59132444E-01 0.38507879E+03</pdfrwt>
<pdfrwt beam="2">  1       -2 0.12794322E-01 0.38507879E+03</pdfrwt>
<totfact> 0.37371077E+03</totfact>
</mgrwt>
</event>
<event>
 4    1  0.1025337E-004  0.5713635E+03  0.7818608E-02  0.9966666E-01
          2   -1    0    0  501    0  0.00000000000E+00  0.00000000000E+00  0.78851902729E+03  0.78851902730E+03  0.25500000000E-02 0.  1.
         -2   -1    0    0    0  501 -0.00000000000E+00 -0.00000000000E+00 -0.10350296714E+03  0.10350296717E+03  0.25500000000E-02 0. -1.
    5000001    1    1    2    0    0 -0.22466377922E+03  0.51135234337E+02  0.39880786046E+03  0.48924568005E+03  0.16500000000E+03 0.  0.
   -5000001    1    1    2    0    0  0.22466377922E+03 -0.51135234337E+02  0.28620819970E+03  0.40277631442E+03  0.16500000000E+03 0.  0.
<mgrwt>
<rscale>  0 0.57136349E+03</rscale>
<asrwt>0</asrwt>
<pdfrwt beam="1">  1        2 0.11264557E+00 0.57136349E+03</pdfrwt>
<pdfrwt beam="2">  1       -2 0.14786139E-01 0.57136349E+03</pdfrwt>
<totfact> 0.13922811E+03</totfact>
</mgrwt>
</event>
<event>
 4    1  0.1025337E-004  0.6023154E+03  0.7818608E-02  0.9900614E-01
          2   -1    0    0  501    0  0.00000000000E+00  0.00000000000E+00  0.18451852085E+04  0.18451852085E+04  0.25500000000E-02 0.  1.
         -2   -1    0    0    0  501 -0.00000000000E+00 -0.00000000000E+00 -0.49152762763E+02  0.49152762829E+02  0.25500000000E-02 0. -1.
    5000001    1    1    2    0    0  0.23511317233E+03  0.38464492528E+01  0.11824333829E+04  0.12168264889E+04  0.16500000000E+03 0.  0.
   -5000001    1    1    2    0    0 -0.23511317233E+03 -0.38464492528E+01  0.61359906282E+03  0.67751148246E+03  0.16500000000E+03 0.  0.
<mgrwt>
<rscale>  0 0.60231537E+03</rscale>
<asrwt>0</asrwt>
<pdfrwt beam="1">  1        2 0.26359786E+00 0.60231537E+03</pdfrwt>
<pdfrwt beam="2">  1       -2 0.70218238E-02 0.60231537E+03</pdfrwt>
<totfact> 0.11951293E+03</totfact>
</mgrwt>
</event>
<event>
 4    1  0.1025337E-004  0.4447315E+03  0.7818608E-02  0.1029305E+00
          2   -1    0    0  501    0  0.00000000000E+00  0.00000000000E+00  0.23580652707E+04  0.23580652707E+04  0.25500000000E-02 0.  1.
         -2   -1    0    0    0  501 -0.00000000000E+00 -0.00000000000E+00 -0.20969110588E+02  0.20969110743E+02  0.25500000000E-02 0. -1.
    5000001    1    1    2    0    0 -0.56903601333E+02  0.11876861000E+03  0.15421445279E+04  0.15565277856E+04  0.16500000000E+03 0.  0.
   -5000001    1    1    2    0    0  0.56903601333E+02 -0.11876861000E+03  0.79495163217E+03  0.82250659575E+03  0.16500000000E+03 0.  0.
<mgrwt>
<rscale>  0 0.44473152E+03</rscale>
<asrwt>0</asrwt>
<pdfrwt beam="1">  1        2 0.33686647E+00 0.44473152E+03</pdfrwt>
<pdfrwt beam="2">  1       -2 0.29955872E-02 0.44473152E+03</pdfrwt>
<totfact> 0.24785149E+03</totfact>
</mgrwt>
</event>
<event>
 4    1  0.1025337E-004  0.4793284E+03  0.7818608E-02  0.1019320E+00
         -2   -1    0    0    0  501 -0.00000000000E+00  0.00000000000E+00  0.23092316554E+02  0.23092316695E+02  0.25500000000E-02 0. -1.
          2   -1    0    0  501    0  0.00000000000E+00 -0.00000000000E+00 -0.24873614119E+04  0.24873614119E+04  0.25500000000E-02 0.  1.
    5000001    1    1    2    0    0 -0.92602433998E+02 -0.10899049580E+03 -0.17495500651E+04  0.17631235264E+04  0.16500000000E+03 0.  0.
   -5000001    1    1    2    0    0  0.92602433998E+02  0.10899049580E+03 -0.71471903017E+03  0.74733020215E+03  0.16500000000E+03 0.  0.
<mgrwt>
<rscale>  0 0.47932844E+03</rscale>
<asrwt>0</asrwt>
<pdfrwt beam="1">  1        2 0.35533717E+00 0.47932844E+03</pdfrwt>
<pdfrwt beam="2">  1       -2 0.32989040E-02 0.47932844E+03</pdfrwt>
<totfact> 0.18390336E+03</totfact>
</mgrwt>
</event>
<event>
 4    1  0.1025337E-004  0.4445089E+03  0.7818608E-02  0.1029372E+00
          2   -1    0    0  501    0  0.00000000000E+00  0.00000000000E+00  0.45974198743E+02  0.45974198814E+02  0.25500000000E-02 0.  1.
         -2   -1    0    0    0  501 -0.00000000000E+00 -0.00000000000E+00 -0.10744514358E+04  0.10744514358E+04  0.25500000000E-02 0. -1.
    5000001    1    1    2    0    0  0.10947096920E+03 -0.82293477594E+02 -0.66155712867E+03  0.69544154610E+03  0.16500000000E+03 0.  0.
   -5000001    1    1    2    0    0 -0.10947096920E+03  0.82293477594E+02 -0.36692010839E+03  0.42498408851E+03  0.16500000000E+03 0.  0.
<mgrwt>
<rscale>  0 0.44450892E+03</rscale>
<asrwt>0</asrwt>
<pdfrwt beam="1">  1        2 0.65677434E-02 0.44450892E+03</pdfrwt>
<pdfrwt beam="2">  1       -2 0.15349305E+00 0.44450892E+03</pdfrwt>
<totfact> 0.32874802E+02</totfact>
</mgrwt>
</event>
<event>
 4    1  0.1025337E-004  0.4453715E+03  0.7818608E-02  0.1029111E+00
          2   -1    0    0  501    0  0.00000000000E+00  0.00000000000E+00  0.12972856460E+03  0.12972856462E+03  0.25500000000E-02 0.  1.
         -2   -1    0    0    0  501 -0.00000000000E+00 -0.00000000000E+00 -0.38225160824E+03  0.38225160825E+03  0.25500000000E-02 0. -1.
    5000001    1    1    2    0    0  0.12236996281E+03  0.37758525216E+01 -0.27538109045E+02  0.20729691824E+03  0.16500000000E+03 0.  0.
   -5000001    1    1    2    0    0 -0.12236996281E+03 -0.37758525216E+01 -0.22498493459E+03  0.30468325463E+03  0.16500000000E+03 0.  0.
<mgrwt>
<rscale>  0 0.44537154E+03</rscale>
<asrwt>0</asrwt>
<pdfrwt beam="1">  1        2 0.18532652E-01 0.44537154E+03</pdfrwt>
<pdfrwt beam="2">  1       -2 0.54607372E-01 0.44537154E+03</pdfrwt>
<totfact> 0.98269135E+02</totfact>
</mgrwt>
</event>
<event>
 4    1  0.1025337E-004  0.4477798E+03  0.7818608E-02  0.1028386E+00
         -2   -1    0    0    0  501 -0.00000000000E+00  0.00000000000E+00  0.16179647489E+03  0.16179647491E+03  0.25500000000E-02 0. -1.
          2   -1    0    0  501    0  0.00000000000E+00 -0.00000000000E+00 -0.30981316157E+03  0.30981316158E+03  0.25500000000E-02 0.  1.
    5000001    1    1    2    0    0  0.12021514755E+03 -0.63153935985E+02 -0.14435806241E+03  0.25788437625E+03  0.16500000000E+03 0.  0.
   -5000001    1    1    2    0    0 -0.12021514755E+03  0.63153935985E+02 -0.36586242741E+01  0.21372526024E+03  0.16500000000E+03 0.  0.
<mgrwt>
<rscale>  0 0.44777976E+03</rscale>
<asrwt>0</asrwt>
<pdfrwt beam="1">  1        2 0.44259023E-01 0.44777976E+03</pdfrwt>
<pdfrwt beam="2">  1       -2 0.23113782E-01 0.44777976E+03</pdfrwt>
<totfact> 0.18845308E+03</totfact>
</mgrwt>
</event>
<event>
 4    1  0.1025337E-004  0.1336690E+04  0.7818608E-02  0.9000965E-01
          2   -1    0    0  501    0  0.00000000000E+00  0.00000000000E+00  0.14035097157E+04  0.14035097157E+04  0.25500000000E-02 0.  1.
         -2   -1    0    0    0  501 -0.00000000000E+00 -0.00000000000E+00 -0.31826308428E+03  0.31826308429E+03  0.25500000000E-02 0. -1.
    5000001    1    1    2    0    0  0.28894089452E+03  0.46918784857E+03  0.10422663983E+03  0.58456160516E+03  0.16500000000E+03 0.  0.
   -5000001    1    1    2    0    0 -0.28894089452E+03 -0.46918784857E+03  0.98101999163E+03  0.11372111949E+04  0.16500000000E+03 0.  0.
<mgrwt>
<rscale>  0 0.13366904E+04</rscale>
<asrwt>0</asrwt>
<pdfrwt beam="1">  1        2 0.20050139E+00 0.13366904E+04</pdfrwt>
<pdfrwt beam="2">  1       -2 0.45466155E-01 0.13366904E+04</pdfrwt>
<totfact> 0.73904843E+01</totfact>
</mgrwt>
</event>
<event>
 4    1  0.1025337E-004  0.4166087E+03  0.7818608E-02  0.1038176E+00
         -2   -1    0    0    0  501 -0.00000000000E+00  0.00000000000E+00  0.67632578227E+03  0.67632578228E+03  0.25500000000E-02 0. -1.
          2   -1    0    0  501    0  0.00000000000E+00 -0.00000000000E+00 -0.64156511635E+02  0.64156511685E+02  0.25500000000E-02 0.  1.
    5000001    1    1    2    0    0 -0.96507457225E+02  0.82697141628E+02  0.31254138838E+03  0.37557905424E+03  0.16500000000E+03 0.  0.
   -5000001    1    1    2    0    0  0.96507457225E+02 -0.82697141628E+02  0.29962788226E+03  0.36490323972E+03  0.16500000000E+03 0.  0.
<mgrwt>
<rscale>  0 0.41660870E+03</rscale>
<asrwt>0</asrwt>
<pdfrwt beam="1">  1        2 0.91652149E-02 0.41660870E+03</pdfrwt>
<pdfrwt beam="2">  1       -2 0.96617980E-01 0.41660870E+03</pdfrwt>
<totfact> 0.66918938E+02</totfact>
</mgrwt>
</event>
<event>
 4    1  0.1025337E-004  0.3607076E+03  0.7818608E-02  0.1058304E+00
          2   -1    0    0  501    0  0.00000000000E+00  0.00000000000E+00  0.15971577838E+04  0.15971577838E+04  0.25500000000E-02 0.  1.
         -2   -1    0    0    0  501 -0.00000000000E+00 -0.00000000000E+00 -0.20365859874E+02  0.20365860034E+02  0.25500000000E-02 0. -1.
    5000001    1    1    2    0    0  0.14085955428E+02  0.42860539838E+02  0.53208135285E+03  0.55890160679E+03  0.16500000000E+03 0.  0.
   -5000001    1    1    2    0    0 -0.14085955428E+02 -0.42860539838E+02  0.10447105711E+04  0.10586220371E+04  0.16500000000E+03 0.  0.
<mgrwt>
<rscale>  0 0.36070759E+03</rscale>
<asrwt>0</asrwt>
<pdfrwt beam="1">  1        2 0.22816539E+00 0.36070759E+03</pdfrwt>
<pdfrwt beam="2">  1       -2 0.29094086E-02 0.36070759E+03</pdfrwt>
<totfact> 0.62017701E+03</totfact>
</mgrwt>
</event>
<event>
 4    1  0.1025337E-004  0.5706118E+03  0.7818608E-02  0.9968326E-01
          2   -1    0    0  501    0  0.00000000000E+00  0.00000000000E+00  0.19700323188E+04  0.19700323188E+04  0.25500000000E-02 0.  1.
         -2   -1    0    0    0  501 -0.00000000000E+00 -0.00000000000E+00 -0.41318845188E+02  0.41318845267E+02  0.25500000000E-02 0. -1.
    5000001    1    1    2    0    0 -0.15295923798E+03 -0.17535862366E+03  0.98276911677E+03  0.10233314772E+04  0.16500000000E+03 0.  0.
   -5000001    1    1    2    0    0  0.15295923798E+03  0.17535862366E+03  0.94594435681E+03  0.98801968683E+03  0.16500000000E+03 0.  0.
<mgrwt>
<rscale>  0 0.57061181E+03</rscale>
<asrwt>0</asrwt>
<pdfrwt beam="1">  1        2 0.28143320E+00 0.57061181E+03</pdfrwt>
<pdfrwt beam="2">  1       -2 0.59026919E-02 0.57061181E+03</pdfrwt>
<totfact> 0.13610135E+03</totfact>
</mgrwt>
</event>
<event>
 4    1  0.1025337E-004  0.5721051E+03  0.7818608E-02  0.9965031E-01
          2   -1    0    0  501    0  0.00000000000E+00  0.00000000000E+00  0.70559664002E+03  0.70559664003E+03  0.25500000000E-02 0.  1.
         -2   -1    0    0    0  501 -0.00000000000E+00 -0.00000000000E+00 -0.11596720943E+03  0.11596720946E+03  0.25500000000E-02 0. -1.
    5000001    1    1    2    0    0 -0.15215890278E+03 -0.17065854901E+03  0.36404897049E+03  0.46047076450E+03  0.16500000000E+03 0.  0.
   -5000001    1    1    2    0    0  0.15215890278E+03  0.17065854901E+03  0.22558046011E+03  0.36109308499E+03  0.16500000000E+03 0.  0.
<mgrwt>
<rscale>  0 0.57210514E+03</rscale>
<asrwt>0</asrwt>
<pdfrwt beam="1">  1        2 0.10079952E+00 0.57210514E+03</pdfrwt>
<pdfrwt beam="2">  1       -2 0.16566745E-01 0.57210514E+03</pdfrwt>
<totfact> 0.13195393E+03</totfact>
</mgrwt>
</event>
<event>
 4    1  0.1025337E-004  0.4495235E+03  0.7818608E-02  0.1027864E+00
         -2   -1    0    0    0  501 -0.00000000000E+00  0.00000000000E+00  0.25098579431E+03  0.25098579432E+03  0.25500000000E-02 0. -1.
          2   -1    0    0  501    0  0.00000000000E+00 -0.00000000000E+00 -0.20127767686E+03  0.20127767687E+03  0.25500000000E-02 0.  1.
    5000001    1    1    2    0    0 -0.12925792813E+03  0.37166239382E+02 -0.47723683770E+02  0.21815474170E+03  0.16500000000E+03 0.  0.
   -5000001    1    1    2    0    0  0.12925792813E+03 -0.37166239382E+02  0.97431801220E+02  0.23410872949E+03  0.16500000000E+03 0.  0.
<mgrwt>
<rscale>  0 0.44952347E+03</rscale>
<asrwt>0</asrwt>
<pdfrwt beam="1">  1        2 0.28753954E-01 0.44952347E+03</pdfrwt>
<pdfrwt beam="2">  1       -2 0.35855113E-01 0.44952347E+03</pdfrwt>
<totfact> 0.13609262E+03</totfact>
</mgrwt>
</event>
<event>
 4    1  0.1025337E-004  0.7306307E+03  0.7818608E-02  0.9666238E-01
          2   -1    0    0  501    0  0.00000000000E+00  0.00000000000E+00  0.13038239133E+04  0.13038239133E+04  0.25500000000E-02 0.  1.
         -2   -1    0    0    0  501 -0.00000000000E+00 -0.00000000000E+00 -0.10235683706E+03  0.10235683709E+03  0.25500000000E-02 0. -1.
    5000001    1    1    2    0    0 -0.27473104186E+03  0.17043843169E+03  0.68017801557E+03  0.77096921938E+03  0.16500000000E+03 0.  0.
   -5000001    1    1    2    0    0  0.27473104186E+03 -0.17043843169E+03  0.52128906068E+03  0.63521153102E+03  0.16500000000E+03 0.  0.
<mgrwt>
<rscale>  0 0.73063066E+03</rscale>
<asrwt>0</asrwt>
<pdfrwt beam="1">  1        2 0.18626054E+00 0.73063066E+03</pdfrwt>
<pdfrwt beam="2">  1       -2 0.14622407E-01 0.73063066E+03</pdfrwt>
<totfact> 0.68827283E+02</totfact>
</mgrwt>
</event>
<event>
 4    1  0.1025337E-004  0.7179234E+03  0.7818608E-02  0.9687062E-01
         -2   -1    0    0    0  501 -0.00000000000E+00  0.00000000000E+00  0.52315440331E+02  0.52315440393E+02  0.25500000000E-02 0. -1.
          2   -1    0    0  501    0  0.00000000000E+00 -0.00000000000E+00 -0.24630107841E+04  0.24630107841E+04  0.25500000000E-02 0.  1.
    5000001    1    1    2    0    0 -0.31535353313E+03 -0.40308710361E+02 -0.11227447628E+04  0.11784962644E+04  0.16500000000E+03 0.  0.
   -5000001    1    1    2    0    0  0.31535353313E+03  0.40308710361E+02 -0.12879505810E+04  0.13368299601E+04  0.16500000000E+03 0.  0.
<mgrwt>
<rscale>  0 0.71792338E+03</rscale>
<asrwt>0</asrwt>
<pdfrwt beam="1">  1        2 0.35185861E+00 0.71792338E+03</pdfrwt>
<pdfrwt beam="2">  1       -2 0.74736359E-02 0.71792338E+03</pdfrwt>
<totfact> 0.52299553E+02</totfact>
</mgrwt>
</event>
<event>
 4    1  0.1025337E-004  0.6216228E+03  0.7818608E-02  0.9861534E-01
          2   -1    0    0  501    0  0.00000000000E+00  0.00000000000E+00  0.39052933639E+03  0.39052933640E+03  0.25500000000E-02 0. -1.
         -2   -1    0    0    0  501 -0.00000000000E+00 -0.00000000000E+00 -0.24736615162E+03  0.24736615163E+03  0.25500000000E-02 0.  1.
    5000001    1    1    2    0    0 -0.45469735688E+02 -0.25411399792E+03  0.17892605065E+02  0.30689829931E+03  0.16500000000E+03 0.  0.
   -5000001    1    1    2    0    0  0.45469735688E+02  0.25411399792E+03  0.12527057971E+03  0.33099718872E+03  0.16500000000E+03 0.  0.
<mgrwt>
<rscale>  0 0.62162284E+03</rscale>
<asrwt>0</asrwt>
<pdfrwt beam="1">  1        2 0.55789905E-01 0.62162284E+03</pdfrwt>
<pdfrwt beam="2">  1       -2 0.35338022E-01 0.62162284E+03</pdfrwt>
<totfact> 0.67163827E+02</totfact>
</mgrwt>
</event>
<event>
 4    1  0.1025337E-004  0.4764330E+03  0.7818608E-02  0.1020120E+00
         -2   -1    0    0    0  501 -0.00000000000E+00  0.00000000000E+00  0.11079286803E+03  0.11079286806E+03  0.25500000000E-02 0. -1.
          2   -1    0    0  501    0  0.00000000000E+00 -0.00000000000E+00 -0.51219083652E+03  0.51219083653E+03  0.25500000000E-02 0.  1.
    5000001    1    1    2    0    0  0.57786779383E+01 -0.16395701539E+03 -0.26746083832E+03  0.35450754018E+03  0.16500000000E+03 0.  0.
   -5000001    1    1    2    0    0 -0.57786779383E+01  0.16395701539E+03 -0.13393713017E+03  0.26847616440E+03  0.16500000000E+03 0.  0.
<mgrwt>
<rscale>  0 0.47643296E+03</rscale>
<asrwt>0</asrwt>
<pdfrwt beam="1">  1        2 0.73170118E-01 0.47643296E+03</pdfrwt>
<pdfrwt beam="2">  1       -2 0.15827553E-01 0.47643296E+03</pdfrwt>
<totfact> 0.20760964E+03</totfact>
</mgrwt>
</event>
<event>
 4    1  0.1025337E-004  0.7803227E+03  0.7818608E-02  0.9588944E-01
         -2   -1    0    0    0  501 -0.00000000000E+00  0.00000000000E+00  0.46840362452E+03  0.46840362452E+03  0.25500000000E-02 0. -1.
          2   -1    0    0  501    0  0.00000000000E+00 -0.00000000000E+00 -0.32498872064E+03  0.32498872065E+03  0.25500000000E-02 0.  1.
    5000001    1    1    2    0    0 -0.16698064830E+03 -0.21423856256E+02  0.38781563363E+03  0.45383640688E+03  0.16500000000E+03 0.  0.
   -5000001    1    1    2    0    0  0.16698064830E+03  0.21423856256E+02 -0.24440072976E+03  0.33955593829E+03  0.16500000000E+03 0.  0.
<mgrwt>
<rscale>  0 0.78032274E+03</rscale>
<asrwt>0</asrwt>
<pdfrwt beam="1">  1        2 0.46426960E-01 0.78032274E+03</pdfrwt>
<pdfrwt beam="2">  1       -2 0.66914803E-01 0.78032274E+03</pdfrwt>
<totfact> 0.22541322E+02</totfact>
</mgrwt>
</event>
<event>
 4    1  0.1025337E-004  0.5933075E+03  0.7818608E-02  0.9919389E-01
         -2   -1    0    0    0  501 -0.00000000000E+00  0.00000000000E+00  0.53629572566E+02  0.53629572626E+02  0.25500000000E-02 0. -1.
          2   -1    0    0  501    0  0.00000000000E+00 -0.00000000000E+00 -0.16409500531E+04  0.16409500531E+04  0.25500000000E-02 0.  1.
    5000001    1    1    2    0    0 -0.21466977166E+03 -0.12114034634E+03 -0.78077405494E+03  0.83521926418E+03  0.16500000000E+03 0.  0.
   -5000001    1    1    2    0    0  0.21466977166E+03  0.12114034634E+03 -0.80654642559E+03  0.85936036155E+03  0.16500000000E+03 0.  0.
<mgrwt>
<rscale>  0 0.59330751E+03</rscale>
<asrwt>0</asrwt>
<pdfrwt beam="1">  1        2 0.23442140E+00 0.59330751E+03</pdfrwt>
<pdfrwt beam="2">  1       -2 0.76613685E-02 0.59330751E+03</pdfrwt>
<totfact> 0.13218028E+03</totfact>
</mgrwt>
</event>
<event>
 4    1  0.1025337E-004  0.4381508E+03  0.7818608E-02  0.1031316E+00
          2   -1    0    0  501    0  0.00000000000E+00  0.00000000000E+00  0.22373595000E+03  0.22373595001E+03  0.25500000000E-02 0.  1.
         -2   -1    0    0    0  501 -0.00000000000E+00 -0.00000000000E+00 -0.21451197844E+03  0.21451197845E+03  0.25500000000E-02 0. -1.
    5000001    1    1    2    0    0  0.10362347392E+03 -0.96427865874E+02  0.31689807506E+02  0.21969388149E+03  0.16500000000E+03 0.  0.
   -5000001    1    1    2    0    0 -0.10362347392E+03  0.96427865874E+02 -0.22465835943E+02  0.21855404698E+03  0.16500000000E+03 0.  0.
<mgrwt>
<rscale>  0 0.43815085E+03</rscale>
<asrwt>0</asrwt>
<pdfrwt beam="1">  1        2 0.31962279E-01 0.43815085E+03</pdfrwt>
<pdfrwt beam="2">  1       -2 0.30644568E-01 0.43815085E+03</pdfrwt>
<totfact> 0.16213707E+03</totfact>
</mgrwt>
</event>
<event>
 4    1  0.1025337E-004  0.4416520E+03  0.7818608E-02  0.1030241E+00
         -2   -1    0    0    0  501 -0.00000000000E+00  0.00000000000E+00  0.86147750574E+02  0.86147750611E+02  0.25500000000E-02 0. -1.
          2   -1    0    0  501    0  0.00000000000E+00 -0.00000000000E+00 -0.56605223994E+03  0.56605223994E+03  0.25500000000E-02 0.  1.
    5000001    1    1    2    0    0  0.70725755716E+02 -0.11607611256E+03 -0.32168525804E+03  0.38624111857E+03  0.16500000000E+03 0.  0.
   -5000001    1    1    2    0    0 -0.70725755716E+02  0.11607611256E+03 -0.15821923132E+03  0.26595887199E+03  0.16500000000E+03 0.  0.
<mgrwt>
<rscale>  0 0.44165202E+03</rscale>
<asrwt>0</asrwt>
<pdfrwt beam="1">  1        2 0.80864603E-01 0.44165202E+03</pdfrwt>
<pdfrwt beam="2">  1       -2 0.12306822E-01 0.44165202E+03</pdfrwt>
<totfact> 0.28109762E+03</totfact>
</mgrwt>
</event>
<event>
 4    1  0.1025337E-004  0.4973316E+03  0.7818608E-02  0.1014478E+00
         -2   -1    0    0    0  501 -0.00000000000E+00  0.00000000000E+00  0.14279532128E+03  0.14279532130E+03  0.25500000000E-02 0. -1.
          2   -1    0    0  501    0  0.00000000000E+00 -0.00000000000E+00 -0.43303024009E+03  0.43303024010E+03  0.25500000000E-02 0.  1.
    5000001    1    1    2    0    0  0.21520163747E+02  0.18330117083E+03 -0.17220315200E+03  0.30156485577E+03  0.16500000000E+03 0.  0.
   -5000001    1    1    2    0    0 -0.21520163747E+02 -0.18330117083E+03 -0.11803176681E+03  0.27426070563E+03  0.16500000000E+03 0.  0.
<mgrwt>
<rscale>  0 0.49733165E+03</rscale>
<asrwt>0</asrwt>
<pdfrwt beam="1">  1        2 0.61861462E-01 0.49733165E+03</pdfrwt>
<pdfrwt beam="2">  1       -2 0.20399332E-01 0.49733165E+03</pdfrwt>
<totfact> 0.16240562E+03</totfact>
</mgrwt>
</event>
<event>
 4    1  0.1025337E-004  0.7621729E+03  0.7818608E-02  0.9616444E-01
         -2   -1    0    0    0  501 -0.00000000000E+00  0.00000000000E+00  0.98066458227E+02  0.98066458260E+02  0.25500000000E-02 0. -1.
          2   -1    0    0  501    0  0.00000000000E+00 -0.00000000000E+00 -0.14809026939E+04  0.14809026939E+04  0.25500000000E-02 0.  1.
    5000001    1    1    2    0    0 -0.20978306229E+03  0.20769434498E+03 -0.10553247849E+04  0.11081882853E+04  0.16500000000E+03 0.  0.
   -5000001    1    1    2    0    0  0.20978306229E+03 -0.20769434498E+03 -0.32751145074E+03  0.47078086678E+03  0.16500000000E+03 0.  0.
<mgrwt>
<rscale>  0 0.76217290E+03</rscale>
<asrwt>0</asrwt>
<pdfrwt beam="1">  1        2 0.21155751E+00 0.76217290E+03</pdfrwt>
<pdfrwt beam="2">  1       -2 0.14009495E-01 0.76217290E+03</pdfrwt>
<totfact> 0.59352730E+02</totfact>
</mgrwt>
</event>
<event>
 4    1  0.1025337E-004  0.9533658E+03  0.7818608E-02  0.9361225E-01
          2   -1    0    0  501    0  0.00000000000E+00  0.00000000000E+00  0.18972318173E+04  0.18972318173E+04  0.25500000000E-02 0.  1.
         -2   -1    0    0    0  501 -0.00000000000E+00 -0.00000000000E+00 -0.11976744084E+03  0.11976744087E+03  0.25500000000E-02 0. -1.
    5000001    1    1    2    0    0  0.27764941809E+03 -0.14359945040E+03  0.15653853879E+04  0.16047948199E+04  0.16500000000E+03 0.  0.
   -5000001    1    1    2    0    0 -0.27764941809E+03  0.14359945040E+03  0.21207898862E+03  0.41220443828E+03  0.16500000000E+03 0.  0.
<mgrwt>
<rscale>  0 0.95336583E+03</rscale>
<asrwt>0</asrwt>
<pdfrwt beam="1">  1        2 0.27103312E+00 0.95336583E+03</pdfrwt>
<pdfrwt beam="2">  1       -2 0.17109634E-01 0.95336583E+03</pdfrwt>
<totfact> 0.25471724E+02</totfact>
</mgrwt>
</event>
<event>
 4    1  0.1025337E-004  0.4432976E+03  0.7818608E-02  0.1029740E+00
          2   -1    0    0  501    0  0.00000000000E+00  0.00000000000E+00  0.58355401314E+03  0.58355401315E+03  0.25500000000E-02 0.  1.
         -2   -1    0    0    0  501 -0.00000000000E+00 -0.00000000000E+00 -0.84187906820E+02  0.84187906859E+02  0.25500000000E-02 0. -1.
    5000001    1    1    2    0    0 -0.60161311749E+02 -0.76139016712E+02  0.81362805522E+02  0.20799384467E+03  0.16500000000E+03 0.  0.
   -5000001    1    1    2    0    0  0.60161311749E+02  0.76139016712E+02  0.41800330080E+03  0.45974807534E+03  0.16500000000E+03 0.  0.
<mgrwt>
<rscale>  0 0.44329760E+03</rscale>
<asrwt>0</asrwt>
<pdfrwt beam="1">  1        2 0.83364861E-01 0.44329760E+03</pdfrwt>
<pdfrwt beam="2">  1       -2 0.12026844E-01 0.44329760E+03</pdfrwt>
<totfact> 0.28182148E+03</totfact>
</mgrwt>
</event>
<event>
 4    1  0.1025337E-004  0.1440894E+04  0.7818608E-02  0.8924738E-01
         -2   -1    0    0    0  501 -0.00000000000E+00  0.00000000000E+00  0.68393022067E+03  0.68393022068E+03  0.25500000000E-02 0. -1.
          2   -1    0    0  501    0  0.00000000000E+00 -0.00000000000E+00 -0.75891383552E+03  0.75891383553E+03  0.25500000000E-02 0.  1.
    5000001    1    1    2    0    0 -0.58757064245E+03  0.60211425310E+02 -0.41609657454E+03  0.74109785788E+03  0.16500000000E+03 0.  0.
   -5000001    1    1    2    0    0  0.58757064245E+03 -0.60211425310E+02  0.34111295969E+03  0.70174619833E+03  0.16500000000E+03 0.  0.
<mgrwt>
<rscale>  0 0.14408943E+04</rscale>
<asrwt>0</asrwt>
<pdfrwt beam="1">  1        2 0.10841626E+00 0.14408943E+04</pdfrwt>
<pdfrwt beam="2">  1       -2 0.97704317E-01 0.14408943E+04</pdfrwt>
<totfact> 0.34507446E+01</totfact>
</mgrwt>
</event>
<event>
 4    1  0.1025337E-004  0.5720532E+03  0.7818608E-02  0.9965145E-01
          2   -1    0    0  501    0  0.00000000000E+00  0.00000000000E+00  0.16012894385E+04  0.16012894385E+04  0.25500000000E-02 0.  1.
         -2   -1    0    0    0  501 -0.00000000000E+00 -0.00000000000E+00 -0.51090834545E+02  0.51090834609E+02  0.25500000000E-02 0. -1.
    5000001    1    1    2    0    0 -0.13893864575E+03 -0.18410611683E+03  0.88268233832E+03  0.92712033735E+03  0.16500000000E+03 0.  0.
   -5000001    1    1    2    0    0  0.13893864575E+03  0.18410611683E+03  0.66751626559E+03  0.72525993573E+03  0.16500000000E+03 0.  0.
<mgrwt>
<rscale>  0 0.57205319E+03</rscale>
<asrwt>0</asrwt>
<pdfrwt beam="1">  1        2 0.22875557E+00 0.57205319E+03</pdfrwt>
<pdfrwt beam="2">  1       -2 0.72986927E-02 0.57205319E+03</pdfrwt>
<totfact> 0.14970288E+03</totfact>
</mgrwt>
</event>
<event>
 4    1  0.1025337E-004  0.5865068E+03  0.7818608E-02  0.9933802E-01
          2   -1    0    0  501    0  0.00000000000E+00  0.00000000000E+00  0.63350193898E+03  0.63350193898E+03  0.25500000000E-02 0.  1.
         -2   -1    0    0    0  501 -0.00000000000E+00 -0.00000000000E+00 -0.13574947361E+03  0.13574947363E+03  0.25500000000E-02 0. -1.
    5000001    1    1    2    0    0  0.18228634143E+03  0.63732503598E+02  0.44111314438E+03  0.50901468390E+03  0.16500000000E+03 0.  0.
   -5000001    1    1    2    0    0 -0.18228634143E+03 -0.63732503598E+02  0.56639320995E+02  0.26023672871E+03  0.16500000000E+03 0.  0.
<mgrwt>
<rscale>  0 0.58650679E+03</rscale>
<asrwt>0</asrwt>
<pdfrwt beam="1">  1        2 0.90500278E-01 0.58650679E+03</pdfrwt>
<pdfrwt beam="2">  1       -2 0.19392782E-01 0.58650679E+03</pdfrwt>
<totfact> 0.11466985E+03</totfact>
</mgrwt>
</event>
<event>
 4    1  0.1025337E-004  0.4249615E+03  0.7818608E-02  0.1035464E+00
          2   -1    0    0  501    0  0.00000000000E+00  0.00000000000E+00  0.25689442455E+04  0.25689442455E+04  0.25500000000E-02 0.  1.
         -2   -1    0    0    0  501 -0.00000000000E+00 -0.00000000000E+00 -0.17574563787E+02  0.17574563972E+02  0.25500000000E-02 0. -1.
    5000001    1    1    2    0    0 -0.12352507592E+03 -0.44404341786E+02  0.11154722867E+04  0.11352240362E+04  0.16500000000E+03 0.  0.
   -5000001    1    1    2    0    0  0.12352507592E+03  0.44404341786E+02  0.14358973951E+04  0.14512947733E+04  0.16500000000E+03 0.  0.
<mgrwt>
<rscale>  0 0.42496153E+03</rscale>
<asrwt>0</asrwt>
<pdfrwt beam="1">  1        2 0.36699225E+00 0.42496153E+03</pdfrwt>
<pdfrwt beam="2">  1       -2 0.25106505E-02 0.42496153E+03</pdfrwt>
<totfact> 0.25307734E+03</totfact>
</mgrwt>
</event>
<event>
 4    1  0.1025337E-004  0.8079950E+03  0.7818608E-02  0.9548516E-01
          2   -1    0    0  501    0  0.00000000000E+00  0.00000000000E+00  0.37865298453E+04  0.37865298453E+04  0.25500000000E-02 0.  1.
         -2   -1    0    0    0  501 -0.00000000000E+00 -0.00000000000E+00 -0.43103837504E+02  0.43103837580E+02  0.25500000000E-02 0. -1.
    5000001    1    1    2    0    0  0.19402211263E+03 -0.30748256476E+03  0.15795836537E+04  0.16292635229E+04  0.16500000000E+03 0.  0.
   -5000001    1    1    2    0    0 -0.19402211263E+03  0.30748256476E+03  0.21638423541E+04  0.22003701601E+04  0.16500000000E+03 0.  0.
<mgrwt>
<rscale>  0 0.80799497E+03</rscale>
<asrwt>0</asrwt>
<pdfrwt beam="1">  1        2 0.54093256E+00 0.80799497E+03</pdfrwt>
<pdfrwt beam="2">  1       -2 0.61576942E-02 0.80799497E+03</pdfrwt>
<totfact> 0.12623392E+02</totfact>
</mgrwt>
</event>
<event>
 4    1  0.1025337E-004  0.7348764E+03  0.7818608E-02  0.9659380E-01
          2   -1    0    0  501    0  0.00000000000E+00  0.00000000000E+00  0.68653521236E+03  0.68653521237E+03  0.25500000000E-02 0.  1.
         -2   -1    0    0    0  501 -0.00000000000E+00 -0.00000000000E+00 -0.19665536606E+03  0.19665536608E+03  0.25500000000E-02 0. -1.
    5000001    1    1    2    0    0  0.14664480539E+03 -0.13340694785E+03 -0.69569597526E+02  0.26714610531E+03  0.16500000000E+03 0.  0.
   -5000001    1    1    2    0    0 -0.14664480539E+03  0.13340694785E+03  0.55944944383E+03  0.61604447314E+03  0.16500000000E+03 0.  0.
<mgrwt>
<rscale>  0 0.73487641E+03</rscale>
<asrwt>0</asrwt>
<pdfrwt beam="1">  1        2 0.98076458E-01 0.73487641E+03</pdfrwt>
<pdfrwt beam="2">  1       -2 0.28093624E-01 0.73487641E+03</pdfrwt>
<totfact> 0.53583815E+02</totfact>
</mgrwt>
</event>
<event>
 4    1  0.1025337E-004  0.8601788E+03  0.7818608E-02  0.9476776E-01
          2   -1    0    0  501    0  0.00000000000E+00  0.00000000000E+00  0.26446255005E+04  0.26446255005E+04  0.25500000000E-02 0.  1.
         -2   -1    0    0    0  501 -0.00000000000E+00 -0.00000000000E+00 -0.69944452053E+02  0.69944452099E+02  0.25500000000E-02 0. -1.
    5000001    1    1    2    0    0  0.30587588810E+03  0.25178624997E+03  0.11983314441E+04  0.12728627674E+04  0.16500000000E+03 0.  0.
   -5000001    1    1    2    0    0 -0.30587588810E+03 -0.25178624997E+03  0.13763496043E+04  0.14417071852E+04  0.16500000000E+03 0.  0.
<mgrwt>
<rscale>  0 0.86017878E+03</rscale>
<asrwt>0</asrwt>
<pdfrwt beam="1">  1        2 0.37780368E+00 0.86017878E+03</pdfrwt>
<pdfrwt beam="2">  1       -2 0.99920636E-02 0.86017878E+03</pdfrwt>
<totfact> 0.26051440E+02</totfact>
</mgrwt>
</event>
<event>
 4    1  0.1025337E-004  0.3917319E+03  0.7818608E-02  0.1046681E+00
          2   -1    0    0  501    0  0.00000000000E+00  0.00000000000E+00  0.99239009508E+03  0.99239009508E+03  0.25500000000E-02 0.  1.
         -2   -1    0    0    0  501 -0.00000000000E+00 -0.00000000000E+00 -0.38657650520E+02  0.38657650605E+02  0.25500000000E-02 0. -1.
    5000001    1    1    2    0    0 -0.24569897638E+02  0.87803196738E+02  0.33696261467E+03  0.38611123386E+03  0.16500000000E+03 0.  0.
   -5000001    1    1    2    0    0  0.24569897638E+02 -0.87803196738E+02  0.61676982989E+03  0.64493651183E+03  0.16500000000E+03 0.  0.
<mgrwt>
<rscale>  0 0.39173190E+03</rscale>
<asrwt>0</asrwt>
<pdfrwt beam="1">  1        2 0.14177002E+00 0.39173190E+03</pdfrwt>
<pdfrwt beam="2">  1       -2 0.55225211E-02 0.39173190E+03</pdfrwt>
<totfact> 0.49778010E+03</totfact>
</mgrwt>
</event>
<event>
 4    1  0.1025337E-004  0.4172566E+03  0.7818608E-02  0.1037963E+00
         -2   -1    0    0    0  501 -0.00000000000E+00  0.00000000000E+00  0.16489368121E+02  0.16489368318E+02  0.25500000000E-02 0. -1.
          2   -1    0    0  501    0  0.00000000000E+00 -0.00000000000E+00 -0.26396259101E+04  0.26396259101E+04  0.25500000000E-02 0.  1.
    5000001    1    1    2    0    0 -0.10390482740E+03  0.52574974668E+02 -0.97833183164E+03  0.99895871482E+03  0.16500000000E+03 0.  0.
   -5000001    1    1    2    0    0  0.10390482740E+03 -0.52574974668E+02 -0.16448047103E+04  0.16571565636E+04  0.16500000000E+03 0.  0.
<mgrwt>
<rscale>  0 0.41725658E+03</rscale>
<asrwt>0</asrwt>
<pdfrwt beam="1">  1        2 0.37708915E+00 0.41725658E+03</pdfrwt>
<pdfrwt beam="2">  1       -2 0.23556257E-02 0.41725658E+03</pdfrwt>
<totfact> 0.25627590E+03</totfact>
</mgrwt>
</event>
<event>
 4    1  0.1025337E-004  0.4484707E+03  0.7818608E-02  0.1028179E+00
          2   -1    0    0  501    0  0.00000000000E+00  0.00000000000E+00  0.10932316358E+04  0.10932316358E+04  0.25500000000E-02 0.  1.
         -2   -1    0    0    0  501 -0.00000000000E+00 -0.00000000000E+00 -0.45993449531E+02  0.45993449602E+02  0.25500000000E-02 0. -1.
    5000001    1    1    2    0    0  0.11470830698E+03  0.99194521983E+02  0.54312201896E+03  0.58754070187E+03  0.16500000000E+03 0.  0.
   -5000001    1    1    2    0    0 -0.11470830698E+03 -0.99194521983E+02  0.50411616727E+03  0.55168438349E+03  0.16500000000E+03 0.  0.
<mgrwt>
<rscale>  0 0.44847071E+03</rscale>
<asrwt>0</asrwt>
<pdfrwt beam="1">  1        2 0.15617596E+00 0.44847071E+03</pdfrwt>
<pdfrwt beam="2">  1       -2 0.65704923E-02 0.44847071E+03</pdfrwt>
<totfact> 0.33193069E+03</totfact>
</mgrwt>
</event>
<event>
 4    1  0.1025337E-004  0.1098596E+04  0.7818608E-02  0.9206561E-01
         -2   -1    0    0    0  501 -0.00000000000E+00  0.00000000000E+00  0.30283613805E+03  0.30283613807E+03  0.25500000000E-02 0. -1.
          2   -1    0    0  501    0  0.00000000000E+00 -0.00000000000E+00 -0.99634234322E+03  0.99634234322E+03  0.25500000000E-02 0.  1.
    5000001    1    1    2    0    0 -0.49047516020E+03  0.10420559438E+03 -0.52640718533E+03  0.74548924435E+03  0.16500000000E+03 0.  0.
   -5000001    1    1    2    0    0  0.49047516020E+03 -0.10420559438E+03 -0.16709901983E+03  0.55368923694E+03  0.16500000000E+03 0.  0.
<mgrwt>
<rscale>  0 0.10985963E+04</rscale>
<asrwt>0</asrwt>
<pdfrwt beam="1">  1        2 0.14233462E+00 0.10985963E+04</pdfrwt>
<pdfrwt beam="2">  1       -2 0.43262306E-01 0.10985963E+04</pdfrwt>
<totfact> 0.14189494E+02</totfact>
</mgrwt>
</event>
<event>
 4    1  0.1025337E-004  0.5040531E+03  0.7818608E-02  0.1012726E+00
          2   -1    0    0  501    0  0.00000000000E+00  0.00000000000E+00  0.35847188080E+03  0.35847188080E+03  0.25500000000E-02 0.  1.
         -2   -1    0    0    0  501 -0.00000000000E+00 -0.00000000000E+00 -0.17718930169E+03  0.17718930171E+03  0.25500000000E-02 0. -1.
    5000001    1    1    2    0    0 -0.15550062497E+03 -0.71059202909E+02  0.13325495417E+01  0.23760604027E+03  0.16500000000E+03 0.  0.
   -5000001    1    1    2    0    0  0.15550062497E+03  0.71059202909E+02  0.17995002956E+03  0.29805514225E+03  0.16500000000E+03 0.  0.
<mgrwt>
<rscale>  0 0.50405310E+03</rscale>
<asrwt>0</asrwt>
<pdfrwt beam="1">  1        2 0.51210270E-01 0.50405310E+03</pdfrwt>
<pdfrwt beam="2">  1       -2 0.25312757E-01 0.50405310E+03</pdfrwt>
<totfact> 0.13673594E+03</totfact>
</mgrwt>
</event>
<event>
 4    1  0.1025337E-004  0.4054657E+03  0.7818608E-02  0.1041903E+00
          2   -1    0    0  501    0  0.00000000000E+00  0.00000000000E+00  0.27201273231E+04  0.27201273231E+04  0.25500000000E-02 0.  1.
         -2   -1    0    0    0  501 -0.00000000000E+00 -0.00000000000E+00 -0.15109810437E+02  0.15109810652E+02  0.25500000000E-02 0. -1.
    5000001    1    1    2    0    0 -0.39902286611E+02  0.10631754418E+03  0.15636888494E+04  0.15764654866E+04  0.16500000000E+03 0.  0.
   -5000001    1    1    2    0    0  0.39902286611E+02 -0.10631754418E+03  0.11413286632E+04  0.11587716471E+04  0.16500000000E+03 0.  0.
<mgrwt>
<rscale>  0 0.40546570E+03</rscale>
<asrwt>0</asrwt>
<pdfrwt beam="1">  1        2 0.38858973E+00 0.40546570E+03</pdfrwt>
<pdfrwt beam="2">  1       -2 0.21585438E-02 0.40546570E+03</pdfrwt>
<totfact> 0.26556974E+03</totfact>
</mgrwt>
</event>
<event>
 4    1  0.1025337E-004  0.4821952E+03  0.7818608E-02  0.1018534E+00
         -2   -1    0    0    0  501 -0.00000000000E+00  0.00000000000E+00  0.93775425232E+02  0.93775425266E+02  0.25500000000E-02 0. -1.
          2   -1    0    0  501    0  0.00000000000E+00 -0.00000000000E+00 -0.61986444577E+03  0.61986444577E+03  0.25500000000E-02 0.  1.
    5000001    1    1    2    0    0  0.16579059683E+03  0.26119273128E+02 -0.18565530526E+03  0.29976929595E+03  0.16500000000E+03 0.  0.
   -5000001    1    1    2    0    0 -0.16579059683E+03 -0.26119273128E+02 -0.34043371527E+03  0.41387057508E+03  0.16500000000E+03 0.  0.
<mgrwt>
<rscale>  0 0.48219520E+03</rscale>
<asrwt>0</asrwt>
<pdfrwt beam="1">  1        2 0.88552061E-01 0.48219520E+03</pdfrwt>
<pdfrwt beam="2">  1       -2 0.13396490E-01 0.48219520E+03</pdfrwt>
<totfact> 0.22011694E+03</totfact>
</mgrwt>
</event>
<event>
 4    1  0.1025337E-004  0.8872861E+03  0.7818608E-02  0.9441615E-01
          2   -1    0    0  501    0  0.00000000000E+00  0.00000000000E+00  0.14497881601E+04  0.14497881601E+04  0.25500000000E-02 0. -1.
         -2   -1    0    0    0  501 -0.00000000000E+00 -0.00000000000E+00 -0.13575718986E+03  0.13575718988E+03  0.25500000000E-02 0.  1.
    5000001    1    1    2    0    0  0.75020064338E+02  0.30780585641E+03  0.11271651643E+04  0.11824122643E+04  0.16500000000E+03 0.  0.
   -5000001    1    1    2    0    0 -0.75020064338E+02 -0.30780585641E+03  0.18686580595E+03  0.40313308563E+03  0.16500000000E+03 0.  0.
<mgrwt>
<rscale>  0 0.88728612E+03</rscale>
<asrwt>0</asrwt>
<pdfrwt beam="1">  1        2 0.20711259E+00 0.88728612E+03</pdfrwt>
<pdfrwt beam="2">  1       -2 0.19393885E-01 0.88728612E+03</pdfrwt>
<totfact> 0.35110370E+02</totfact>
</mgrwt>
</event>
<event>
 4    1  0.1025337E-004  0.3988226E+03  0.7818608E-02  0.1044188E+00
         -2   -1    0    0    0  501 -0.00000000000E+00  0.00000000000E+00  0.26046273366E+03  0.26046273367E+03  0.25500000000E-02 0.  1.
          2   -1    0    0  501    0  0.00000000000E+00 -0.00000000000E+00 -0.15267009184E+03  0.15267009186E+03  0.25500000000E-02 0. -1.
    5000001    1    1    2    0    0 -0.10817913008E+03  0.28142377809E+02  0.60856938144E+02  0.20838254374E+03  0.16500000000E+03 0.  0.
   -5000001    1    1    2    0    0  0.10817913008E+03 -0.28142377809E+02  0.46935703679E+02  0.20475028179E+03  0.16500000000E+03 0.  0.
<mgrwt>
<rscale>  0 0.39882261E+03</rscale>
<asrwt>0</asrwt>
<pdfrwt beam="1">  1        2 0.21810013E-01 0.39882261E+03</pdfrwt>
<pdfrwt beam="2">  1       -2 0.37208961E-01 0.39882261E+03</pdfrwt>
<totfact> 0.17328045E+03</totfact>
</mgrwt>
</event>
<event>
 4    1  0.1025337E-004  0.3746589E+03  0.7818608E-02  0.1052926E+00
         -2   -1    0    0    0  501 -0.00000000000E+00  0.00000000000E+00  0.16849748998E+03  0.16849749000E+03  0.25500000000E-02 0. -1.
          2   -1    0    0  501    0  0.00000000000E+00 -0.00000000000E+00 -0.20826610065E+03  0.20826610067E+03  0.25500000000E-02 0.  1.
    5000001    1    1    2    0    0 -0.17875319999E+02 -0.83441257555E+02 -0.44214117799E+02  0.19094988542E+03  0.16500000000E+03 0.  0.
   -5000001    1    1    2    0    0  0.17875319999E+02  0.83441257555E+02  0.44455071279E+01  0.18581370526E+03  0.16500000000E+03 0.  0.
<mgrwt>
<rscale>  0 0.37465886E+03</rscale>
<asrwt>0</asrwt>
<pdfrwt beam="1">  1        2 0.29752300E-01 0.37465886E+03</pdfrwt>
<pdfrwt beam="2">  1       -2 0.24071070E-01 0.37465886E+03</pdfrwt>
<totfact> 0.27073787E+03</totfact>
</mgrwt>
</event>
<event>
 4    1  0.1025337E-004  0.5034438E+03  0.7818608E-02  0.1012884E+00
         -2   -1    0    0    0  501 -0.00000000000E+00  0.00000000000E+00  0.12046995599E+04  0.12046995599E+04  0.25500000000E-02 0. -1.
          2   -1    0    0  501    0  0.00000000000E+00 -0.00000000000E+00 -0.52597284047E+02  0.52597284108E+02  0.25500000000E-02 0.  1.
    5000001    1    1    2    0    0 -0.65708496558E+02 -0.13913064318E+03  0.85486554488E+03  0.88413519454E+03  0.16500000000E+03 0.  0.
   -5000001    1    1    2    0    0  0.65708496558E+02  0.13913064318E+03  0.29723673093E+03  0.37316164943E+03  0.16500000000E+03 0.  0.
<mgrwt>
<rscale>  0 0.50344384E+03</rscale>
<asrwt>0</asrwt>
<pdfrwt beam="1">  1        2 0.75138974E-02 0.50344384E+03</pdfrwt>
<pdfrwt beam="2">  1       -2 0.17209995E+00 0.50344384E+03</pdfrwt>
<totfact> 0.20225375E+02</totfact>
</mgrwt>
</event>
<event>
 4    1  0.1025337E-004  0.3953401E+03  0.7818608E-02  0.1045405E+00
          2   -1    0    0  501    0  0.00000000000E+00  0.00000000000E+00  0.66336438330E+03  0.66336438330E+03  0.25500000000E-02 0.  1.
         -2   -1    0    0    0  501 -0.00000000000E+00 -0.00000000000E+00 -0.58901928320E+02  0.58901928375E+02  0.25500000000E-02 0. -1.
    5000001    1    1    2    0    0 -0.98180126052E+02  0.46180572687E+02  0.31820621928E+03  0.37450257734E+03  0.16500000000E+03 0.  0.
   -5000001    1    1    2    0    0  0.98180126052E+02 -0.46180572687E+02  0.28625623570E+03  0.34776373434E+03  0.16500000000E+03 0.  0.
<mgrwt>
<rscale>  0 0.39534006E+03</rscale>
<asrwt>0</asrwt>
<pdfrwt beam="1">  1        2 0.94766333E-01 0.39534006E+03</pdfrwt>
<pdfrwt beam="2">  1       -2 0.84145618E-02 0.39534006E+03</pdfrwt>
<totfact> 0.43005151E+03</totfact>
</mgrwt>
</event>
<event>
 4    1  0.1025337E-004  0.5028917E+03  0.7818608E-02  0.1013027E+00
         -2   -1    0    0    0  501 -0.00000000000E+00  0.00000000000E+00  0.29650123899E+02  0.29650124009E+02  0.25500000000E-02 0. -1.
          2   -1    0    0  501    0  0.00000000000E+00 -0.00000000000E+00 -0.21323694563E+04  0.21323694563E+04  0.25500000000E-02 0.  1.
    5000001    1    1    2    0    0 -0.16062448518E+03 -0.96668364253E+02 -0.92564860658E+03  0.95874675527E+03  0.16500000000E+03 0.  0.
   -5000001    1    1    2    0    0  0.16062448518E+03  0.96668364253E+02 -0.11770707258E+04  0.12032728251E+04  0.16500000000E+03 0.  0.
<mgrwt>
<rscale>  0 0.50289171E+03</rscale>
<asrwt>0</asrwt>
<pdfrwt beam="1">  1        2 0.30462411E+00 0.50289171E+03</pdfrwt>
<pdfrwt beam="2">  1       -2 0.42357333E-02 0.50289171E+03</pdfrwt>
<totfact> 0.18930004E+03</totfact>
</mgrwt>
</event>
<event>
 4    1  0.1025337E-004  0.7877560E+03  0.7818608E-02  0.9577911E-01
          2   -1    0    0  501    0  0.00000000000E+00  0.00000000000E+00  0.11589438867E+04  0.11589438867E+04  0.25500000000E-02 0.  1.
         -2   -1    0    0    0  501 -0.00000000000E+00 -0.00000000000E+00 -0.13386315753E+03  0.13386315756E+03  0.25500000000E-02 0. -1.
    5000001    1    1    2    0    0  0.61063650479E+02 -0.20421129855E+03  0.41208852512E+02  0.27267965342E+03  0.16500000000E+03 0.  0.
   -5000001    1    1    2    0    0 -0.61063650479E+02  0.20421129855E+03  0.98387187666E+03  0.10201273908E+04  0.16500000000E+03 0.  0.
<mgrwt>
<rscale>  0 0.78775602E+03</rscale>
<asrwt>0</asrwt>
<pdfrwt beam="1">  1        2 0.16556341E+00 0.78775602E+03</pdfrwt>
<pdfrwt beam="2">  1       -2 0.19123309E-01 0.78775602E+03</pdfrwt>
<totfact> 0.52277693E+02</totfact>
</mgrwt>
</event>
<event>
 4    1  0.1025337E-004  0.1350192E+04  0.7818608E-02  0.8990682E-01
         -2   -1    0    0    0  501 -0.00000000000E+00  0.00000000000E+00  0.10698845995E+04  0.10698845995E+04  0.25500000000E-02 0. -1.
          2   -1    0    0  501    0  0.00000000000E+00 -0.00000000000E+00 -0.42598509214E+03  0.42598509215E+03  0.25500000000E-02 0.  1.
    5000001    1    1    2    0    0 -0.61221110978E+03  0.96659806254E+02  0.55535624289E+03  0.84840504336E+03  0.16500000000E+03 0.  0.
   -5000001    1    1    2    0    0  0.61221110978E+03 -0.96659806254E+02  0.88543264440E+02  0.64746464827E+03  0.16500000000E+03 0.  0.
<mgrwt>
<rscale>  0 0.13501924E+04</rscale>
<asrwt>0</asrwt>
<pdfrwt beam="1">  1        2 0.60855013E-01 0.13501924E+04</pdfrwt>
<pdfrwt beam="2">  1       -2 0.15284066E+00 0.13501924E+04</pdfrwt>
<totfact> 0.22443409E+01</totfact>
</mgrwt>
</event>
<event>
 4    1  0.1025337E-004  0.5650732E+03  0.7818608E-02  0.9980641E-01
          2   -1    0    0  501    0  0.00000000000E+00  0.00000000000E+00  0.55674495643E+03  0.55674495643E+03  0.25500000000E-02 0.  1.
         -2   -1    0    0    0  501 -0.00000000000E+00 -0.00000000000E+00 -0.14338151709E+03  0.14338151711E+03  0.25500000000E-02 0. -1.
    5000001    1    1    2    0    0 -0.75835666448E+02 -0.21275393817E+03  0.15732885817E+03  0.32092468918E+03  0.16500000000E+03 0.  0.
   -5000001    1    1    2    0    0  0.75835666448E+02  0.21275393817E+03  0.25603458117E+03  0.37920178436E+03  0.16500000000E+03 0.  0.
<mgrwt>
<rscale>  0 0.56507322E+03</rscale>
<asrwt>0</asrwt>
<pdfrwt beam="1">  1        2 0.79534991E-01 0.56507322E+03</pdfrwt>
<pdfrwt beam="2">  1       -2 0.20483074E-01 0.56507322E+03</pdfrwt>
<totfact> 0.12133569E+03</totfact>
</mgrwt>
</event>
<event>
 4    1  0.1025337E-004  0.5193594E+03  0.7818608E-02  0.1008846E+00
         -2   -1    0    0    0  501 -0.00000000000E+00  0.00000000000E+00  0.22436458152E+03  0.22436458153E+03  0.25500000000E-02 0. -1.
          2   -1    0    0  501    0  0.00000000000E+00 -0.00000000000E+00 -0.30055338337E+03  0.30055338338E+03  0.25500000000E-02 0.  1.
    5000001    1    1    2    0    0 -0.11558900044E+03 -0.15267667071E+03  0.22019491906E+02  0.25373379914E+03  0.16500000000E+03 0.  0.
   -5000001    1    1    2    0    0  0.11558900044E+03  0.15267667071E+03 -0.98208293755E+02  0.27118416577E+03  0.16500000000E+03 0.  0.
<mgrwt>
<rscale>  0 0.51935935E+03</rscale>
<asrwt>0</asrwt>
<pdfrwt beam="1">  1        2 0.42936197E-01 0.51935935E+03</pdfrwt>
<pdfrwt beam="2">  1       -2 0.32052083E-01 0.51935935E+03</pdfrwt>
<totfact> 0.10783759E+03</totfact>
</mgrwt>
</event>
<event>
 4    1  0.1025337E-004  0.4566080E+03  0.7818608E-02  0.1025770E+00
         -2   -1    0    0    0  501 -0.00000000000E+00  0.00000000000E+00  0.36961782319E+02  0.36961782407E+02  0.25500000000E-02 0.  1.
          2   -1    0    0  501    0  0.00000000000E+00 -0.00000000000E+00 -0.14101784027E+04  0.14101784027E+04  0.25500000000E-02 0. -1.
    5000001    1    1    2    0    0  0.15566514171E+03 -0.16108792360E+02 -0.75051390664E+03  0.78421123021E+03  0.16500000000E+03 0.  0.
   -5000001    1    1    2    0    0 -0.15566514171E+03  0.16108792360E+02 -0.62270271369E+03  0.66292895485E+03  0.16500000000E+03 0.  0.
<mgrwt>
<rscale>  0 0.45660796E+03</rscale>
<asrwt>0</asrwt>
<pdfrwt beam="1">  1        2 0.20145402E+00 0.45660796E+03</pdfrwt>
<pdfrwt beam="2">  1       -2 0.52802555E-02 0.45660796E+03</pdfrwt>
<totfact> 0.31273783E+03</totfact>
</mgrwt>
</event>
<event>
 4    1  0.1025337E-004  0.4937259E+03  0.7818608E-02  0.1015430E+00
         -2   -1    0    0    0  501 -0.00000000000E+00  0.00000000000E+00  0.30773152253E+03  0.30773152254E+03  0.25500000000E-02 0. -1.
          2   -1    0    0  501    0  0.00000000000E+00 -0.00000000000E+00 -0.19803404665E+03  0.19803404667E+03  0.25500000000E-02 0.  1.
    5000001    1    1    2    0    0 -0.12290069618E+03  0.58613645649E+02  0.18104443557E+03  0.28025386389E+03  0.16500000000E+03 0.  0.
   -5000001    1    1    2    0    0  0.12290069618E+03 -0.58613645649E+02 -0.71346959694E+02  0.22551170532E+03  0.16500000000E+03 0.  0.
<mgrwt>
<rscale>  0 0.49372591E+03</rscale>
<asrwt>0</asrwt>
<pdfrwt beam="1">  1        2 0.28290578E-01 0.49372591E+03</pdfrwt>
<pdfrwt beam="2">  1       -2 0.43961646E-01 0.49372591E+03</pdfrwt>
<totfact> 0.93563165E+02</totfact>
</mgrwt>
</event>
<event>
 4    1  0.1025337E-004  0.4842343E+03  0.7818608E-02  0.1017978E+00
          2   -1    0    0  501    0  0.00000000000E+00  0.00000000000E+00  0.47100147154E+03  0.47100147155E+03  0.25500000000E-02 0.  1.
         -2   -1    0    0    0  501 -0.00000000000E+00 -0.00000000000E+00 -0.12445973101E+03  0.12445973103E+03  0.25500000000E-02 0. -1.
    5000001    1    1    2    0    0 -0.70649778206E+02  0.15889264517E+03  0.13143493110E+03  0.27338325655E+03  0.16500000000E+03 0.  0.
   -5000001    1    1    2    0    0  0.70649778206E+02 -0.15889264517E+03  0.21510680944E+03  0.32207794603E+03  0.16500000000E+03 0.  0.
<mgrwt>
<rscale>  0 0.48423431E+03</rscale>
<asrwt>0</asrwt>
<pdfrwt beam="1">  1        2 0.67285924E-01 0.48423431E+03</pdfrwt>
<pdfrwt beam="2">  1       -2 0.17779962E-01 0.48423431E+03</pdfrwt>
<totfact> 0.18735027E+03</totfact>
</mgrwt>
</event>
<event>
 4    1  0.1025337E-004  0.5241282E+03  0.7818608E-02  0.1007666E+00
         -2   -1    0    0    0  501 -0.00000000000E+00  0.00000000000E+00  0.25294316761E+02  0.25294316889E+02  0.25500000000E-02 0. -1.
          2   -1    0    0  501    0  0.00000000000E+00 -0.00000000000E+00 -0.27151388724E+04  0.27151388724E+04  0.25500000000E-02 0.  1.
    5000001    1    1    2    0    0  0.41009795652E+02  0.15701471821E+03 -0.70206169860E+03  0.73922327731E+03  0.16500000000E+03 0.  0.
   -5000001    1    1    2    0    0 -0.41009795652E+02 -0.15701471821E+03 -0.19877828570E+04  0.20012099119E+04  0.16500000000E+03 0.  0.
<mgrwt>
<rscale>  0 0.52412816E+03</rscale>
<asrwt>0</asrwt>
<pdfrwt beam="1">  1        2 0.38787680E+00 0.52412816E+03</pdfrwt>
<pdfrwt beam="2">  1       -2 0.36134755E-02 0.52412816E+03</pdfrwt>
<totfact> 0.12182313E+03</totfact>
</mgrwt>
</event>
<event>
 4    1  0.1025337E-004  0.5531983E+03  0.7818608E-02  0.1000756E+00
         -2   -1    0    0    0  501 -0.00000000000E+00  0.00000000000E+00  0.34595551696E+03  0.34595551697E+03  0.25500000000E-02 0. -1.
          2   -1    0    0  501    0  0.00000000000E+00 -0.00000000000E+00 -0.22114714891E+03  0.22114714893E+03  0.25500000000E-02 0.  1.
    5000001    1    1    2    0    0  0.48845482660E+02 -0.19535024513E+03 -0.33403278495E+02  0.26246595677E+03  0.16500000000E+03 0.  0.
   -5000001    1    1    2    0    0 -0.48845482660E+02  0.19535024513E+03  0.15821164654E+03  0.30463670913E+03  0.16500000000E+03 0.  0.
<mgrwt>
<rscale>  0 0.55319825E+03</rscale>
<asrwt>0</asrwt>
<pdfrwt beam="1">  1        2 0.31592450E-01 0.55319825E+03</pdfrwt>
<pdfrwt beam="2">  1       -2 0.49422217E-01 0.55319825E+03</pdfrwt>
<totfact> 0.65451990E+02</totfact>
</mgrwt>
</event>
<event>
 4    1  0.1025337E-004  0.6240633E+03  0.7818608E-02  0.9856703E-01
          2   -1    0    0  501    0  0.00000000000E+00  0.00000000000E+00  0.15334725179E+04  0.15334725179E+04  0.25500000000E-02 0.  1.
         -2   -1    0    0    0  501 -0.00000000000E+00 -0.00000000000E+00 -0.63492341200E+02  0.63492341251E+02  0.25500000000E-02 0. -1.
    5000001    1    1    2    0    0  0.21709377611E+03  0.13208976622E+03  0.54415568644E+03  0.62282246672E+03  0.16500000000E+03 0.  0.
   -5000001    1    1    2    0    0 -0.21709377611E+03 -0.13208976622E+03  0.92582449025E+03  0.97414239243E+03  0.16500000000E+03 0.  0.
<mgrwt>
<rscale>  0 0.62406333E+03</rscale>
<asrwt>0</asrwt>
<pdfrwt beam="1">  1        2 0.21906750E+00 0.62406333E+03</pdfrwt>
<pdfrwt beam="2">  1       -2 0.90703346E-02 0.62406333E+03</pdfrwt>
<totfact> 0.11448740E+03</totfact>
</mgrwt>
</event>
<event>
 4    1  0.1025337E-004  0.7371718E+03  0.7818608E-02  0.9655694E-01
         -2   -1    0    0    0  501 -0.00000000000E+00  0.00000000000E+00  0.48402357961E+03  0.48402357961E+03  0.25500000000E-02 0. -1.
          2   -1    0    0  501    0  0.00000000000E+00 -0.00000000000E+00 -0.28067962840E+03  0.28067962841E+03  0.25500000000E-02 0.  1.
    5000001    1    1    2    0    0 -0.17077749666E+03 -0.26699628224E+03  0.78588860244E+01  0.35740555421E+03  0.16500000000E+03 0.  0.
   -5000001    1    1    2    0    0  0.17077749666E+03  0.26699628224E+03  0.19548506518E+03  0.40729765381E+03  0.16500000000E+03 0.  0.
<mgrwt>
<rscale>  0 0.73717178E+03</rscale>
<asrwt>0</asrwt>
<pdfrwt beam="1">  1        2 0.40097090E-01 0.73717178E+03</pdfrwt>
<pdfrwt beam="2">  1       -2 0.69146226E-01 0.73717178E+03</pdfrwt>
<totfact> 0.24739884E+02</totfact>
</mgrwt>
</event>
<event>
 4    1  0.1025337E-004  0.4951375E+03  0.7818608E-02  0.1015056E+00
         -2   -1    0    0    0  501 -0.00000000000E+00  0.00000000000E+00  0.11447850290E+03  0.11447850293E+03  0.25500000000E-02 0. -1.
          2   -1    0    0  501    0  0.00000000000E+00 -0.00000000000E+00 -0.53538692341E+03  0.53538692341E+03  0.25500000000E-02 0.  1.
    5000001    1    1    2    0    0  0.16513988242E+03 -0.80547475595E+02 -0.18748679339E+03  0.31005705005E+03  0.16500000000E+03 0.  0.
   -5000001    1    1    2    0    0 -0.16513988242E+03  0.80547475595E+02 -0.23342162712E+03  0.33980837629E+03  0.16500000000E+03 0.  0.
<mgrwt>
<rscale>  0 0.49513753E+03</rscale>
<asrwt>0</asrwt>
<pdfrwt beam="1">  1        2 0.76483845E-01 0.49513753E+03</pdfrwt>
<pdfrwt beam="2">  1       -2 0.16354072E-01 0.49513753E+03</pdfrwt>
<totfact> 0.18683672E+03</totfact>
</mgrwt>
</event>
<event>
 4    1  0.1025337E-004  0.4763583E+03  0.7818608E-02  0.1020141E+00
          2   -1    0    0  501    0  0.00000000000E+00  0.00000000000E+00  0.11290907190E+04  0.11290907190E+04  0.25500000000E-02 0.  1.
         -2   -1    0    0    0  501 -0.00000000000E+00 -0.00000000000E+00 -0.50243364056E+02  0.50243364121E+02  0.25500000000E-02 0. -1.
    5000001    1    1    2    0    0  0.12522938260E+03  0.97140472549E+02  0.37547048124E+03  0.43968369535E+03  0.16500000000E+03 0.  0.
   -5000001    1    1    2    0    0 -0.12522938260E+03 -0.97140472549E+02  0.70337687368E+03  0.73965038776E+03  0.16500000000E+03 0.  0.
<mgrwt>
<rscale>  0 0.47635834E+03</rscale>
<asrwt>0</asrwt>
<pdfrwt beam="1">  1        2 0.16129869E+00 0.47635834E+03</pdfrwt>
<pdfrwt beam="2">  1       -2 0.71776229E-02 0.47635834E+03</pdfrwt>
<totfact> 0.27563483E+03</totfact>
</mgrwt>
</event>
<event>
 4    1  0.1025337E-004  0.8353844E+03  0.7818608E-02  0.9510166E-01
         -2   -1    0    0    0  501 -0.00000000000E+00  0.00000000000E+00  0.66827210696E+02  0.66827210745E+02  0.25500000000E-02 0. -1.
          2   -1    0    0  501    0  0.00000000000E+00 -0.00000000000E+00 -0.26107148360E+04  0.26107148360E+04  0.25500000000E-02 0.  1.
    5000001    1    1    2    0    0 -0.37825099568E+03  0.53234309581E+02 -0.11548749637E+04  0.12275458807E+04  0.16500000000E+03 0.  0.
   -5000001    1    1    2    0    0  0.37825099568E+03 -0.53234309581E+02 -0.13890126616E+04  0.14499961660E+04  0.16500000000E+03 0.  0.
<mgrwt>
<rscale>  0 0.83538444E+03</rscale>
<asrwt>0</asrwt>
<pdfrwt beam="1">  1        2 0.37295920E+00 0.83538444E+03</pdfrwt>
<pdfrwt beam="2">  1       -2 0.95467461E-02 0.83538444E+03</pdfrwt>
<totfact> 0.29293761E+02</totfact>
</mgrwt>
</event>
<event>
 4    1  0.1025337E-004  0.6070607E+03  0.7818608E-02  0.9890865E-01
          2   -1    0    0  501    0  0.00000000000E+00  0.00000000000E+00  0.18596947508E+04  0.18596947508E+04  0.25500000000E-02 0.  1.
         -2   -1    0    0    0  501 -0.00000000000E+00 -0.00000000000E+00 -0.49540751131E+02  0.49540751196E+02  0.25500000000E-02 0. -1.
    5000001    1    1    2    0    0 -0.18781793535E+03  0.15284013574E+03  0.11541122570E+04  0.11907290983E+04  0.16500000000E+03 0.  0.
   -5000001    1    1    2    0    0  0.18781793535E+03 -0.15284013574E+03  0.65604174267E+03  0.71850640363E+03  0.16500000000E+03 0.  0.
<mgrwt>
<rscale>  0 0.60706071E+03</rscale>
<asrwt>0</asrwt>
<pdfrwt beam="1">  1        2 0.26567067E+00 0.60706071E+03</pdfrwt>
<pdfrwt beam="2">  1       -2 0.70772505E-02 0.60706071E+03</pdfrwt>
<totfact> 0.11603872E+03</totfact>
</mgrwt>
</event>
<event>
 4    1  0.1025337E-004  0.4407679E+03  0.7818608E-02  0.1030511E+00
         -2   -1    0    0    0  501 -0.00000000000E+00  0.00000000000E+00  0.38282211153E+02  0.38282211238E+02  0.25500000000E-02 0. -1.
          2   -1    0    0  501    0  0.00000000000E+00 -0.00000000000E+00 -0.12687115415E+04  0.12687115415E+04  0.25500000000E-02 0.  1.
    5000001    1    1    2    0    0  0.22153240917E+02 -0.14415513192E+03 -0.64048301319E+03  0.67728499048E+03  0.16500000000E+03 0.  0.
   -5000001    1    1    2    0    0 -0.22153240917E+02  0.14415513192E+03 -0.58994631712E+03  0.62970876223E+03  0.16500000000E+03 0.  0.
<mgrwt>
<rscale>  0 0.44076789E+03</rscale>
<asrwt>0</asrwt>
<pdfrwt beam="1">  1        2 0.18124448E+00 0.44076789E+03</pdfrwt>
<pdfrwt beam="2">  1       -2 0.54688881E-02 0.44076789E+03</pdfrwt>
<totfact> 0.35235152E+03</totfact>
</mgrwt>
</event>
<event>
 4    1  0.1025337E-004  0.3551404E+03  0.7818608E-02  0.1060525E+00
          2   -1    0    0  501    0  0.00000000000E+00  0.00000000000E+00  0.30177649635E+04  0.30177649635E+04  0.25500000000E-02 0.  1.
         -2   -1    0    0    0  501 -0.00000000000E+00 -0.00000000000E+00 -0.10448520605E+02  0.10448520916E+02  0.25500000000E-02 0. -1.
    5000001    1    1    2    0    0 -0.33984648723E+02  0.55534367205E+02  0.15735351672E+04  0.15835014824E+04  0.16500000000E+03 0.  0.
   -5000001    1    1    2    0    0  0.33984648723E+02 -0.55534367205E+02  0.14337812756E+04  0.14447120020E+04  0.16500000000E+03 0.  0.
<mgrwt>
<rscale>  0 0.35514042E+03</rscale>
<asrwt>0</asrwt>
<pdfrwt beam="1">  1        2 0.43110884E+00 0.35514042E+03</pdfrwt>
<pdfrwt beam="2">  1       -2 0.14926474E-02 0.35514042E+03</pdfrwt>
<totfact> 0.32089954E+03</totfact>
</mgrwt>
</event>
<event>
 4    1  0.1025337E-004  0.1457677E+04  0.7818608E-02  0.8913096E-01
         -2   -1    0    0    0  501 -0.00000000000E+00  0.00000000000E+00  0.83009212260E+03  0.83009212260E+03  0.25500000000E-02 0. -1.
          2   -1    0    0  501    0  0.00000000000E+00 -0.00000000000E+00 -0.63993539784E+03  0.63993539784E+03  0.25500000000E-02 0.  1.
    5000001    1    1    2    0    0  0.38517357665E+03 -0.59595844316E+03  0.11659414191E+03  0.73779695313E+03  0.16500000000E+03 0.  0.
   -5000001    1    1    2    0    0 -0.38517357665E+03  0.59595844316E+03  0.73562582854E+02  0.73223056732E+03  0.16500000000E+03 0.  0.
<mgrwt>
<rscale>  0 0.14576767E+04</rscale>
<asrwt>0</asrwt>
<pdfrwt beam="1">  1        2 0.91419342E-01 0.14576767E+04</pdfrwt>
<pdfrwt beam="2">  1       -2 0.11858459E+00 0.14576767E+04</pdfrwt>
<totfact> 0.26670704E+01</totfact>
</mgrwt>
</event>
<event>
 4    1  0.1025337E-004  0.1004636E+04  0.7818608E-02  0.9303474E-01
          2   -1    0    0  501    0  0.00000000000E+00  0.00000000000E+00  0.69277126157E+03  0.69277126158E+03  0.25500000000E-02 0.  1.
         -2   -1    0    0    0  501 -0.00000000000E+00 -0.00000000000E+00 -0.36422339241E+03  0.36422339242E+03  0.25500000000E-02 0. -1.
    5000001    1    1    2    0    0 -0.11428100167E+03  0.43383781430E+03  0.18825044844E+01  0.47802085758E+03  0.16500000000E+03 0.  0.
   -5000001    1    1    2    0    0  0.11428100167E+03 -0.43383781430E+03  0.32666536468E+03  0.57897379642E+03  0.16500000000E+03 0.  0.
<mgrwt>
<rscale>  0 0.10046363E+04</rscale>
<asrwt>0</asrwt>
<pdfrwt beam="1">  1        2 0.98967323E-01 0.10046363E+04</pdfrwt>
<pdfrwt beam="2">  1       -2 0.52031913E-01 0.10046363E+04</pdfrwt>
<totfact> 0.15868664E+02</totfact>
</mgrwt>
</event>
<event>
 4    1  0.1025337E-004  0.4498712E+03  0.7818608E-02  0.1027760E+00
          2   -1    0    0  501    0  0.00000000000E+00  0.00000000000E+00  0.49851096697E+02  0.49851096762E+02  0.25500000000E-02 0.  1.
         -2   -1    0    0    0  501 -0.00000000000E+00 -0.00000000000E+00 -0.10149430657E+04  0.10149430657E+04  0.25500000000E-02 0. -1.
    5000001    1    1    2    0    0  0.14593353701E+03 -0.31659731039E+02 -0.40504755214E+03  0.46215522857E+03  0.16500000000E+03 0.  0.
   -5000001    1    1    2    0    0 -0.14593353701E+03  0.31659731039E+02 -0.56004441684E+03  0.60263893388E+03  0.16500000000E+03 0.  0.
<mgrwt>
<rscale>  0 0.44987120E+03</rscale>
<asrwt>0</asrwt>
<pdfrwt beam="1">  1        2 0.71215859E-02 0.44987120E+03</pdfrwt>
<pdfrwt beam="2">  1       -2 0.14499185E+00 0.44987120E+03</pdfrwt>
<totfact> 0.34307557E+02</totfact>
</mgrwt>
</event>
<event>
 4    1  0.1025337E-004  0.8820711E+03  0.7818608E-02  0.9448275E-01
         -2   -1    0    0    0  501 -0.00000000000E+00  0.00000000000E+00  0.52687563815E+03  0.52687563815E+03  0.25500000000E-02 0. -1.
          2   -1    0    0  501    0  0.00000000000E+00 -0.00000000000E+00 -0.36918076058E+03  0.36918076059E+03  0.25500000000E-02 0.  1.
    5000001    1    1    2    0    0  0.28662826230E+03 -0.28694436221E+03  0.13254881992E+03  0.45747898030E+03  0.16500000000E+03 0.  0.
   -5000001    1    1    2    0    0 -0.28662826230E+03  0.28694436221E+03  0.25146057646E+02  0.43857741845E+03  0.16500000000E+03 0.  0.
<mgrwt>
<rscale>  0 0.88207108E+03</rscale>
<asrwt>0</asrwt>
<pdfrwt beam="1">  1        2 0.52740109E-01 0.88207108E+03</pdfrwt>
<pdfrwt beam="2">  1       -2 0.75267948E-01 0.88207108E+03</pdfrwt>
<totfact> 0.15058000E+02</totfact>
</mgrwt>
</event>
<event>
 4    1  0.1025337E-004  0.4878332E+03  0.7818608E-02  0.1017004E+00
         -2   -1    0    0    0  501 -0.00000000000E+00  0.00000000000E+00  0.15092752561E+02  0.15092752776E+02  0.25500000000E-02 0. -1.
          2   -1    0    0  501    0  0.00000000000E+00 -0.00000000000E+00 -0.39419791555E+04  0.39419791555E+04  0.25500000000E-02 0.  1.
    5000001    1    1    2    0    0  0.15396389361E+03  0.61699800556E+02 -0.25229956640E+04  0.25338200146E+04  0.16500000000E+03 0.  0.
   -5000001    1    1    2    0    0 -0.15396389361E+03 -0.61699800556E+02 -0.14038907390E+04  0.14232518937E+04  0.16500000000E+03 0.  0.
<mgrwt>
<rscale>  0 0.48783324E+03</rscale>
<asrwt>0</asrwt>
<pdfrwt beam="1">  1        2 0.56313922E+00 0.48783324E+03</pdfrwt>
<pdfrwt beam="2">  1       -2 0.21561100E-02 0.48783324E+03</pdfrwt>
<totfact> 0.52322304E+02</totfact>
</mgrwt>
</event>
<event>
 4    1  0.1025337E-004  0.3784598E+03  0.7818608E-02  0.1051504E+00
         -2   -1    0    0    0  501 -0.00000000000E+00  0.00000000000E+00  0.20995949780E+04  0.20995949780E+04  0.25500000000E-02 0. -1.
          2   -1    0    0  501    0  0.00000000000E+00 -0.00000000000E+00 -0.17054698885E+02  0.17054699076E+02  0.25500000000E-02 0.  1.
    5000001    1    1    2    0    0 -0.43660688983E+02  0.89916152990E+01  0.58705169996E+03  0.61142604077E+03  0.16500000000E+03 0.  0.
   -5000001    1    1    2    0    0  0.43660688983E+02 -0.89916152990E+01  0.14954885791E+04  0.15052236363E+04  0.16500000000E+03 0.  0.
<mgrwt>
<rscale>  0 0.37845983E+03</rscale>
<asrwt>0</asrwt>
<pdfrwt beam="1">  1        2 0.24363868E-02 0.37845983E+03</pdfrwt>
<pdfrwt beam="2">  1       -2 0.29994199E+00 0.37845983E+03</pdfrwt>
<totfact> 0.15167594E+02</totfact>
</mgrwt>
</event>
<event>
 4    1  0.1025337E-004  0.9037876E+03  0.7818608E-02  0.9420859E-01
          2   -1    0    0  501    0  0.00000000000E+00  0.00000000000E+00  0.35079086270E+03  0.35079086271E+03  0.25500000000E-02 0.  1.
         -2   -1    0    0    0  501 -0.00000000000E+00 -0.00000000000E+00 -0.58213608447E+03  0.58213608447E+03  0.25500000000E-02 0. -1.
    5000001    1    1    2    0    0  0.23969553200E+03 -0.79817591844E+02 -0.46290825968E+03  0.55257022441E+03  0.16500000000E+03 0.  0.
   -5000001    1    1    2    0    0 -0.23969553200E+03  0.79817591844E+02  0.23156303791E+03  0.38035672277E+03  0.16500000000E+03 0.  0.
<mgrwt>
<rscale>  0 0.90378763E+03</rscale>
<asrwt>0</asrwt>
<pdfrwt beam="1">  1        2 0.50112981E-01 0.90378763E+03</pdfrwt>
<pdfrwt beam="2">  1       -2 0.83162297E-01 0.90378763E+03</pdfrwt>
<totfact> 0.12731921E+02</totfact>
</mgrwt>
</event>
<event>
 4    1  0.1025337E-004  0.8363741E+03  0.7818608E-02  0.9508810E-01
         -2   -1    0    0    0  501 -0.00000000000E+00  0.00000000000E+00  0.32377566162E+03  0.32377566163E+03  0.25500000000E-02 0. -1.
          2   -1    0    0  501    0  0.00000000000E+00 -0.00000000000E+00 -0.54012837057E+03  0.54012837057E+03  0.25500000000E-02 0.  1.
    5000001    1    1    2    0    0  0.16501708203E+03 -0.86737613427E+02 -0.45524430886E+03  0.51887034189E+03  0.16500000000E+03 0.  0.
   -5000001    1    1    2    0    0 -0.16501708203E+03  0.86737613427E+02  0.23889159991E+03  0.34503369032E+03  0.16500000000E+03 0.  0.
<mgrwt>
<rscale>  0 0.83637413E+03</rscale>
<asrwt>0</asrwt>
<pdfrwt beam="1">  1        2 0.77161195E-01 0.83637413E+03</pdfrwt>
<pdfrwt beam="2">  1       -2 0.46253666E-01 0.83637413E+03</pdfrwt>
<totfact> 0.27341617E+02</totfact>
</mgrwt>
</event>
<event>
 4    1  0.1025337E-004  0.3994200E+03  0.7818608E-02  0.1043981E+00
          2   -1    0    0  501    0  0.00000000000E+00  0.00000000000E+00  0.13756288428E+04  0.13756288428E+04  0.25500000000E-02 0.  1.
         -2   -1    0    0    0  501 -0.00000000000E+00 -0.00000000000E+00 -0.28993350546E+02  0.28993350658E+02  0.25500000000E-02 0. -1.
    5000001    1    1    2    0    0 -0.65827592380E+01 -0.73332437276E+02  0.97250444898E+03  0.98914654241E+03  0.16500000000E+03 0.  0.
   -5000001    1    1    2    0    0  0.65827592380E+01  0.73332437276E+02  0.37413104329E+03  0.41547565107E+03  0.16500000000E+03 0.  0.
<mgrwt>
<rscale>  0 0.39942003E+03</rscale>
<asrwt>0</asrwt>
<pdfrwt beam="1">  1        2 0.19651843E+00 0.39942003E+03</pdfrwt>
<pdfrwt beam="2">  1       -2 0.41419066E-02 0.39942003E+03</pdfrwt>
<totfact> 0.47310834E+03</totfact>
</mgrwt>
</event>
<event>
 4    1  0.1025337E-004  0.5076868E+03  0.7818608E-02  0.1011792E+00
          2   -1    0    0  501    0  0.00000000000E+00  0.00000000000E+00  0.20493179761E+04  0.20493179761E+04  0.25500000000E-02 0.  1.
         -2   -1    0    0    0  501 -0.00000000000E+00 -0.00000000000E+00 -0.31442886310E+02  0.31442886413E+02  0.25500000000E-02 0. -1.
    5000001    1    1    2    0    0  0.12054064129E+03 -0.13677136252E+03  0.75053547998E+03  0.78978791996E+03  0.16500000000E+03 0.  0.
   -5000001    1    1    2    0    0 -0.12054064129E+03  0.13677136252E+03  0.12673396098E+04  0.12909729425E+04  0.16500000000E+03 0.  0.
<mgrwt>
<rscale>  0 0.50768680E+03</rscale>
<asrwt>0</asrwt>
<pdfrwt beam="1">  1        2 0.29275974E+00 0.50768680E+03</pdfrwt>
<pdfrwt beam="2">  1       -2 0.44918405E-02 0.50768680E+03</pdfrwt>
<totfact> 0.19027154E+03</totfact>
</mgrwt>
</event>
<event>
 4    1  0.1025337E-004  0.1248938E+04  0.7818608E-02  0.9071067E-01
          2   -1    0    0  501    0  0.00000000000E+00  0.00000000000E+00  0.12042250503E+04  0.12042250503E+04  0.25500000000E-02 0.  1.
         -2   -1    0    0    0  501 -0.00000000000E+00 -0.00000000000E+00 -0.32382792868E+03  0.32382792869E+03  0.25500000000E-02 0. -1.
    5000001    1    1    2    0    0 -0.38592390012E+03  0.44092639492E+03  0.61053673270E+03  0.86216787483E+03  0.16500000000E+03 0.  0.
   -5000001    1    1    2    0    0  0.38592390012E+03 -0.44092639492E+03  0.26986038890E+03  0.66588510414E+03  0.16500000000E+03 0.  0.
<mgrwt>
<rscale>  0 0.12489383E+04</rscale>
<asrwt>0</asrwt>
<pdfrwt beam="1">  1        2 0.17203215E+00 0.12489383E+04</pdfrwt>
<pdfrwt beam="2">  1       -2 0.46261133E-01 0.12489383E+04</pdfrwt>
<totfact> 0.92603708E+01</totfact>
</mgrwt>
</event>
<event>
 4    1  0.1025337E-004  0.3937501E+03  0.7818608E-02  0.1045966E+00
         -2   -1    0    0    0  501 -0.00000000000E+00  0.00000000000E+00  0.67150921026E+02  0.67150921074E+02  0.25500000000E-02 0. -1.
          2   -1    0    0  501    0  0.00000000000E+00 -0.00000000000E+00 -0.57720418337E+03  0.57720418338E+03  0.25500000000E-02 0.  1.
    5000001    1    1    2    0    0  0.81758391683E+02  0.53809029597E+02 -0.32738220114E+03  0.37945217340E+03  0.16500000000E+03 0.  0.
   -5000001    1    1    2    0    0 -0.81758391683E+02 -0.53809029597E+02 -0.18267106121E+03  0.26490293105E+03  0.16500000000E+03 0.  0.
<mgrwt>
<rscale>  0 0.39375014E+03</rscale>
<asrwt>0</asrwt>
<pdfrwt beam="1">  1        2 0.82457738E-01 0.39375014E+03</pdfrwt>
<pdfrwt beam="2">  1       -2 0.95929890E-02 0.39375014E+03</pdfrwt>
<totfact> 0.41062394E+03</totfact>
</mgrwt>
</event>
<event>
 4    1  0.1025337E-004  0.9492135E+03  0.7818608E-02  0.9366070E-01
          2   -1    0    0  501    0  0.00000000000E+00  0.00000000000E+00  0.14575988591E+04  0.14575988591E+04  0.25500000000E-02 0.  1.
         -2   -1    0    0    0  501 -0.00000000000E+00 -0.00000000000E+00 -0.15453604167E+03  0.15453604169E+03  0.25500000000E-02 0. -1.
    5000001    1    1    2    0    0  0.43978429157E+03  0.67916949673E+02  0.64829871850E+03  0.80345451867E+03  0.16500000000E+03 0.  0.
   -5000001    1    1    2    0    0 -0.43978429157E+03 -0.67916949673E+02  0.65476409888E+03  0.80868038208E+03  0.16500000000E+03 0.  0.
<mgrwt>
<rscale>  0 0.94921348E+03</rscale>
<asrwt>0</asrwt>
<pdfrwt beam="1">  1        2 0.20822840E+00 0.94921348E+03</pdfrwt>
<pdfrwt beam="2">  1       -2 0.22076578E-01 0.94921348E+03</pdfrwt>
<totfact> 0.27584421E+02</totfact>
</mgrwt>
</event>
<event>
 4    1  0.1025337E-004  0.4737578E+03  0.7818608E-02  0.1020865E+00
          2   -1    0    0  501    0  0.00000000000E+00  0.00000000000E+00  0.94852244228E+03  0.94852244229E+03  0.25500000000E-02 0.  1.
         -2   -1    0    0    0  501 -0.00000000000E+00 -0.00000000000E+00 -0.59156869191E+02  0.59156869246E+02  0.25500000000E-02 0. -1.
    5000001    1    1    2    0    0  0.15979424730E+03 -0.36261141068E+02  0.54069349805E+03  0.58857754855E+03  0.16500000000E+03 0.  0.
   -5000001    1    1    2    0    0 -0.15979424730E+03  0.36261141068E+02  0.34867207504E+03  0.41910176298E+03  0.16500000000E+03 0.  0.
<mgrwt>
<rscale>  0 0.47375782E+03</rscale>
<asrwt>0</asrwt>
<pdfrwt beam="1">  1        2 0.13550320E+00 0.47375782E+03</pdfrwt>
<pdfrwt beam="2">  1       -2 0.84509816E-02 0.47375782E+03</pdfrwt>
<totfact> 0.27243802E+03</totfact>
</mgrwt>
</event>
<event>
 4    1  0.1025337E-004  0.6771855E+03  0.7818608E-02  0.9757064E-01
         -2   -1    0    0    0  501 -0.00000000000E+00  0.00000000000E+00  0.70635515596E+02  0.70635515642E+02  0.25500000000E-02 0. -1.
          2   -1    0    0  501    0  0.00000000000E+00 -0.00000000000E+00 -0.16230508702E+04  0.16230508702E+04  0.25500000000E-02 0.  1.
    5000001    1    1    2    0    0 -0.92908493227E+02 -0.25594205954E+03 -0.10644464221E+04  0.11110398334E+04  0.16500000000E+03 0.  0.
   -5000001    1    1    2    0    0  0.92908493227E+02  0.25594205954E+03 -0.48796893255E+03  0.58264655246E+03  0.16500000000E+03 0.  0.
<mgrwt>
<rscale>  0 0.67718545E+03</rscale>
<asrwt>0</asrwt>
<pdfrwt beam="1">  1        2 0.23186439E+00 0.67718545E+03</pdfrwt>
<pdfrwt beam="2">  1       -2 0.10090789E-01 0.67718545E+03</pdfrwt>
<totfact> 0.86403324E+02</totfact>
</mgrwt>
</event>
<event>
 4    1  0.1025337E-004  0.4834719E+03  0.7818608E-02  0.1018185E+00
         -2   -1    0    0    0  501 -0.00000000000E+00  0.00000000000E+00  0.64048331393E+02  0.64048331444E+02  0.25500000000E-02 0. -1.
          2   -1    0    0  501    0  0.00000000000E+00 -0.00000000000E+00 -0.91237754191E+03  0.91237754191E+03  0.25500000000E-02 0.  1.
    5000001    1    1    2    0    0  0.15025008402E+03 -0.77105416322E+01 -0.61120209721E+03  0.65071310409E+03  0.16500000000E+03 0.  0.
   -5000001    1    1    2    0    0 -0.15025008402E+03  0.77105416322E+01 -0.23712711331E+03  0.32571276927E+03  0.16500000000E+03 0.  0.
<mgrwt>
<rscale>  0 0.48347186E+03</rscale>
<asrwt>0</asrwt>
<pdfrwt beam="1">  1        2 0.13033964E+00 0.48347186E+03</pdfrwt>
<pdfrwt beam="2">  1       -2 0.91497622E-02 0.48347186E+03</pdfrwt>
<totfact> 0.25288587E+03</totfact>
</mgrwt>
</event>
<event>
 4    1  0.1025337E-004  0.6197686E+03  0.7818608E-02  0.9865221E-01
         -2   -1    0    0    0  501 -0.00000000000E+00  0.00000000000E+00  0.86175730891E+03  0.86175730891E+03  0.25500000000E-02 0. -1.
          2   -1    0    0  501    0  0.00000000000E+00 -0.00000000000E+00 -0.11143308475E+03  0.11143308478E+03  0.25500000000E-02 0.  1.
    5000001    1    1    2    0    0  0.15716553188E+03 -0.20809520712E+03  0.41953809931E+03  0.52080882904E+03  0.16500000000E+03 0.  0.
   -5000001    1    1    2    0    0 -0.15716553188E+03  0.20809520712E+03  0.33078612485E+03  0.45238156465E+03  0.16500000000E+03 0.  0.
<mgrwt>
<rscale>  0 0.61976859E+03</rscale>
<asrwt>0</asrwt>
<pdfrwt beam="1">  1        2 0.15919012E-01 0.61976859E+03</pdfrwt>
<pdfrwt beam="2">  1       -2 0.12310818E+00 0.61976859E+03</pdfrwt>
<totfact> 0.18829725E+02</totfact>
</mgrwt>
</event>
<event>
 4    1  0.1025337E-004  0.3653253E+03  0.7818608E-02  0.1056495E+00
          2   -1    0    0  501    0  0.00000000000E+00  0.00000000000E+00  0.20163211512E+04  0.20163211512E+04  0.25500000000E-02 0.  1.
         -2   -1    0    0    0  501 -0.00000000000E+00 -0.00000000000E+00 -0.16547781798E+02  0.16547781995E+02  0.25500000000E-02 0. -1.
    5000001    1    1    2    0    0  0.29519486357E+02 -0.67183555862E+02  0.11528471418E+04  0.11669046930E+04  0.16500000000E+03 0.  0.
   -5000001    1    1    2    0    0 -0.29519486357E+02  0.67183555862E+02  0.84692622766E+03  0.86596424023E+03  0.16500000000E+03 0.  0.
<mgrwt>
<rscale>  0 0.36532529E+03</rscale>
<asrwt>0</asrwt>
<pdfrwt beam="1">  1        2 0.28804604E+00 0.36532529E+03</pdfrwt>
<pdfrwt beam="2">  1       -2 0.23639675E-02 0.36532529E+03</pdfrwt>
<totfact> 0.52387058E+03</totfact>
</mgrwt>
</event>
<event>
 4    1  0.1025337E-004  0.8483043E+03  0.7818608E-02  0.9492616E-01
         -2   -1    0    0    0  501 -0.00000000000E+00  0.00000000000E+00  0.75518432937E+03  0.75518432938E+03  0.25500000000E-02 0. -1.
          2   -1    0    0  501    0  0.00000000000E+00 -0.00000000000E+00 -0.23822668738E+03  0.23822668740E+03  0.25500000000E-02 0.  1.
    5000001    1    1    2    0    0  0.18082624719E+03 -0.29752714457E+03  0.46618689800E+03  0.60479397922E+03  0.16500000000E+03 0.  0.
   -5000001    1    1    2    0    0 -0.18082624719E+03  0.29752714457E+03  0.50770743987E+02  0.38861703755E+03  0.16500000000E+03 0.  0.
<mgrwt>
<rscale>  0 0.84830433E+03</rscale>
<asrwt>0</asrwt>
<pdfrwt beam="1">  1        2 0.34032383E-01 0.84830433E+03</pdfrwt>
<pdfrwt beam="2">  1       -2 0.10788348E+00 0.84830433E+03</pdfrwt>
<totfact> 0.10688295E+02</totfact>
</mgrwt>
</event>
<event>
 4    1  0.1025337E-004  0.4116227E+03  0.7818608E-02  0.1039828E+00
          2   -1    0    0  501    0  0.00000000000E+00  0.00000000000E+00  0.31447177049E+04  0.31447177049E+04  0.25500000000E-02 0.  1.
         -2   -1    0    0    0  501 -0.00000000000E+00 -0.00000000000E+00 -0.13469669856E+02  0.13469670097E+02  0.25500000000E-02 0. -1.
    5000001    1    1    2    0    0 -0.11740622546E+03 -0.33231781626E+02  0.16856535244E+04  0.16980993426E+04  0.16500000000E+03 0.  0.
   -5000001    1    1    2    0    0  0.11740622546E+03  0.33231781626E+02  0.14455945107E+04  0.14600880325E+04  0.16500000000E+03 0.  0.
<mgrwt>
<rscale>  0 0.41162269E+03</rscale>
<asrwt>0</asrwt>
<pdfrwt beam="1">  1        2 0.44924525E+00 0.41162269E+03</pdfrwt>
<pdfrwt beam="2">  1       -2 0.19242391E-02 0.41162269E+03</pdfrwt>
<totfact> 0.18710948E+03</totfact>
</mgrwt>
</event>
<event>
 4    1  0.1025337E-004  0.4622789E+03  0.7818608E-02  0.1024122E+00
         -2   -1    0    0    0  501 -0.00000000000E+00  0.00000000000E+00  0.24762169941E+02  0.24762170072E+02  0.25500000000E-02 0. -1.
          2   -1    0    0  501    0  0.00000000000E+00 -0.00000000000E+00 -0.21575429142E+04  0.21575429142E+04  0.25500000000E-02 0.  1.
    5000001    1    1    2    0    0  0.14482630692E+03  0.69527875223E+02 -0.97296476835E+03  0.99984710084E+03  0.16500000000E+03 0.  0.
   -5000001    1    1    2    0    0 -0.14482630692E+03 -0.69527875223E+02 -0.11598159759E+04  0.11824579834E+04  0.16500000000E+03 0.  0.
<mgrwt>
<rscale>  0 0.46227890E+03</rscale>
<asrwt>0</asrwt>
<pdfrwt beam="1">  1        2 0.30822030E+00 0.46227890E+03</pdfrwt>
<pdfrwt beam="2">  1       -2 0.35374542E-02 0.46227890E+03</pdfrwt>
<totfact> 0.24255349E+03</totfact>
</mgrwt>
</event>
<event>
 4    1  0.1025337E-004  0.4281034E+03  0.7818608E-02  0.1034461E+00
         -2   -1    0    0    0  501 -0.00000000000E+00  0.00000000000E+00  0.10707013241E+03  0.10707013244E+03  0.25500000000E-02 0. -1.
          2   -1    0    0  501    0  0.00000000000E+00 -0.00000000000E+00 -0.42792631050E+03  0.42792631050E+03  0.25500000000E-02 0.  1.
    5000001    1    1    2    0    0  0.90264054203E+02  0.85619557139E+02 -0.90682199062E+02  0.22566915889E+03  0.16500000000E+03 0.  0.
   -5000001    1    1    2    0    0 -0.90264054203E+02 -0.85619557139E+02 -0.23017397902E+03  0.30932728406E+03  0.16500000000E+03 0.  0.
<mgrwt>
<rscale>  0 0.42810338E+03</rscale>
<asrwt>0</asrwt>
<pdfrwt beam="1">  1        2 0.61132329E-01 0.42810338E+03</pdfrwt>
<pdfrwt beam="2">  1       -2 0.15295733E-01 0.42810338E+03</pdfrwt>
<totfact> 0.26850834E+03</totfact>
</mgrwt>
</event>
<event>
 4    1  0.1025337E-004  0.5013903E+03  0.7818608E-02  0.1013417E+00
          2   -1    0    0  501    0  0.00000000000E+00  0.00000000000E+00  0.26733381691E+02  0.26733381813E+02  0.25500000000E-02 0.  1.
         -2   -1    0    0    0  501 -0.00000000000E+00 -0.00000000000E+00 -0.23509203978E+04  0.23509203978E+04  0.25500000000E-02 0. -1.
    5000001    1    1    2    0    0  0.10657430716E+03  0.90853037258E+02 -0.56205682496E+03  0.60228334845E+03  0.16500000000E+03 0.  0.
   -5000001    1    1    2    0    0 -0.10657430716E+03 -0.90853037258E+02 -0.17621301911E+04  0.17753704311E+04  0.16500000000E+03 0.  0.
<mgrwt>
<rscale>  0 0.50139028E+03</rscale>
<asrwt>0</asrwt>
<pdfrwt beam="1">  1        2 0.38190560E-02 0.50139028E+03</pdfrwt>
<pdfrwt beam="2">  1       -2 0.33584564E+00 0.50139028E+03</pdfrwt>
<totfact> 0.49190611E+01</totfact>
</mgrwt>
</event>
<event>
 4    1  0.1025337E-004  0.6210027E+03  0.7818608E-02  0.9862765E-01
          2   -1    0    0  501    0  0.00000000000E+00  0.00000000000E+00  0.34320967801E+04  0.34320967801E+04  0.25500000000E-02 0.  1.
         -2   -1    0    0    0  501 -0.00000000000E+00 -0.00000000000E+00 -0.28091016745E+02  0.28091016861E+02  0.25500000000E-02 0. -1.
    5000001    1    1    2    0    0  0.17450834591E+03 -0.19439745695E+03  0.18730671728E+04  0.18983806700E+04  0.16500000000E+03 0.  0.
   -5000001    1    1    2    0    0 -0.17450834591E+03  0.19439745695E+03  0.15309385905E+04  0.15618071270E+04  0.16500000000E+03 0.  0.
<mgrwt>
<rscale>  0 0.62100270E+03</rscale>
<asrwt>0</asrwt>
<pdfrwt beam="1">  1        2 0.49029958E+00 0.62100270E+03</pdfrwt>
<pdfrwt beam="2">  1       -2 0.40130020E-02 0.62100270E+03</pdfrwt>
<totfact> 0.41385863E+02</totfact>
</mgrwt>
</event>
<event>
 4    1  0.1025337E-004  0.4687163E+03  0.7818608E-02  0.1022283E+00
         -2   -1    0    0    0  501 -0.00000000000E+00  0.00000000000E+00  0.22511730644E+03  0.22511730645E+03  0.25500000000E-02 0. -1.
          2   -1    0    0  501    0  0.00000000000E+00 -0.00000000000E+00 -0.24397829343E+03  0.24397829345E+03  0.25500000000E-02 0.  1.
    5000001    1    1    2    0    0 -0.57286522424E+02 -0.37722532689E+02 -0.16119094199E+03  0.24064965178E+03  0.16500000000E+03 0.  0.
   -5000001    1    1    2    0    0  0.57286522424E+02  0.37722532689E+02  0.14232995499E+03  0.22844594812E+03  0.16500000000E+03 0.  0.
<mgrwt>
<rscale>  0 0.46871627E+03</rscale>
<asrwt>0</asrwt>
<pdfrwt beam="1">  1        2 0.34854042E-01 0.46871627E+03</pdfrwt>
<pdfrwt beam="2">  1       -2 0.32159615E-01 0.46871627E+03</pdfrwt>
<totfact> 0.13479973E+03</totfact>
</mgrwt>
</event>
<event>
 4    1  0.1025337E-004  0.3583525E+03  0.7818608E-02  0.1059238E+00
          2   -1    0    0  501    0  0.00000000000E+00  0.00000000000E+00  0.27167947532E+04  0.27167947532E+04  0.25500000000E-02 0.  1.
         -2   -1    0    0    0  501 -0.00000000000E+00 -0.00000000000E+00 -0.11816910398E+02  0.11816910673E+02  0.25500000000E-02 0. -1.
    5000001    1    1    2    0    0  0.53416584968E+02 -0.41590728195E+02  0.14834907747E+04  0.14941730151E+04  0.16500000000E+03 0.  0.
   -5000001    1    1    2    0    0 -0.53416584968E+02  0.41590728195E+02  0.12214870680E+04  0.12344386488E+04  0.16500000000E+03 0.  0.
<mgrwt>
<rscale>  0 0.35835246E+03</rscale>
<asrwt>0</asrwt>
<pdfrwt beam="1">  1        2 0.38811452E+00 0.35835246E+03</pdfrwt>
<pdfrwt beam="2">  1       -2 0.16881258E-02 0.35835246E+03</pdfrwt>
<totfact> 0.38504612E+03</totfact>
</mgrwt>
</event>
<event>
 4    1  0.1025337E-004  0.4479526E+03  0.7818608E-02  0.1028334E+00
          2   -1    0    0  501    0  0.00000000000E+00  0.00000000000E+00  0.10613253442E+04  0.10613253442E+04  0.25500000000E-02 0.  1.
         -2   -1    0    0    0  501 -0.00000000000E+00 -0.00000000000E+00 -0.47266727082E+02  0.47266727150E+02  0.25500000000E-02 0. -1.
    5000001    1    1    2    0    0  0.98766121979E+02 -0.87540828631E+02  0.69093580018E+03  0.72252018900E+03  0.16500000000E+03 0.  0.
   -5000001    1    1    2    0    0 -0.98766121979E+02  0.87540828631E+02  0.32312281696E+03  0.38607188239E+03  0.16500000000E+03 0.  0.
<mgrwt>
<rscale>  0 0.44795257E+03</rscale>
<asrwt>0</asrwt>
<pdfrwt beam="1">  1        2 0.15161787E+00 0.44795257E+03</pdfrwt>
<pdfrwt beam="2">  1       -2 0.67523912E-02 0.44795257E+03</pdfrwt>
<totfact> 0.33191271E+03</totfact>
</mgrwt>
</event>
<event>
 4    1  0.1025337E-004  0.3990743E+03  0.7818608E-02  0.1044101E+00
          2   -1    0    0  501    0  0.00000000000E+00  0.00000000000E+00  0.12554591177E+04  0.12554591177E+04  0.25500000000E-02 0.  1.
         -2   -1    0    0    0  501 -0.00000000000E+00 -0.00000000000E+00 -0.31713549871E+02  0.31713549973E+02  0.25500000000E-02 0. -1.
    5000001    1    1    2    0    0  0.10184654554E+03  0.45677365727E+02  0.57496702789E+03  0.60849915672E+03  0.16500000000E+03 0.  0.
   -5000001    1    1    2    0    0 -0.10184654554E+03 -0.45677365727E+02  0.64877853994E+03  0.67867351095E+03  0.16500000000E+03 0.  0.
<mgrwt>
<rscale>  0 0.39907426E+03</rscale>
<asrwt>0</asrwt>
<pdfrwt beam="1">  1        2 0.17935137E+00 0.39907426E+03</pdfrwt>
<pdfrwt beam="2">  1       -2 0.45305053E-02 0.39907426E+03</pdfrwt>
<totfact> 0.47821253E+03</totfact>
</mgrwt>
</event>
<event>
 4    1  0.1025337E-004  0.8778600E+03  0.7818608E-02  0.9453689E-01
         -2   -1    0    0    0  501 -0.00000000000E+00  0.00000000000E+00  0.44804857641E+02  0.44804857714E+02  0.25500000000E-02 0. -1.
          2   -1    0    0  501    0  0.00000000000E+00 -0.00000000000E+00 -0.42999705055E+04  0.42999705055E+04  0.25500000000E-02 0.  1.
    5000001    1    1    2    0    0 -0.15105027250E+03 -0.18364203068E+03 -0.37608001940E+04  0.37719204233E+04  0.16500000000E+03 0.  0.
   -5000001    1    1    2    0    0  0.15105027250E+03  0.18364203068E+03 -0.49436545386E+03  0.57285493995E+03  0.16500000000E+03 0.  0.
<mgrwt>
<rscale>  0 0.87786005E+03</rscale>
<asrwt>0</asrwt>
<pdfrwt beam="1">  1        2 0.61428124E+00 0.87786005E+03</pdfrwt>
<pdfrwt beam="2">  1       -2 0.64006967E-02 0.87786005E+03</pdfrwt>
<totfact> 0.52521797E+01</totfact>
</mgrwt>
</event>
<event>
 4    1  0.1025337E-004  0.3836586E+03  0.7818608E-02  0.1049590E+00
         -2   -1    0    0    0  501 -0.00000000000E+00  0.00000000000E+00  0.29847105029E+02  0.29847105137E+02  0.25500000000E-02 0. -1.
          2   -1    0    0  501    0  0.00000000000E+00 -0.00000000000E+00 -0.12328996862E+04  0.12328996862E+04  0.25500000000E-02 0.  1.
    5000001    1    1    2    0    0  0.16964562538E+02 -0.92234085821E+02 -0.50968915564E+03  0.54387770532E+03  0.16500000000E+03 0.  0.
   -5000001    1    1    2    0    0 -0.16964562538E+02  0.92234085821E+02 -0.69336342557E+03  0.71886908605E+03  0.16500000000E+03 0.  0.
<mgrwt>
<rscale>  0 0.38365863E+03</rscale>
<asrwt>0</asrwt>
<pdfrwt beam="1">  1        2 0.17612849E+00 0.38365863E+03</pdfrwt>
<pdfrwt beam="2">  1       -2 0.42638729E-02 0.38365863E+03</pdfrwt>
<totfact> 0.53938146E+03</totfact>
</mgrwt>
</event>
<event>
 4    1  0.1025337E-004  0.5877833E+03  0.7818608E-02  0.9931081E-01
         -2   -1    0    0    0  501 -0.00000000000E+00  0.00000000000E+00  0.11288467562E+03  0.11288467565E+03  0.25500000000E-02 0.  1.
          2   -1    0    0  501    0  0.00000000000E+00 -0.00000000000E+00 -0.76513752067E+03  0.76513752067E+03  0.25500000000E-02 0. -1.
    5000001    1    1    2    0    0  0.29506104763E+02  0.17772137360E+03 -0.82077318045E+02  0.25771531385E+03  0.16500000000E+03 0.  0.
   -5000001    1    1    2    0    0 -0.29506104763E+02 -0.17772137360E+03 -0.57017552700E+03  0.62030688248E+03  0.16500000000E+03 0.  0.
<mgrwt>
<rscale>  0 0.58778330E+03</rscale>
<asrwt>0</asrwt>
<pdfrwt beam="1">  1        2 0.10930536E+00 0.58778330E+03</pdfrwt>
<pdfrwt beam="2">  1       -2 0.16126383E-01 0.58778330E+03</pdfrwt>
<totfact> 0.12490144E+03</totfact>
</mgrwt>
</event>
<event>
 4    1  0.1025337E-004  0.5518654E+03  0.7818608E-02  0.1001063E+00
          2   -1    0    0  501    0  0.00000000000E+00  0.00000000000E+00  0.12395969097E+04  0.12395969097E+04  0.25500000000E-02 0.  1.
         -2   -1    0    0    0  501 -0.00000000000E+00 -0.00000000000E+00 -0.61422278920E+02  0.61422278973E+02  0.25500000000E-02 0. -1.
    5000001    1    1    2    0    0  0.74300838456E+02  0.20814590755E+03  0.56957077942E+03  0.63283584458E+03  0.16500000000E+03 0.  0.
   -5000001    1    1    2    0    0 -0.74300838456E+02 -0.20814590755E+03  0.60860385135E+03  0.66818334408E+03  0.16500000000E+03 0.  0.
<mgrwt>
<rscale>  0 0.55186544E+03</rscale>
<asrwt>0</asrwt>
<pdfrwt beam="1">  1        2 0.17708526E+00 0.55186544E+03</pdfrwt>
<pdfrwt beam="2">  1       -2 0.87746119E-02 0.55186544E+03</pdfrwt>
<totfact> 0.17360012E+03</totfact>
</mgrwt>
</event>
<event>
 4    1  0.1025337E-004  0.4155866E+03  0.7818608E-02  0.1038512E+00
         -2   -1    0    0    0  501 -0.00000000000E+00  0.00000000000E+00  0.88278306095E+02  0.88278306132E+02  0.25500000000E-02 0. -1.
          2   -1    0    0  501    0  0.00000000000E+00 -0.00000000000E+00 -0.48911288573E+03  0.48911288574E+03  0.25500000000E-02 0.  1.
    5000001    1    1    2    0    0  0.24112732902E+02 -0.12389729197E+03 -0.20679831144E+03  0.29312540740E+03  0.16500000000E+03 0.  0.
   -5000001    1    1    2    0    0 -0.24112732902E+02  0.12389729197E+03 -0.19403626819E+03  0.28426578447E+03  0.16500000000E+03 0.  0.
<mgrwt>
<rscale>  0 0.41558661E+03</rscale>
<asrwt>0</asrwt>
<pdfrwt beam="1">  1        2 0.69873268E-01 0.41558661E+03</pdfrwt>
<pdfrwt beam="2">  1       -2 0.12611187E-01 0.41558661E+03</pdfrwt>
<totfact> 0.31849467E+03</totfact>
</mgrwt>
</event>
<event>
 4    1  0.1025337E-004  0.5488823E+03  0.7818608E-02  0.1001753E+00
         -2   -1    0    0    0  501 -0.00000000000E+00  0.00000000000E+00  0.45641030676E+03  0.45641030677E+03  0.25500000000E-02 0. -1.
          2   -1    0    0  501    0  0.00000000000E+00 -0.00000000000E+00 -0.16502244868E+03  0.16502244870E+03  0.25500000000E-02 0.  1.
    5000001    1    1    2    0    0  0.16228676563E+03 -0.14646948525E+03  0.16538999667E+03  0.31995180169E+03  0.16500000000E+03 0.  0.
   -5000001    1    1    2    0    0 -0.16228676563E+03  0.14646948525E+03  0.12599786141E+03  0.30148095377E+03  0.16500000000E+03 0.  0.
<mgrwt>
<rscale>  0 0.54888231E+03</rscale>
<asrwt>0</asrwt>
<pdfrwt beam="1">  1        2 0.23574635E-01 0.54888231E+03</pdfrwt>
<pdfrwt beam="2">  1       -2 0.65201473E-01 0.54888231E+03</pdfrwt>
<totfact> 0.51280089E+02</totfact>
</mgrwt>
</event>
<event>
 4    1  0.1025337E-004  0.4474059E+03  0.7818608E-02  0.1028498E+00
         -2   -1    0    0    0  501 -0.00000000000E+00  0.00000000000E+00  0.27561011911E+03  0.27561011912E+03  0.25500000000E-02 0.  1.
          2   -1    0    0  501    0  0.00000000000E+00 -0.00000000000E+00 -0.18157172953E+03  0.18157172955E+03  0.25500000000E-02 0. -1.
    5000001    1    1    2    0    0 -0.13381824130E+03 -0.56284570030E+02  0.43609946416E+01  0.21981649802E+03  0.16500000000E+03 0.  0.
   -5000001    1    1    2    0    0  0.13381824130E+03  0.56284570030E+02  0.89677394940E+02  0.23736535065E+03  0.16500000000E+03 0.  0.
<mgrwt>
<rscale>  0 0.44740588E+03</rscale>
<asrwt>0</asrwt>
<pdfrwt beam="1">  1        2 0.25938819E-01 0.44740588E+03</pdfrwt>
<pdfrwt beam="2">  1       -2 0.39372874E-01 0.44740588E+03</pdfrwt>
<totfact> 0.12781299E+03</totfact>
</mgrwt>
</event>
<event>
 4    1  0.1025337E-004  0.4728911E+03  0.7818608E-02  0.1021107E+00
          2   -1    0    0  501    0  0.00000000000E+00  0.00000000000E+00  0.18818079188E+03  0.18818079189E+03  0.25500000000E-02 0.  1.
         -2   -1    0    0    0  501 -0.00000000000E+00 -0.00000000000E+00 -0.29708934636E+03  0.29708934637E+03  0.25500000000E-02 0. -1.
    5000001    1    1    2    0    0  0.99525195970E+02 -0.13415576805E+03 -0.83085794799E+02  0.24906080388E+03  0.16500000000E+03 0.  0.
   -5000001    1    1    2    0    0 -0.99525195970E+02  0.13415576805E+03 -0.25822759687E+02  0.23620933439E+03  0.16500000000E+03 0.  0.
<mgrwt>
<rscale>  0 0.47289114E+03</rscale>
<asrwt>0</asrwt>
<pdfrwt beam="1">  1        2 0.26882970E-01 0.47289114E+03</pdfrwt>
<pdfrwt beam="2">  1       -2 0.42441335E-01 0.47289114E+03</pdfrwt>
<totfact> 0.10616255E+03</totfact>
</mgrwt>
</event>
<event>
 4    1  0.1025337E-004  0.5835776E+03  0.7818608E-02  0.9940075E-01
         -2   -1    0    0    0  501 -0.00000000000E+00  0.00000000000E+00  0.40925923212E+02  0.40925923292E+02  0.25500000000E-02 0. -1.
          2   -1    0    0  501    0  0.00000000000E+00 -0.00000000000E+00 -0.20803612015E+04  0.20803612015E+04  0.25500000000E-02 0.  1.
    5000001    1    1    2    0    0  0.18392378299E+03  0.67013537598E+01 -0.15833471172E+04  0.16025248702E+04  0.16500000000E+03 0.  0.
   -5000001    1    1    2    0    0 -0.18392378299E+03 -0.67013537598E+01 -0.45608816103E+03  0.51876225453E+03  0.16500000000E+03 0.  0.
<mgrwt>
<rscale>  0 0.58357760E+03</rscale>
<asrwt>0</asrwt>
<pdfrwt beam="1">  1        2 0.29719439E+00 0.58357760E+03</pdfrwt>
<pdfrwt beam="2">  1       -2 0.58465618E-02 0.58357760E+03</pdfrwt>
<totfact> 0.12153930E+03</totfact>
</mgrwt>
</event>
<event>
 4    1  0.1025337E-004  0.1039539E+04  0.7818608E-02  0.9266212E-01
          2   -1    0    0  501    0  0.00000000000E+00  0.00000000000E+00  0.71060409651E+03  0.71060409651E+03  0.25500000000E-02 0.  1.
         -2   -1    0    0    0  501 -0.00000000000E+00 -0.00000000000E+00 -0.38018393650E+03  0.38018393651E+03  0.25500000000E-02 0. -1.
    5000001    1    1    2    0    0  0.37572516595E+03 -0.74861888769E+01 -0.16943240418E+03  0.44402452966E+03  0.16500000000E+03 0.  0.
   -5000001    1    1    2    0    0 -0.37572516595E+03  0.74861888769E+01  0.49985256419E+03  0.64676350336E+03  0.16500000000E+03 0.  0.
<mgrwt>
<rscale>  0 0.10395389E+04</rscale>
<asrwt>0</asrwt>
<pdfrwt beam="1">  1        2 0.10151487E+00 0.10395389E+04</pdfrwt>
<pdfrwt beam="2">  1       -2 0.54311991E-01 0.10395389E+04</pdfrwt>
<totfact> 0.14048663E+02</totfact>
</mgrwt>
</event>
<event>
 4    1  0.1025337E-004  0.1047335E+04  0.7818608E-02  0.9258100E-01
          2   -1    0    0  501    0  0.00000000000E+00  0.00000000000E+00  0.45662286821E+04  0.45662286821E+04  0.25500000000E-02 0.  1.
         -2   -1    0    0    0  501 -0.00000000000E+00 -0.00000000000E+00 -0.60055630597E+02  0.60055630651E+02  0.25500000000E-02 0. -1.
    5000001    1    1    2    0    0  0.47398130890E+03  0.14019039490E+03  0.20239402712E+04  0.20899451785E+04  0.16500000000E+03 0.  0.
   -5000001    1    1    2    0    0 -0.47398130890E+03 -0.14019039490E+03  0.24822327803E+04  0.25363391342E+04  0.16500000000E+03 0.  0.
<mgrwt>
<rscale>  0 0.10473352E+04</rscale>
<asrwt>0</asrwt>
<pdfrwt beam="1">  1        2 0.65231838E+00 0.10473352E+04</pdfrwt>
<pdfrwt beam="2">  1       -2 0.85793758E-02 0.10473352E+04</pdfrwt>
<totfact> 0.20067640E+01</totfact>
</mgrwt>
</event>
<event>
 4    1  0.1025337E-004  0.4820425E+03  0.7818608E-02  0.1018575E+00
          2   -1    0    0  501    0  0.00000000000E+00  0.00000000000E+00  0.80723844271E+03  0.80723844272E+03  0.25500000000E-02 0.  1.
         -2   -1    0    0    0  501 -0.00000000000E+00 -0.00000000000E+00 -0.71962923117E+02  0.71962923163E+02  0.25500000000E-02 0. -1.
    5000001    1    1    2    0    0 -0.77849844093E+02 -0.11710493790E+03  0.17554570244E+03  0.27895422268E+03  0.16500000000E+03 0.  0.
   -5000001    1    1    2    0    0  0.77849844093E+02  0.11710493790E+03  0.55972981715E+03  0.60024714320E+03  0.16500000000E+03 0.  0.
<mgrwt>
<rscale>  0 0.48204248E+03</rscale>
<asrwt>0</asrwt>
<pdfrwt beam="1">  1        2 0.11531977E+00 0.48204248E+03</pdfrwt>
<pdfrwt beam="2">  1       -2 0.10280418E-01 0.48204248E+03</pdfrwt>
<totfact> 0.24588842E+03</totfact>
</mgrwt>
</event>
<event>
 4    1  0.1025337E-004  0.4082337E+03  0.7818608E-02  0.1040965E+00
         -2   -1    0    0    0  501 -0.00000000000E+00  0.00000000000E+00  0.37137713907E+02  0.37137713995E+02  0.25500000000E-02 0. -1.
          2   -1    0    0  501    0  0.00000000000E+00 -0.00000000000E+00 -0.11218701585E+04  0.11218701585E+04  0.25500000000E-02 0.  1.
    5000001    1    1    2    0    0 -0.19430154403E+02  0.97852405454E+02 -0.35221002761E+03  0.40153396830E+03  0.16500000000E+03 0.  0.
   -5000001    1    1    2    0    0  0.19430154403E+02 -0.97852405454E+02 -0.73252241702E+03  0.75747390423E+03  0.16500000000E+03 0.  0.
<mgrwt>
<rscale>  0 0.40823372E+03</rscale>
<asrwt>0</asrwt>
<pdfrwt beam="1">  1        2 0.16026714E+00 0.40823372E+03</pdfrwt>
<pdfrwt beam="2">  1       -2 0.53053884E-02 0.40823372E+03</pdfrwt>
<totfact> 0.44516242E+03</totfact>
</mgrwt>
</event>
<event>
 4    1  0.1025337E-004  0.3765744E+03  0.7818608E-02  0.1052207E+00
         -2   -1    0    0    0  501 -0.00000000000E+00  0.00000000000E+00  0.41668498692E+02  0.41668498770E+02  0.25500000000E-02 0. -1.
          2   -1    0    0  501    0  0.00000000000E+00 -0.00000000000E+00 -0.85081243707E+03  0.85081243707E+03  0.25500000000E-02 0.  1.
    5000001    1    1    2    0    0 -0.48318050089E+02  0.76748986564E+02 -0.40795372958E+03  0.44930645042E+03  0.16500000000E+03 0.  0.
   -5000001    1    1    2    0    0  0.48318050089E+02 -0.76748986564E+02 -0.40119020879E+03  0.44317448543E+03  0.16500000000E+03 0.  0.
<mgrwt>
<rscale>  0 0.37657444E+03</rscale>
<asrwt>0</asrwt>
<pdfrwt beam="1">  1        2 0.12154462E+00 0.37657444E+03</pdfrwt>
<pdfrwt beam="2">  1       -2 0.59526432E-02 0.37657444E+03</pdfrwt>
<totfact> 0.54346743E+03</totfact>
</mgrwt>
</event>
<event>
 4    1  0.1025337E-004  0.7786281E+03  0.7818608E-02  0.9591478E-01
         -2   -1    0    0    0  501 -0.00000000000E+00  0.00000000000E+00  0.17674701019E+03  0.17674701021E+03  0.25500000000E-02 0. -1.
          2   -1    0    0  501    0  0.00000000000E+00 -0.00000000000E+00 -0.85752747651E+03  0.85752747652E+03  0.25500000000E-02 0.  1.
    5000001    1    1    2    0    0 -0.12415448972E+03  0.25382361265E+03 -0.60179947519E+02  0.33269714417E+03  0.16500000000E+03 0.  0.
   -5000001    1    1    2    0    0  0.12415448972E+03 -0.25382361265E+03 -0.62060051880E+03  0.70157734256E+03  0.16500000000E+03 0.  0.
<mgrwt>
<rscale>  0 0.77862807E+03</rscale>
<asrwt>0</asrwt>
<pdfrwt beam="1">  1        2 0.12250392E+00 0.77862807E+03</pdfrwt>
<pdfrwt beam="2">  1       -2 0.25249573E-01 0.77862807E+03</pdfrwt>
<totfact> 0.48985911E+02</totfact>
</mgrwt>
</event>
<event>
 4    1  0.1025337E-004  0.5802450E+03  0.7818608E-02  0.9947261E-01
         -2   -1    0    0    0  501 -0.00000000000E+00  0.00000000000E+00  0.55986732702E+02  0.55986732760E+02  0.25500000000E-02 0.  1.
          2   -1    0    0  501    0  0.00000000000E+00 -0.00000000000E+00 -0.15034110599E+04  0.15034110599E+04  0.25500000000E-02 0. -1.
    5000001    1    1    2    0    0  0.93402993474E+00 -0.23571914443E+03 -0.62381569772E+03  0.68697555429E+03  0.16500000000E+03 0.  0.
   -5000001    1    1    2    0    0 -0.93402993474E+00  0.23571914443E+03 -0.82360862943E+03  0.87242223833E+03  0.16500000000E+03 0.  0.
<mgrwt>
<rscale>  0 0.58024503E+03</rscale>
<asrwt>0</asrwt>
<pdfrwt beam="1">  1        2 0.21477298E+00 0.58024503E+03</pdfrwt>
<pdfrwt beam="2">  1       -2 0.79981056E-02 0.58024503E+03</pdfrwt>
<totfact> 0.14539890E+03</totfact>
</mgrwt>
</event>
<event>
 4    1  0.1025337E-004  0.6173274E+03  0.7818608E-02  0.9870095E-01
          2   -1    0    0  501    0  0.00000000000E+00  0.00000000000E+00  0.18316253127E+04  0.18316253127E+04  0.25500000000E-02 0.  1.
         -2   -1    0    0    0  501 -0.00000000000E+00 -0.00000000000E+00 -0.52015702618E+02  0.52015702680E+02  0.25500000000E-02 0. -1.
    5000001    1    1    2    0    0 -0.19190764648E+03 -0.15193192928E+03  0.11650370515E+04  0.12018519822E+04  0.16500000000E+03 0.  0.
   -5000001    1    1    2    0    0  0.19190764648E+03  0.15193192928E+03  0.61457255860E+03  0.68178903313E+03  0.16500000000E+03 0.  0.
<mgrwt>
<rscale>  0 0.61732739E+03</rscale>
<asrwt>0</asrwt>
<pdfrwt beam="1">  1        2 0.26166073E+00 0.61732739E+03</pdfrwt>
<pdfrwt beam="2">  1       -2 0.74308156E-02 0.61732739E+03</pdfrwt>
<totfact> 0.11091573E+03</totfact>
</mgrwt>
</event>
<event>
 4    1  0.1025337E-004  0.6104598E+03  0.7818608E-02  0.9883940E-01
          2   -1    0    0  501    0  0.00000000000E+00  0.00000000000E+00  0.19830372847E+04  0.19830372847E+04  0.25500000000E-02 0.  1.
         -2   -1    0    0    0  501 -0.00000000000E+00 -0.00000000000E+00 -0.46981114000E+02  0.46981114069E+02  0.25500000000E-02 0. -1.
    5000001    1    1    2    0    0 -0.34514607547E+01  0.21463598266E+03  0.14366581364E+04  0.14619480560E+04  0.16500000000E+03 0.  0.
   -5000001    1    1    2    0    0  0.34514607547E+01 -0.21463598266E+03  0.49939803424E+03  0.56807034269E+03  0.16500000000E+03 0.  0.
<mgrwt>
<rscale>  0 0.61045983E+03</rscale>
<asrwt>0</asrwt>
<pdfrwt beam="1">  1        2 0.28329099E+00 0.61045983E+03</pdfrwt>
<pdfrwt beam="2">  1       -2 0.67115890E-02 0.61045983E+03</pdfrwt>
<totfact> 0.10936285E+03</totfact>
</mgrwt>
</event>
<event>
 4    1  0.1025337E-004  0.3683841E+03  0.7818608E-02  0.1055313E+00
         -2   -1    0    0    0  501 -0.00000000000E+00  0.00000000000E+00  0.17364469254E+03  0.17364469256E+03  0.25500000000E-02 0. -1.
          2   -1    0    0  501    0  0.00000000000E+00 -0.00000000000E+00 -0.19538003897E+03  0.19538003898E+03  0.25500000000E-02 0.  1.
    5000001    1    1    2    0    0  0.26908797970E+02  0.22776896217E+02  0.63144756833E+02  0.18015307581E+03  0.16500000000E+03 0.  0.
   -5000001    1    1    2    0    0 -0.26908797970E+02 -0.22776896217E+02 -0.84880103258E+02  0.18887165573E+03  0.16500000000E+03 0.  0.
<mgrwt>
<rscale>  0 0.36838408E+03</rscale>
<asrwt>0</asrwt>
<pdfrwt beam="1">  1        2 0.27911434E-01 0.36838408E+03</pdfrwt>
<pdfrwt beam="2">  1       -2 0.24806385E-01 0.36838408E+03</pdfrwt>
<totfact> 0.27549371E+03</totfact>
</mgrwt>
</event>
<event>
 4    1  0.1025337E-004  0.3823052E+03  0.7818608E-02  0.1050085E+00
         -2   -1    0    0    0  501 -0.00000000000E+00  0.00000000000E+00  0.36829899044E+03  0.36829899045E+03  0.25500000000E-02 0. -1.
          2   -1    0    0  501    0  0.00000000000E+00 -0.00000000000E+00 -0.99211002482E+02  0.99211002514E+02  0.25500000000E-02 0.  1.
    5000001    1    1    2    0    0 -0.91239051297E+02  0.11397039003E+02  0.98685392198E+02  0.21311561091E+03  0.16500000000E+03 0.  0.
   -5000001    1    1    2    0    0  0.91239051297E+02 -0.11397039003E+02  0.17040259576E+03  0.25439438206E+03  0.16500000000E+03 0.  0.
<mgrwt>
<rscale>  0 0.38230518E+03</rscale>
<asrwt>0</asrwt>
<pdfrwt beam="1">  1        2 0.14173001E-01 0.38230518E+03</pdfrwt>
<pdfrwt beam="2">  1       -2 0.52614141E-01 0.38230518E+03</pdfrwt>
<totfact> 0.14563534E+03</totfact>
</mgrwt>
</event>
<event>
 4    1  0.1025337E-004  0.4301158E+03  0.7818608E-02  0.1033823E+00
          2   -1    0    0  501    0  0.00000000000E+00  0.00000000000E+00  0.48140614359E+03  0.48140614360E+03  0.25500000000E-02 0.  1.
         -2   -1    0    0    0  501 -0.00000000000E+00 -0.00000000000E+00 -0.96072518999E+02  0.96072519033E+02  0.25500000000E-02 0. -1.
    5000001    1    1    2    0    0 -0.52259894657E+02 -0.11248004097E+03  0.11164104023E+03  0.23467334333E+03  0.16500000000E+03 0.  0.
   -5000001    1    1    2    0    0  0.52259894657E+02  0.11248004097E+03  0.27369258436E+03  0.34280531930E+03  0.16500000000E+03 0.  0.
<mgrwt>
<rscale>  0 0.43011580E+03</rscale>
<asrwt>0</asrwt>
<pdfrwt beam="1">  1        2 0.68772308E-01 0.43011580E+03</pdfrwt>
<pdfrwt beam="2">  1       -2 0.13724645E-01 0.43011580E+03</pdfrwt>
<totfact> 0.28215702E+03</totfact>
</mgrwt>
</event>
<event>
 4    1  0.1025337E-004  0.8283585E+03  0.7818608E-02  0.9519853E-01
          2   -1    0    0  501    0  0.00000000000E+00  0.00000000000E+00  0.15613071736E+04  0.15613071736E+04  0.25500000000E-02 0.  1.
         -2   -1    0    0    0  501 -0.00000000000E+00 -0.00000000000E+00 -0.10987231316E+03  0.10987231319E+03  0.25500000000E-02 0. -1.
    5000001    1    1    2    0    0 -0.37928145810E+03  0.10113476898E+02  0.76414057100E+03  0.86896059699E+03  0.16500000000E+03 0.  0.
   -5000001    1    1    2    0    0  0.37928145810E+03 -0.10113476898E+02  0.68729428948E+03  0.80221888985E+03  0.16500000000E+03 0.  0.
<mgrwt>
<rscale>  0 0.82835845E+03</rscale>
<asrwt>0</asrwt>
<pdfrwt beam="1">  1        2 0.22304389E+00 0.82835845E+03</pdfrwt>
<pdfrwt beam="2">  1       -2 0.15696044E-01 0.82835845E+03</pdfrwt>
<totfact> 0.44293293E+02</totfact>
</mgrwt>
</event>
<event>
 4    1  0.1025337E-004  0.8269204E+03  0.7818608E-02  0.9521848E-01
         -2   -1    0    0    0  501 -0.00000000000E+00  0.00000000000E+00  0.11609546448E+03  0.11609546451E+03  0.25500000000E-02 0. -1.
          2   -1    0    0  501    0  0.00000000000E+00 -0.00000000000E+00 -0.14724892196E+04  0.14724892197E+04  0.25500000000E-02 0.  1.
    5000001    1    1    2    0    0 -0.10207609795E+03 -0.29917206929E+03 -0.10802542416E+04  0.11375841434E+04  0.16500000000E+03 0.  0.
   -5000001    1    1    2    0    0  0.10207609795E+03  0.29917206929E+03 -0.27613951359E+03  0.45100054078E+03  0.16500000000E+03 0.  0.
<mgrwt>
<rscale>  0 0.82692036E+03</rscale>
<asrwt>0</asrwt>
<pdfrwt beam="1">  1        2 0.21035559E+00 0.82692036E+03</pdfrwt>
<pdfrwt beam="2">  1       -2 0.16585067E-01 0.82692036E+03</pdfrwt>
<totfact> 0.44897138E+02</totfact>
</mgrwt>
</event>
<event>
 4    1  0.1025337E-004  0.4637381E+03  0.7818608E-02  0.1023703E+00
          2   -1    0    0  501    0  0.00000000000E+00  0.00000000000E+00  0.15526996024E+04  0.15526996024E+04  0.25500000000E-02 0.  1.
         -2   -1    0    0    0  501 -0.00000000000E+00 -0.00000000000E+00 -0.34625666725E+02  0.34625666819E+02  0.25500000000E-02 0. -1.
    5000001    1    1    2    0    0 -0.11475903943E+03  0.83768413741E+02  0.10318282136E+04  0.10545526287E+04  0.16500000000E+03 0.  0.
   -5000001    1    1    2    0    0  0.11475903943E+03 -0.83768413741E+02  0.48624572203E+03  0.53277264050E+03  0.16500000000E+03 0.  0.
<mgrwt>
<rscale>  0 0.46373811E+03</rscale>
<asrwt>0</asrwt>
<pdfrwt beam="1">  1        2 0.22181434E+00 0.46373811E+03</pdfrwt>
<pdfrwt beam="2">  1       -2 0.49465214E-02 0.46373811E+03</pdfrwt>
<totfact> 0.29181239E+03</totfact>
</mgrwt>
</event>
<event>
 4    1  0.1025337E-004  0.4128896E+03  0.7818608E-02  0.1039406E+00
         -2   -1    0    0    0  501 -0.00000000000E+00  0.00000000000E+00  0.10879693557E+03  0.10879693560E+03  0.25500000000E-02 0. -1.
          2   -1    0    0  501    0  0.00000000000E+00 -0.00000000000E+00 -0.39173389480E+03  0.39173389480E+03  0.25500000000E-02 0.  1.
    5000001    1    1    2    0    0 -0.38293968628E+02 -0.22410384451E+02 -0.10038689732E+01  0.17086445247E+03  0.16500000000E+03 0.  0.
   -5000001    1    1    2    0    0  0.38293968628E+02  0.22410384451E+02 -0.28193309025E+03  0.32966637794E+03  0.16500000000E+03 0.  0.
<mgrwt>
<rscale>  0 0.41288956E+03</rscale>
<asrwt>0</asrwt>
<pdfrwt beam="1">  1        2 0.55961984E-01 0.41288956E+03</pdfrwt>
<pdfrwt beam="2">  1       -2 0.15542420E-01 0.41288956E+03</pdfrwt>
<totfact> 0.28796448E+03</totfact>
</mgrwt>
</event>
<event>
 4    1  0.1025337E-004  0.3880645E+03  0.7818608E-02  0.1047993E+00
          2   -1    0    0  501    0  0.00000000000E+00  0.00000000000E+00  0.88547096783E+03  0.88547096783E+03  0.25500000000E-02 0.  1.
         -2   -1    0    0    0  501 -0.00000000000E+00 -0.00000000000E+00 -0.42518063450E+02  0.42518063526E+02  0.25500000000E-02 0. -1.
    5000001    1    1    2    0    0 -0.18461874247E+02 -0.56444019080E+02  0.62006809078E+03  0.64438824112E+03  0.16500000000E+03 0.  0.
   -5000001    1    1    2    0    0  0.18461874247E+02  0.56444019080E+02  0.22288481360E+03  0.28360079024E+03  0.16500000000E+03 0.  0.
<mgrwt>
<rscale>  0 0.38806448E+03</rscale>
<asrwt>0</asrwt>
<pdfrwt beam="1">  1        2 0.12649585E+00 0.38806448E+03</pdfrwt>
<pdfrwt beam="2">  1       -2 0.60740091E-02 0.38806448E+03</pdfrwt>
<totfact> 0.50046714E+03</totfact>
</mgrwt>
</event>
<event>
 4    1  0.1025337E-004  0.4989114E+03  0.7818608E-02  0.1014063E+00
          2   -1    0    0  501    0  0.00000000000E+00  0.00000000000E+00  0.23032560135E+03  0.23032560136E+03  0.25500000000E-02 0.  1.
         -2   -1    0    0    0  501 -0.00000000000E+00 -0.00000000000E+00 -0.27017463030E+03  0.27017463031E+03  0.25500000000E-02 0. -1.
    5000001    1    1    2    0    0 -0.23060139994E+02 -0.17847014051E+03  0.31422208976E+02  0.24616197173E+03  0.16500000000E+03 0.  0.
   -5000001    1    1    2    0    0  0.23060139994E+02  0.17847014051E+03 -0.71271237930E+02  0.25433825994E+03  0.16500000000E+03 0.  0.
<mgrwt>
<rscale>  0 0.49891135E+03</rscale>
<asrwt>0</asrwt>
<pdfrwt beam="1">  1        2 0.32903657E-01 0.49891135E+03</pdfrwt>
<pdfrwt beam="2">  1       -2 0.38596376E-01 0.49891135E+03</pdfrwt>
<totfact> 0.10180617E+03</totfact>
</mgrwt>
</event>
<event>
 4    1  0.1025337E-004  0.4571832E+03  0.7818608E-02  0.1025601E+00
          2   -1    0    0  501    0  0.00000000000E+00  0.00000000000E+00  0.31396633444E+04  0.31396633444E+04  0.25500000000E-02 0.  1.
         -2   -1    0    0    0  501 -0.00000000000E+00 -0.00000000000E+00 -0.16643223898E+02  0.16643224093E+02  0.25500000000E-02 0. -1.
    5000001    1    1    2    0    0  0.11416203733E+03  0.10919531538E+03  0.15027129916E+04  0.15199762903E+04  0.16500000000E+03 0.  0.
   -5000001    1    1    2    0    0 -0.11416203733E+03 -0.10919531538E+03  0.16203071288E+04  0.16363302782E+04  0.16500000000E+03 0.  0.
<mgrwt>
<rscale>  0 0.45718320E+03</rscale>
<asrwt>0</asrwt>
<pdfrwt beam="1">  1        2 0.44852317E+00 0.45718320E+03</pdfrwt>
<pdfrwt beam="2">  1       -2 0.23776043E-02 0.45718320E+03</pdfrwt>
<totfact> 0.13671008E+03</totfact>
</mgrwt>
</event>
<event>
 4    1  0.1025337E-004  0.4607560E+03  0.7818608E-02  0.1024562E+00
         -2   -1    0    0    0  501 -0.00000000000E+00  0.00000000000E+00  0.50275111963E+02  0.50275112028E+02  0.25500000000E-02 0. -1.
          2   -1    0    0  501    0  0.00000000000E+00 -0.00000000000E+00 -0.10556719510E+04  0.10556719510E+04  0.25500000000E-02 0.  1.
    5000001    1    1    2    0    0  0.14085963243E+03 -0.28921276178E+02 -0.67530480891E+03  0.70988693551E+03  0.16500000000E+03 0.  0.
   -5000001    1    1    2    0    0 -0.14085963243E+03  0.28921276178E+02 -0.33009203012E+03  0.39606012752E+03  0.16500000000E+03 0.  0.
<mgrwt>
<rscale>  0 0.46075601E+03</rscale>
<asrwt>0</asrwt>
<pdfrwt beam="1">  1        2 0.15081027E+00 0.46075601E+03</pdfrwt>
<pdfrwt beam="2">  1       -2 0.71821595E-02 0.46075601E+03</pdfrwt>
<totfact> 0.30362170E+03</totfact>
</mgrwt>
</event>
<event>
 4    1  0.1025337E-004  0.7268776E+03  0.7818608E-02  0.9672341E-01
          2   -1    0    0  501    0  0.00000000000E+00  0.00000000000E+00  0.26564121866E+03  0.26564121868E+03  0.25500000000E-02 0.  1.
         -2   -1    0    0    0  501 -0.00000000000E+00 -0.00000000000E+00 -0.49724116506E+03  0.49724116506E+03  0.25500000000E-02 0. -1.
    5000001    1    1    2    0    0  0.31918483403E+03  0.34331728527E+02 -0.71208713052E+02  0.36790393674E+03  0.16500000000E+03 0.  0.
   -5000001    1    1    2    0    0 -0.31918483403E+03 -0.34331728527E+02 -0.16039123334E+03  0.39497844700E+03  0.16500000000E+03 0.  0.
<mgrwt>
<rscale>  0 0.72687757E+03</rscale>
<asrwt>0</asrwt>
<pdfrwt beam="1">  1        2 0.37948746E-01 0.72687757E+03</pdfrwt>
<pdfrwt beam="2">  1       -2 0.71034451E-01 0.72687757E+03</pdfrwt>
<totfact> 0.24810359E+02</totfact>
</mgrwt>
</event>
<event>
 4    1  0.1025337E-004  0.4746608E+03  0.7818608E-02  0.1020613E+00
          2   -1    0    0  501    0  0.00000000000E+00  0.00000000000E+00  0.10371095634E+04  0.10371095635E+04  0.25500000000E-02 0.  1.
         -2   -1    0    0    0  501 -0.00000000000E+00 -0.00000000000E+00 -0.54310298882E+02  0.54310298941E+02  0.25500000000E-02 0. -1.
    5000001    1    1    2    0    0  0.13258726629E+03  0.64914588373E+02  0.29484142953E+03  0.36871364978E+03  0.16500000000E+03 0.  0.
   -5000001    1    1    2    0    0 -0.13258726629E+03 -0.64914588373E+02  0.68795783504E+03  0.72270621262E+03  0.16500000000E+03 0.  0.
<mgrwt>
<rscale>  0 0.47466085E+03</rscale>
<asrwt>0</asrwt>
<pdfrwt beam="1">  1        2 0.14815852E+00 0.47466085E+03</pdfrwt>
<pdfrwt beam="2">  1       -2 0.77586137E-02 0.47466085E+03</pdfrwt>
<totfact> 0.27569727E+03</totfact>
</mgrwt>
</event>
<event>
 4    1  0.1025337E-004  0.5361683E+03  0.7818608E-02  0.1004747E+00
          2   -1    0    0  501    0  0.00000000000E+00  0.00000000000E+00  0.25295553288E+03  0.25295553290E+03  0.25500000000E-02 0.  1.
         -2   -1    0    0    0  501 -0.00000000000E+00 -0.00000000000E+00 -0.28411754049E+03  0.28411754050E+03  0.25500000000E-02 0. -1.
    5000001    1    1    2    0    0 -0.11350033589E+03 -0.13119358505E+03  0.10524601959E+03  0.26152592155E+03  0.16500000000E+03 0.  0.
   -5000001    1    1    2    0    0  0.11350033589E+03  0.13119358505E+03 -0.13640802720E+03  0.27554715184E+03  0.16500000000E+03 0.  0.
<mgrwt>
<rscale>  0 0.53616827E+03</rscale>
<asrwt>0</asrwt>
<pdfrwt beam="1">  1        2 0.36136505E-01 0.53616827E+03</pdfrwt>
<pdfrwt beam="2">  1       -2 0.40588220E-01 0.53616827E+03</pdfrwt>
<totfact> 0.83248857E+02</totfact>
</mgrwt>
</event>
<event>
 4    1  0.1025337E-004  0.9842404E+03  0.7818608E-02  0.9326000E-01
          2   -1    0    0  501    0  0.00000000000E+00  0.00000000000E+00  0.14103760931E+04  0.14103760931E+04  0.25500000000E-02 0.  1.
         -2   -1    0    0    0  501 -0.00000000000E+00 -0.00000000000E+00 -0.17171469796E+03  0.17171469798E+03  0.25500000000E-02 0. -1.
    5000001    1    1    2    0    0  0.43368326681E+03 -0.26470517935E+02  0.87939288043E+03  0.99465506704E+03  0.16500000000E+03 0.  0.
   -5000001    1    1    2    0    0 -0.43368326681E+03  0.26470517935E+02  0.35926851473E+03  0.58743572407E+03  0.16500000000E+03 0.  0.
<mgrwt>
<rscale>  0 0.98424043E+03</rscale>
<asrwt>0</asrwt>
<pdfrwt beam="1">  1        2 0.20148231E+00 0.98424043E+03</pdfrwt>
<pdfrwt beam="2">  1       -2 0.24530669E-01 0.98424043E+03</pdfrwt>
<totfact> 0.24161491E+02</totfact>
</mgrwt>
</event>
<event>
 4    1  0.1025337E-004  0.4673216E+03  0.7818608E-02  0.1022679E+00
         -2   -1    0    0    0  501 -0.00000000000E+00  0.00000000000E+00  0.13749772856E+03  0.13749772858E+03  0.25500000000E-02 0. -1.
          2   -1    0    0  501    0  0.00000000000E+00 -0.00000000000E+00 -0.39707836258E+03  0.39707836259E+03  0.25500000000E-02 0.  1.
    5000001    1    1    2    0    0  0.16229692490E+03 -0.22443029071E+02 -0.15608522101E+03  0.28005638290E+03  0.16500000000E+03 0.  0.
   -5000001    1    1    2    0    0 -0.16229692490E+03  0.22443029071E+02 -0.10349541301E+03  0.25451970827E+03  0.16500000000E+03 0.  0.
<mgrwt>
<rscale>  0 0.46732161E+03</rscale>
<asrwt>0</asrwt>
<pdfrwt beam="1">  1        2 0.56725480E-01 0.46732161E+03</pdfrwt>
<pdfrwt beam="2">  1       -2 0.19642533E-01 0.46732161E+03</pdfrwt>
<totfact> 0.19078307E+03</totfact>
</mgrwt>
</event>
<event>
 4    1  0.1025337E-004  0.7462828E+03  0.7818608E-02  0.9641200E-01
         -2   -1    0    0    0  501 -0.00000000000E+00  0.00000000000E+00  0.45337196677E+02  0.45337196749E+02  0.25500000000E-02 0. -1.
          2   -1    0    0  501    0  0.00000000000E+00 -0.00000000000E+00 -0.30710878449E+04  0.30710878449E+04  0.25500000000E-02 0.  1.
    5000001    1    1    2    0    0  0.25671169180E+03 -0.19640857553E+03 -0.11504514263E+04  0.12063335797E+04  0.16500000000E+03 0.  0.
   -5000001    1    1    2    0    0 -0.25671169180E+03  0.19640857553E+03 -0.18752992220E+04  0.19100914620E+04  0.16500000000E+03 0.  0.
<mgrwt>
<rscale>  0 0.74628283E+03</rscale>
<asrwt>0</asrwt>
<pdfrwt beam="1">  1        2 0.43872670E+00 0.74628283E+03</pdfrwt>
<pdfrwt beam="2">  1       -2 0.64767443E-02 0.74628283E+03</pdfrwt>
<totfact> 0.31097660E+02</totfact>
</mgrwt>
</event>
<event>
 4    1  0.1025337E-004  0.5619917E+03  0.7818608E-02  0.9987558E-01
          2   -1    0    0  501    0  0.00000000000E+00  0.00000000000E+00  0.85910986602E+03  0.85910986602E+03  0.25500000000E-02 0.  1.
         -2   -1    0    0    0  501 -0.00000000000E+00 -0.00000000000E+00 -0.91907534079E+02  0.91907534115E+02  0.25500000000E-02 0. -1.
    5000001    1    1    2    0    0 -0.14392343037E+03 -0.16994467237E+03  0.46185679817E+03  0.53863888412E+03  0.16500000000E+03 0.  0.
   -5000001    1    1    2    0    0  0.14392343037E+03  0.16994467237E+03  0.30534553377E+03  0.41237851602E+03  0.16500000000E+03 0.  0.
<mgrwt>
<rscale>  0 0.56199171E+03</rscale>
<asrwt>0</asrwt>
<pdfrwt beam="1">  1        2 0.12272999E+00 0.56199171E+03</pdfrwt>
<pdfrwt beam="2">  1       -2 0.13129647E-01 0.56199171E+03</pdfrwt>
<totfact> 0.15201746E+03</totfact>
</mgrwt>
</event>
<event>
 4    1  0.1025337E-004  0.5415379E+03  0.7818608E-02  0.1003472E+00
          2   -1    0    0  501    0  0.00000000000E+00  0.00000000000E+00  0.69247457016E+03  0.69247457017E+03  0.25500000000E-02 0.  1.
         -2   -1    0    0    0  501 -0.00000000000E+00 -0.00000000000E+00 -0.10587509605E+03  0.10587509608E+03  0.25500000000E-02 0. -1.
    5000001    1    1    2    0    0  0.14264640129E+03 -0.20720273919E+02  0.58747106272E+02  0.22683374539E+03  0.16500000000E+03 0.  0.
   -5000001    1    1    2    0    0 -0.14264640129E+03  0.20720273919E+02  0.52785236784E+03  0.57151592086E+03  0.16500000000E+03 0.  0.
<mgrwt>
<rscale>  0 0.54153785E+03</rscale>
<asrwt>0</asrwt>
<pdfrwt beam="1">  1        2 0.98924943E-01 0.54153785E+03</pdfrwt>
<pdfrwt beam="2">  1       -2 0.15125013E-01 0.54153785E+03</pdfrwt>
<totfact> 0.15750822E+03</totfact>
</mgrwt>
</event>
<event>
 4    1  0.1025337E-004  0.3937831E+03  0.7818608E-02  0.1045954E+00
          2   -1    0    0  501    0  0.00000000000E+00  0.00000000000E+00  0.21894431348E+04  0.21894431348E+04  0.25500000000E-02 0.  1.
         -2   -1    0    0    0  501 -0.00000000000E+00 -0.00000000000E+00 -0.17705998905E+02  0.17705999089E+02  0.25500000000E-02 0. -1.
    5000001    1    1    2    0    0 -0.58910318317E+02  0.13502774181E+02  0.15836888662E+04  0.15934077242E+04  0.16500000000E+03 0.  0.
   -5000001    1    1    2    0    0  0.58910318317E+02 -0.13502774181E+02  0.58804826967E+03  0.61374140970E+03  0.16500000000E+03 0.  0.
<mgrwt>
<rscale>  0 0.39378308E+03</rscale>
<asrwt>0</asrwt>
<pdfrwt beam="1">  1        2 0.31277750E+00 0.39378308E+03</pdfrwt>
<pdfrwt beam="2">  1       -2 0.25294292E-02 0.39378308E+03</pdfrwt>
<totfact> 0.38867512E+03</totfact>
</mgrwt>
</event>
<event>
 4    1  0.1025337E-004  0.6032536E+03  0.7818608E-02  0.9898679E-01
         -2   -1    0    0    0  501 -0.00000000000E+00  0.00000000000E+00  0.10656580125E+03  0.10656580128E+03  0.25500000000E-02 0. -1.
          2   -1    0    0  501    0  0.00000000000E+00 -0.00000000000E+00 -0.85373297832E+03  0.85373297833E+03  0.25500000000E-02 0.  1.
    5000001    1    1    2    0    0 -0.75854670182E+02 -0.22739184891E+03 -0.49986133865E+03  0.57840067585E+03  0.16500000000E+03 0.  0.
   -5000001    1    1    2    0    0  0.75854670182E+02  0.22739184891E+03 -0.24730583842E+03  0.38189810376E+03  0.16500000000E+03 0.  0.
<mgrwt>
<rscale>  0 0.60325364E+03</rscale>
<asrwt>0</asrwt>
<pdfrwt beam="1">  1        2 0.12196185E+00 0.60325364E+03</pdfrwt>
<pdfrwt beam="2">  1       -2 0.15223686E-01 0.60325364E+03</pdfrwt>
<totfact> 0.11960402E+03</totfact>
</mgrwt>
</event>
<event>
 4    1  0.1025337E-004  0.1229934E+04  0.7818608E-02  0.9087052E-01
          2   -1    0    0  501    0  0.00000000000E+00  0.00000000000E+00  0.10040135110E+04  0.10040135110E+04  0.25500000000E-02 0.  1.
         -2   -1    0    0    0  501 -0.00000000000E+00 -0.00000000000E+00 -0.37667241748E+03  0.37667241748E+03  0.25500000000E-02 0. -1.
    5000001    1    1    2    0    0 -0.58281722986E+03 -0.10537816932E+03  0.29866357841E+03  0.68352426077E+03  0.16500000000E+03 0.  0.
   -5000001    1    1    2    0    0  0.58281722986E+03  0.10537816932E+03  0.32867751510E+03  0.69716166770E+03  0.16500000000E+03 0.  0.
<mgrwt>
<rscale>  0 0.12299337E+04</rscale>
<asrwt>0</asrwt>
<pdfrwt beam="1">  1        2 0.14343050E+00 0.12299337E+04</pdfrwt>
<pdfrwt beam="2">  1       -2 0.53810346E-01 0.12299337E+04</pdfrwt>
<totfact> 0.89509811E+01</totfact>
</mgrwt>
</event>
<event>
 4    1  0.1025337E-004  0.4991184E+03  0.7818608E-02  0.1014009E+00
         -2   -1    0    0    0  501 -0.00000000000E+00  0.00000000000E+00  0.31790071080E+02  0.31790071182E+02  0.25500000000E-02 0. -1.
          2   -1    0    0  501    0  0.00000000000E+00 -0.00000000000E+00 -0.19590958659E+04  0.19590958659E+04  0.25500000000E-02 0.  1.
    5000001    1    1    2    0    0 -0.59506619269E+02 -0.13649449923E+03 -0.51091017706E+03  0.55715885982E+03  0.16500000000E+03 0.  0.
   -5000001    1    1    2    0    0  0.59506619269E+02  0.13649449923E+03 -0.14163956178E+04  0.14337270773E+04  0.16500000000E+03 0.  0.
<mgrwt>
<rscale>  0 0.49911841E+03</rscale>
<asrwt>0</asrwt>
<pdfrwt beam="1">  1        2 0.27987076E+00 0.49911841E+03</pdfrwt>
<pdfrwt beam="2">  1       -2 0.45414400E-02 0.49911841E+03</pdfrwt>
<totfact> 0.20759688E+03</totfact>
</mgrwt>
</event>
<event>
 4    1  0.1025337E-004  0.6385803E+03  0.7818608E-02  0.9828447E-01
          2   -1    0    0  501    0  0.00000000000E+00  0.00000000000E+00  0.21902631720E+04  0.21902631720E+04  0.25500000000E-02 0.  1.
         -2   -1    0    0    0  501 -0.00000000000E+00 -0.00000000000E+00 -0.46545182006E+02  0.46545182076E+02  0.25500000000E-02 0. -1.
    5000001    1    1    2    0    0  0.21515573620E+02 -0.23650581886E+03  0.59771001273E+03  0.66398808843E+03  0.16500000000E+03 0.  0.
   -5000001    1    1    2    0    0 -0.21515573620E+02  0.23650581886E+03  0.15460079772E+04  0.15728202656E+04  0.16500000000E+03 0.  0.
<mgrwt>
<rscale>  0 0.63858029E+03</rscale>
<asrwt>0</asrwt>
<pdfrwt beam="1">  1        2 0.31289476E+00 0.63858029E+03</pdfrwt>
<pdfrwt beam="2">  1       -2 0.66493112E-02 0.63858029E+03</pdfrwt>
<totfact> 0.87147644E+02</totfact>
</mgrwt>
</event>
<event>
 4    1  0.1025337E-004  0.4918101E+03  0.7818608E-02  0.1015939E+00
         -2   -1    0    0    0  501 -0.00000000000E+00  0.00000000000E+00  0.22419583459E+02  0.22419583604E+02  0.25500000000E-02 0. -1.
          2   -1    0    0  501    0  0.00000000000E+00 -0.00000000000E+00 -0.26971639465E+04  0.26971639465E+04  0.25500000000E-02 0.  1.
    5000001    1    1    2    0    0  0.15863369154E+03  0.89230320367E+02 -0.13973372017E+04  0.14187681113E+04  0.16500000000E+03 0.  0.
   -5000001    1    1    2    0    0 -0.15863369154E+03 -0.89230320367E+02 -0.12774071613E+04  0.13008154188E+04  0.16500000000E+03 0.  0.
<mgrwt>
<rscale>  0 0.49181010E+03</rscale>
<asrwt>0</asrwt>
<pdfrwt beam="1">  1        2 0.38530893E+00 0.49181010E+03</pdfrwt>
<pdfrwt beam="2">  1       -2 0.32027994E-02 0.49181010E+03</pdfrwt>
<totfact> 0.14991400E+03</totfact>
</mgrwt>
</event>
<event>
 4    1  0.1025337E-004  0.6768529E+03  0.7818608E-02  0.9757657E-01
         -2   -1    0    0    0  501 -0.00000000000E+00  0.00000000000E+00  0.95081005575E+02  0.95081005609E+02  0.25500000000E-02 0. -1.
          2   -1    0    0  501    0  0.00000000000E+00 -0.00000000000E+00 -0.12045778851E+04  0.12045778851E+04  0.25500000000E-02 0.  1.
    5000001    1    1    2    0    0 -0.26851241382E+03  0.12298516616E+03 -0.57226386309E+03  0.66478206690E+03  0.16500000000E+03 0.  0.
   -5000001    1    1    2    0    0  0.26851241382E+03 -0.12298516616E+03 -0.53723301647E+03  0.63487682384E+03  0.16500000000E+03 0.  0.
<mgrwt>
<rscale>  0 0.67685294E+03</rscale>
<asrwt>0</asrwt>
<pdfrwt beam="1">  1        2 0.17208255E+00 0.67685294E+03</pdfrwt>
<pdfrwt beam="2">  1       -2 0.13583002E-01 0.67685294E+03</pdfrwt>
<totfact> 0.88592135E+02</totfact>
</mgrwt>
</event>
<event>
 4    1  0.1025337E-004  0.4343757E+03  0.7818608E-02  0.1032487E+00
          2   -1    0    0  501    0  0.00000000000E+00  0.00000000000E+00  0.60747234672E+03  0.60747234673E+03  0.25500000000E-02 0. -1.
         -2   -1    0    0    0  501 -0.00000000000E+00 -0.00000000000E+00 -0.77650544062E+02  0.77650544104E+02  0.25500000000E-02 0.  1.
    5000001    1    1    2    0    0 -0.12427907315E+03 -0.11016129078E+02  0.36928343781E+03  0.42327520665E+03  0.16500000000E+03 0.  0.
   -5000001    1    1    2    0    0  0.12427907315E+03  0.11016129078E+02  0.16053836485E+03  0.26184768418E+03  0.16500000000E+03 0.  0.
<mgrwt>
<rscale>  0 0.43437568E+03</rscale>
<asrwt>0</asrwt>
<pdfrwt beam="1">  1        2 0.86781766E-01 0.43437568E+03</pdfrwt>
<pdfrwt beam="2">  1       -2 0.11092935E-01 0.43437568E+03</pdfrwt>
<totfact> 0.30674957E+03</totfact>
</mgrwt>
</event>
<event>
 4    1  0.1025337E-004  0.4883837E+03  0.7818608E-02  0.1016856E+00
         -2   -1    0    0    0  501 -0.00000000000E+00  0.00000000000E+00  0.32261508873E+02  0.32261508973E+02  0.25500000000E-02 0. -1.
          2   -1    0    0  501    0  0.00000000000E+00 -0.00000000000E+00 -0.18483218084E+04  0.18483218084E+04  0.25500000000E-02 0.  1.
    5000001    1    1    2    0    0 -0.15649830795E+03 -0.58143759533E+02 -0.64879876316E+03  0.68995452911E+03  0.16500000000E+03 0.  0.
   -5000001    1    1    2    0    0  0.15649830795E+03  0.58143759533E+02 -0.11672615364E+04  0.11906287883E+04  0.16500000000E+03 0.  0.
<mgrwt>
<rscale>  0 0.48838366E+03</rscale>
<asrwt>0</asrwt>
<pdfrwt beam="1">  1        2 0.26404591E+00 0.48838366E+03</pdfrwt>
<pdfrwt beam="2">  1       -2 0.46087881E-02 0.48838366E+03</pdfrwt>
<totfact> 0.23061282E+03</totfact>
</mgrwt>
</event>
<event>
 4    1  0.1025337E-004  0.4939933E+03  0.7818608E-02  0.1015359E+00
         -2   -1    0    0    0  501 -0.00000000000E+00  0.00000000000E+00  0.91793337826E+02  0.91793337861E+02  0.25500000000E-02 0. -1.
          2   -1    0    0  501    0  0.00000000000E+00 -0.00000000000E+00 -0.66461622403E+03  0.66461622404E+03  0.25500000000E-02 0.  1.
    5000001    1    1    2    0    0 -0.16963051218E+03  0.57027516272E+02 -0.35057084283E+03  0.42679217907E+03  0.16500000000E+03 0.  0.
   -5000001    1    1    2    0    0  0.16963051218E+03 -0.57027516272E+02 -0.22225204338E+03  0.32961738283E+03  0.16500000000E+03 0.  0.
<mgrwt>
<rscale>  0 0.49399329E+03</rscale>
<asrwt>0</asrwt>
<pdfrwt beam="1">  1        2 0.94945172E-01 0.49399329E+03</pdfrwt>
<pdfrwt beam="2">  1       -2 0.13113334E-01 0.49399329E+03</pdfrwt>
<totfact> 0.20995823E+03</totfact>
</mgrwt>
</event>
<event>
 4    1  0.1025337E-004  0.5724683E+03  0.7818608E-02  0.9964232E-01
          2   -1    0    0  501    0  0.00000000000E+00  0.00000000000E+00  0.10253272766E+04  0.10253272766E+04  0.25500000000E-02 0.  1.
         -2   -1    0    0    0  501 -0.00000000000E+00 -0.00000000000E+00 -0.79906172963E+02  0.79906173004E+02  0.25500000000E-02 0. -1.
    5000001    1    1    2    0    0  0.12464012673E+03  0.13424152872E+03  0.19194241171E+03  0.31244653725E+03  0.16500000000E+03 0.  0.
   -5000001    1    1    2    0    0 -0.12464012673E+03 -0.13424152872E+03  0.75347869189E+03  0.79278691233E+03  0.16500000000E+03 0.  0.
<mgrwt>
<rscale>  0 0.57246827E+03</rscale>
<asrwt>0</asrwt>
<pdfrwt beam="1">  1        2 0.14647533E+00 0.57246827E+03</pdfrwt>
<pdfrwt beam="2">  1       -2 0.11415167E-01 0.57246827E+03</pdfrwt>
<totfact> 0.15045150E+03</totfact>
</mgrwt>
</event>
<event>
 4    1  0.1025337E-004  0.5165079E+03  0.7818608E-02  0.1009558E+00
         -2   -1    0    0    0  501 -0.00000000000E+00  0.00000000000E+00  0.36919825950E+02  0.36919826038E+02  0.25500000000E-02 0. -1.
          2   -1    0    0  501    0  0.00000000000E+00 -0.00000000000E+00 -0.18064846487E+04  0.18064846487E+04  0.25500000000E-02 0.  1.
    5000001    1    1    2    0    0  0.10149942184E+03 -0.31807039543E+02 -0.28591413582E+03  0.34682230819E+03  0.16500000000E+03 0.  0.
   -5000001    1    1    2    0    0 -0.10149942184E+03  0.31807039543E+02 -0.14836506870E+04  0.14965821666E+04  0.16500000000E+03 0.  0.
<mgrwt>
<rscale>  0 0.51650789E+03</rscale>
<asrwt>0</asrwt>
<pdfrwt beam="1">  1        2 0.25806918E+00 0.51650789E+03</pdfrwt>
<pdfrwt beam="2">  1       -2 0.52742620E-02 0.51650789E+03</pdfrwt>
<totfact> 0.19633041E+03</totfact>
</mgrwt>
</event>
<event>
 4    1  0.1025337E-004  0.3429482E+03  0.7818608E-02  0.1065547E+00
         -2   -1    0    0    0  501 -0.00000000000E+00  0.00000000000E+00  0.12758398213E+02  0.12758398468E+02  0.25500000000E-02 0. -1.
          2   -1    0    0  501    0  0.00000000000E+00 -0.00000000000E+00 -0.23046288114E+04  0.23046288114E+04  0.25500000000E-02 0.  1.
    5000001    1    1    2    0    0 -0.34770984591E+02  0.14726209350E+02 -0.13312970523E+04  0.13420144277E+04  0.16500000000E+03 0.  0.
   -5000001    1    1    2    0    0  0.34770984591E+02 -0.14726209350E+02 -0.96057336089E+03  0.97537278220E+03  0.16500000000E+03 0.  0.
<mgrwt>
<rscale>  0 0.34294823E+03</rscale>
<asrwt>0</asrwt>
<pdfrwt beam="1">  1        2 0.32923242E+00 0.34294823E+03</pdfrwt>
<pdfrwt beam="2">  1       -2 0.18226298E-02 0.34294823E+03</pdfrwt>
<totfact> 0.55528492E+03</totfact>
</mgrwt>
</event>
<event>
 4    1  0.1025337E-004  0.9728864E+03  0.7818608E-02  0.9338793E-01
          2   -1    0    0  501    0  0.00000000000E+00  0.00000000000E+00  0.27136349785E+04  0.27136349785E+04  0.25500000000E-02 0.  1.
         -2   -1    0    0    0  501 -0.00000000000E+00 -0.00000000000E+00 -0.87199274964E+02  0.87199275002E+02  0.25500000000E-02 0. -1.
    5000001    1    1    2    0    0  0.26446317745E+03  0.31395283189E+03  0.73103478311E+03  0.85448464410E+03  0.16500000000E+03 0.  0.
   -5000001    1    1    2    0    0 -0.26446317745E+03 -0.31395283189E+03  0.18954009204E+04  0.19463496094E+04  0.16500000000E+03 0.  0.
<mgrwt>
<rscale>  0 0.97288643E+03</rscale>
<asrwt>0</asrwt>
<pdfrwt beam="1">  1        2 0.38766210E+00 0.97288643E+03</pdfrwt>
<pdfrwt beam="2">  1       -2 0.12457040E-01 0.97288643E+03</pdfrwt>
<totfact> 0.16496973E+02</totfact>
</mgrwt>
</event>
<event>
 4    1  0.1025337E-004  0.3667366E+03  0.7818608E-02  0.1055948E+00
         -2   -1    0    0    0  501 -0.00000000000E+00  0.00000000000E+00  0.26167363932E+02  0.26167364056E+02  0.25500000000E-02 0. -1.
          2   -1    0    0  501    0  0.00000000000E+00 -0.00000000000E+00 -0.12849564977E+04  0.12849564977E+04  0.25500000000E-02 0.  1.
    5000001    1    1    2    0    0 -0.50664598296E+02 -0.30233360616E+02 -0.82251565385E+03  0.84097441010E+03  0.16500000000E+03 0.  0.
   -5000001    1    1    2    0    0  0.50664598296E+02  0.30233360616E+02 -0.43627347991E+03  0.47014945165E+03  0.16500000000E+03 0.  0.
<mgrwt>
<rscale>  0 0.36673655E+03</rscale>
<asrwt>0</asrwt>
<pdfrwt beam="1">  1        2 0.18356517E+00 0.36673655E+03</pdfrwt>
<pdfrwt beam="2">  1       -2 0.37381957E-02 0.36673655E+03</pdfrwt>
<totfact> 0.61696243E+03</totfact>
</mgrwt>
</event>
<event>
 4    1  0.1025337E-004  0.5419022E+03  0.7818608E-02  0.1003386E+00
          2   -1    0    0  501    0  0.00000000000E+00  0.00000000000E+00  0.63651862361E+03  0.63651862362E+03  0.25500000000E-02 0. -1.
         -2   -1    0    0    0  501 -0.00000000000E+00 -0.00000000000E+00 -0.11533754740E+03  0.11533754743E+03  0.25500000000E-02 0.  1.
    5000001    1    1    2    0    0 -0.18579570415E+03  0.10785172922E+03  0.25209903143E+03  0.37004183658E+03  0.16500000000E+03 0.  0.
   -5000001    1    1    2    0    0  0.18579570415E+03 -0.10785172922E+03  0.26908204479E+03  0.38181433446E+03  0.16500000000E+03 0.  0.
<mgrwt>
<rscale>  0 0.54190219E+03</rscale>
<asrwt>0</asrwt>
<pdfrwt beam="1">  1        2 0.90931235E-01 0.54190219E+03</pdfrwt>
<pdfrwt beam="2">  1       -2 0.16476792E-01 0.54190219E+03</pdfrwt>
<totfact> 0.15083009E+03</totfact>
</mgrwt>
</event>
<event>
 4    1  0.1025337E-004  0.3595635E+03  0.7818608E-02  0.1058757E+00
         -2   -1    0    0    0  501 -0.00000000000E+00  0.00000000000E+00  0.24603334966E+03  0.24603334967E+03  0.25500000000E-02 0. -1.
          2   -1    0    0  501    0  0.00000000000E+00 -0.00000000000E+00 -0.13137032075E+03  0.13137032078E+03  0.25500000000E-02 0.  1.
    5000001    1    1    2    0    0 -0.34825594065E+01  0.60895680582E+02  0.96267434506E+02  0.20053137181E+03  0.16500000000E+03 0.  0.
   -5000001    1    1    2    0    0  0.34825594065E+01 -0.60895680582E+02  0.18395594403E+02  0.17687229864E+03  0.16500000000E+03 0.  0.
<mgrwt>
<rscale>  0 0.35956351E+03</rscale>
<asrwt>0</asrwt>
<pdfrwt beam="1">  1        2 0.18767189E-01 0.35956351E+03</pdfrwt>
<pdfrwt beam="2">  1       -2 0.35147621E-01 0.35956351E+03</pdfrwt>
<totfact> 0.22915321E+03</totfact>
</mgrwt>
</event>
<event>
 4    1  0.1025337E-004  0.3926349E+03  0.7818608E-02  0.1046360E+00
          2   -1    0    0  501    0  0.00000000000E+00  0.00000000000E+00  0.36129122005E+03  0.36129122006E+03  0.25500000000E-02 0.  1.
         -2   -1    0    0    0  501 -0.00000000000E+00 -0.00000000000E+00 -0.10667446525E+03  0.10667446528E+03  0.25500000000E-02 0. -1.
    5000001    1    1    2    0    0  0.10616654193E+03 -0.32338730601E+01  0.13423298335E+03  0.23775047083E+03  0.16500000000E+03 0.  0.
   -5000001    1    1    2    0    0 -0.10616654193E+03  0.32338730601E+01  0.12038377145E+03  0.23021521451E+03  0.16500000000E+03 0.  0.
<mgrwt>
<rscale>  0 0.39263493E+03</rscale>
<asrwt>0</asrwt>
<pdfrwt beam="1">  1        2 0.51613032E-01 0.39263493E+03</pdfrwt>
<pdfrwt beam="2">  1       -2 0.15239209E-01 0.39263493E+03</pdfrwt>
<totfact> 0.32487668E+03</totfact>
</mgrwt>
</event>
<event>
 4    1  0.1025337E-004  0.5483555E+03  0.7818608E-02  0.1001875E+00
         -2   -1    0    0    0  501 -0.00000000000E+00  0.00000000000E+00  0.53973138318E+03  0.53973138319E+03  0.25500000000E-02 0. -1.
          2   -1    0    0  501    0  0.00000000000E+00 -0.00000000000E+00 -0.13927934535E+03  0.13927934538E+03  0.25500000000E-02 0.  1.
    5000001    1    1    2    0    0 -0.95740664206E+02 -0.19307539778E+03  0.24824860483E+03  0.36782707053E+03  0.16500000000E+03 0.  0.
   -5000001    1    1    2    0    0  0.95740664206E+02  0.19307539778E+03  0.15220343299E+03  0.31118365803E+03  0.16500000000E+03 0.  0.
<mgrwt>
<rscale>  0 0.54835548E+03</rscale>
<asrwt>0</asrwt>
<pdfrwt beam="1">  1        2 0.19897049E-01 0.54835548E+03</pdfrwt>
<pdfrwt beam="2">  1       -2 0.77104484E-01 0.54835548E+03</pdfrwt>
<totfact> 0.43328829E+02</totfact>
</mgrwt>
</event>
<event>
 4    1  0.1025337E-004  0.7680614E+03  0.7818608E-02  0.9607433E-01
         -2   -1    0    0    0  501 -0.00000000000E+00  0.00000000000E+00  0.43033087347E+03  0.43033087347E+03  0.25500000000E-02 0. -1.
          2   -1    0    0  501    0  0.00000000000E+00 -0.00000000000E+00 -0.34271204820E+03  0.34271204820E+03  0.25500000000E-02 0.  1.
    5000001    1    1    2    0    0 -0.18132072313E+03  0.22912211225E+03  0.23178375614E+03  0.40782699343E+03  0.16500000000E+03 0.  0.
   -5000001    1    1    2    0    0  0.18132072313E+03 -0.22912211225E+03 -0.14416493087E+03  0.36521592825E+03  0.16500000000E+03 0.  0.
<mgrwt>
<rscale>  0 0.76806139E+03</rscale>
<asrwt>0</asrwt>
<pdfrwt beam="1">  1        2 0.48958864E-01 0.76806139E+03</pdfrwt>
<pdfrwt beam="2">  1       -2 0.61475839E-01 0.76806139E+03</pdfrwt>
<totfact> 0.25488527E+02</totfact>
</mgrwt>
</event>
<event>
 4    1  0.1025337E-004  0.5117594E+03  0.7818608E-02  0.1010754E+00
         -2   -1    0    0    0  501 -0.00000000000E+00  0.00000000000E+00  0.51281497173E+02  0.51281497236E+02  0.25500000000E-02 0. -1.
          2   -1    0    0  501    0  0.00000000000E+00 -0.00000000000E+00 -0.12767651037E+04  0.12767651037E+04  0.25500000000E-02 0.  1.
    5000001    1    1    2    0    0  0.14354612029E+03 -0.94400173638E+02 -0.37023837834E+03  0.44024804171E+03  0.16500000000E+03 0.  0.
   -5000001    1    1    2    0    0 -0.14354612029E+03  0.94400173638E+02 -0.85524522818E+03  0.88779855922E+03  0.16500000000E+03 0.  0.
<mgrwt>
<rscale>  0 0.51175942E+03</rscale>
<asrwt>0</asrwt>
<pdfrwt beam="1">  1        2 0.18239500E+00 0.51175942E+03</pdfrwt>
<pdfrwt beam="2">  1       -2 0.73259289E-02 0.51175942E+03</pdfrwt>
<totfact> 0.22084321E+03</totfact>
</mgrwt>
</event>
<event>
 4    1  0.1025337E-004  0.5821494E+03  0.7818608E-02  0.9943148E-01
          2   -1    0    0  501    0  0.00000000000E+00  0.00000000000E+00  0.24850744123E+04  0.24850744123E+04  0.25500000000E-02 0.  1.
         -2   -1    0    0    0  501 -0.00000000000E+00 -0.00000000000E+00 -0.34093334705E+02  0.34093334800E+02  0.25500000000E-02 0. -1.
    5000001    1    1    2    0    0 -0.18857761606E+03  0.94024273239E+02  0.17207298083E+04  0.17414184317E+04  0.16500000000E+03 0.  0.
   -5000001    1    1    2    0    0  0.18857761606E+03 -0.94024273239E+02  0.73025126932E+03  0.77774931538E+03  0.16500000000E+03 0.  0.
<mgrwt>
<rscale>  0 0.58214938E+03</rscale>
<asrwt>0</asrwt>
<pdfrwt beam="1">  1        2 0.35501072E+00 0.58214938E+03</pdfrwt>
<pdfrwt beam="2">  1       -2 0.48704752E-02 0.58214938E+03</pdfrwt>
<totfact> 0.10080280E+03</totfact>
</mgrwt>
</event>
<event>
 4    1  0.1025337E-004  0.5172428E+03  0.7818608E-02  0.1009374E+00
         -2   -1    0    0    0  501 -0.00000000000E+00  0.00000000000E+00  0.56240364698E+02  0.56240364755E+02  0.25500000000E-02 0. -1.
          2   -1    0    0  501    0  0.00000000000E+00 -0.00000000000E+00 -0.11892709877E+04  0.11892709877E+04  0.25500000000E-02 0.  1.
    5000001    1    1    2    0    0 -0.90108051438E+02  0.12746277295E+03 -0.26872461188E+03  0.35185811977E+03  0.16500000000E+03 0.  0.
   -5000001    1    1    2    0    0  0.90108051438E+02 -0.12746277295E+03 -0.86430601114E+03  0.89365323270E+03  0.16500000000E+03 0.  0.
<mgrwt>
<rscale>  0 0.51724282E+03</rscale>
<asrwt>0</asrwt>
<pdfrwt beam="1">  1        2 0.16989584E+00 0.51724282E+03</pdfrwt>
<pdfrwt beam="2">  1       -2 0.80343385E-02 0.51724282E+03</pdfrwt>
<totfact> 0.21320801E+03</totfact>
</mgrwt>
</event>
<event>
 4    1  0.1025337E-004  0.8286210E+03  0.7818608E-02  0.9519489E-01
         -2   -1    0    0    0  501 -0.00000000000E+00  0.00000000000E+00  0.23030764027E+03  0.23030764029E+03  0.25500000000E-02 0. -1.
          2   -1    0    0  501    0  0.00000000000E+00 -0.00000000000E+00 -0.74532125250E+03  0.74532125250E+03  0.25500000000E-02 0.  1.
    5000001    1    1    2    0    0  0.35778292620E+03 -0.11877066356E+03 -0.31413394677E+03  0.51770670202E+03  0.16500000000E+03 0.  0.
   -5000001    1    1    2    0    0 -0.35778292620E+03  0.11877066356E+03 -0.20087966545E+03  0.45792219077E+03  0.16500000000E+03 0.  0.
<mgrwt>
<rscale>  0 0.82862097E+03</rscale>
<asrwt>0</asrwt>
<pdfrwt beam="1">  1        2 0.10647446E+00 0.82862097E+03</pdfrwt>
<pdfrwt beam="2">  1       -2 0.32901092E-01 0.82862097E+03</pdfrwt>
<totfact> 0.35953787E+02</totfact>
</mgrwt>
</event>
<event>
 4    1  0.1025337E-004  0.1242799E+04  0.7818608E-02  0.9076198E-01
         -2   -1    0    0    0  501 -0.00000000000E+00  0.00000000000E+00  0.25830670552E+03  0.25830670554E+03  0.25500000000E-02 0. -1.
          2   -1    0    0  501    0  0.00000000000E+00 -0.00000000000E+00 -0.14948800850E+04  0.14948800850E+04  0.25500000000E-02 0.  1.
    5000001    1    1    2    0    0  0.47779630488E+03  0.23529994334E+03 -0.23129544536E+03  0.60363727133E+03  0.16500000000E+03 0.  0.
   -5000001    1    1    2    0    0 -0.47779630488E+03 -0.23529994334E+03 -0.10052779341E+04  0.11495495192E+04  0.16500000000E+03 0.  0.
<mgrwt>
<rscale>  0 0.12427993E+04</rscale>
<asrwt>0</asrwt>
<pdfrwt beam="1">  1        2 0.21355429E+00 0.12427993E+04</pdfrwt>
<pdfrwt beam="2">  1       -2 0.36900959E-01 0.12427993E+04</pdfrwt>
<totfact> 0.10010330E+02</totfact>
</mgrwt>
</event>
<event>
 4    1  0.1025337E-004  0.4935383E+03  0.7818608E-02  0.1015479E+00
          2   -1    0    0  501    0  0.00000000000E+00  0.00000000000E+00  0.13658189741E+04  0.13658189741E+04  0.25500000000E-02 0.  1.
         -2   -1    0    0    0  501 -0.00000000000E+00 -0.00000000000E+00 -0.44584973733E+02  0.44584973806E+02  0.25500000000E-02 0. -1.
    5000001    1    1    2    0    0  0.16439264586E+03  0.81306458269E+02  0.64387518906E+03  0.68951863010E+03  0.16500000000E+03 0.  0.
   -5000001    1    1    2    0    0 -0.16439264586E+03 -0.81306458269E+02  0.67735881126E+03  0.72088531776E+03  0.16500000000E+03 0.  0.
<mgrwt>
<rscale>  0 0.49353826E+03</rscale>
<asrwt>0</asrwt>
<pdfrwt beam="1">  1        2 0.19511703E+00 0.49353826E+03</pdfrwt>
<pdfrwt beam="2">  1       -2 0.63692808E-02 0.49353826E+03</pdfrwt>
<totfact> 0.24651744E+03</totfact>
</mgrwt>
</event>
<event>
 4    1  0.1025337E-004  0.4980225E+03  0.7818608E-02  0.1014296E+00
         -2   -1    0    0    0  501 -0.00000000000E+00  0.00000000000E+00  0.29710336508E+02  0.29710336618E+02  0.25500000000E-02 0. -1.
          2   -1    0    0  501    0  0.00000000000E+00 -0.00000000000E+00 -0.20870382577E+04  0.20870382577E+04  0.25500000000E-02 0.  1.
    5000001    1    1    2    0    0  0.59818920369E+02 -0.17588852360E+03 -0.10980537966E+04  0.11258162444E+04  0.16500000000E+03 0.  0.
   -5000001    1    1    2    0    0 -0.59818920369E+02  0.17588852360E+03 -0.95927412457E+03  0.99093234988E+03  0.16500000000E+03 0.  0.
<mgrwt>
<rscale>  0 0.49802253E+03</rscale>
<asrwt>0</asrwt>
<pdfrwt beam="1">  1        2 0.29814823E+00 0.49802253E+03</pdfrwt>
<pdfrwt beam="2">  1       -2 0.42443351E-02 0.49802253E+03</pdfrwt>
<totfact> 0.19885409E+03</totfact>
</mgrwt>
</event>
<event>
 4    1  0.1025337E-004  0.4892209E+03  0.7818608E-02  0.1016631E+00
          2   -1    0    0  501    0  0.00000000000E+00  0.00000000000E+00  0.10450829735E+04  0.10450829735E+04  0.25500000000E-02 0.  1.
         -2   -1    0    0    0  501 -0.00000000000E+00 -0.00000000000E+00 -0.57253141264E+02  0.57253141321E+02  0.25500000000E-02 0. -1.
    5000001    1    1    2    0    0  0.17030060820E+03  0.52231785798E+02  0.42711735945E+03  0.49130916473E+03  0.16500000000E+03 0.  0.
   -5000001    1    1    2    0    0 -0.17030060820E+03 -0.52231785798E+02  0.56071247275E+03  0.61102695006E+03  0.16500000000E+03 0.  0.
<mgrwt>
<rscale>  0 0.48922094E+03</rscale>
<asrwt>0</asrwt>
<pdfrwt beam="1">  1        2 0.14929755E+00 0.48922094E+03</pdfrwt>
<pdfrwt beam="2">  1       -2 0.81790209E-02 0.48922094E+03</pdfrwt>
<totfact> 0.25083825E+03</totfact>
</mgrwt>
</event>
<event>
 4    1  0.1025337E-004  0.4112643E+03  0.7818608E-02  0.1039948E+00
         -2   -1    0    0    0  501 -0.00000000000E+00  0.00000000000E+00  0.12890581871E+02  0.12890582123E+02  0.25500000000E-02 0. -1.
          2   -1    0    0  501    0  0.00000000000E+00 -0.00000000000E+00 -0.32802690152E+04  0.32802690152E+04  0.25500000000E-02 0.  1.
    5000001    1    1    2    0    0  0.98564448814E+02  0.52988812471E+02 -0.20369963674E+04  0.20467295780E+04  0.16500000000E+03 0.  0.
   -5000001    1    1    2    0    0 -0.98564448814E+02 -0.52988812471E+02 -0.12303820660E+04  0.12464300193E+04  0.16500000000E+03 0.  0.
<mgrwt>
<rscale>  0 0.41126428E+03</rscale>
<asrwt>0</asrwt>
<pdfrwt beam="1">  1        2 0.46860932E+00 0.41126428E+03</pdfrwt>
<pdfrwt beam="2">  1       -2 0.18415138E-02 0.41126428E+03</pdfrwt>
<totfact> 0.16791122E+03</totfact>
</mgrwt>
</event>
<event>
 4    1  0.1025337E-004  0.4278816E+03  0.7818608E-02  0.1034531E+00
         -2   -1    0    0    0  501 -0.00000000000E+00  0.00000000000E+00  0.48373132868E+03  0.48373132869E+03  0.25500000000E-02 0. -1.
          2   -1    0    0  501    0  0.00000000000E+00 -0.00000000000E+00 -0.94620009427E+02  0.94620009461E+02  0.25500000000E-02 0.  1.
    5000001    1    1    2    0    0 -0.58680689534E+02  0.11675675246E+03  0.24638093690E+03  0.32404340548E+03  0.16500000000E+03 0.  0.
   -5000001    1    1    2    0    0  0.58680689534E+02 -0.11675675246E+03  0.14273038235E+03  0.25430793267E+03  0.16500000000E+03 0.  0.
<mgrwt>
<rscale>  0 0.42788159E+03</rscale>
<asrwt>0</asrwt>
<pdfrwt beam="1">  1        2 0.13517144E-01 0.42788159E+03</pdfrwt>
<pdfrwt beam="2">  1       -2 0.69104475E-01 0.42788159E+03</pdfrwt>
<totfact> 0.87324758E+02</totfact>
</mgrwt>
</event>
<event>
 4    1  0.1025337E-004  0.5356955E+03  0.7818608E-02  0.1004860E+00
          2   -1    0    0  501    0  0.00000000000E+00  0.00000000000E+00  0.99596671684E+03  0.99596671684E+03  0.25500000000E-02 0.  1.
         -2   -1    0    0    0  501 -0.00000000000E+00 -0.00000000000E+00 -0.72032958690E+02  0.72032958735E+02  0.25500000000E-02 0. -1.
    5000001    1    1    2    0    0  0.18920975525E+03 -0.93111335061E+02  0.47568952244E+03  0.54587138957E+03  0.16500000000E+03 0.  0.
   -5000001    1    1    2    0    0 -0.18920975525E+03  0.93111335061E+02  0.44824423571E+03  0.52212828601E+03  0.16500000000E+03 0.  0.
<mgrwt>
<rscale>  0 0.53569555E+03</rscale>
<asrwt>0</asrwt>
<pdfrwt beam="1">  1        2 0.14228096E+00 0.53569555E+03</pdfrwt>
<pdfrwt beam="2">  1       -2 0.10290423E-01 0.53569555E+03</pdfrwt>
<totfact> 0.18566463E+03</totfact>
</mgrwt>
</event>
<event>
 4    1  0.1025337E-004  0.5515834E+03  0.7818608E-02  0.1001128E+00
         -2   -1    0    0    0  501 -0.00000000000E+00  0.00000000000E+00  0.16239648693E+03  0.16239648695E+03  0.25500000000E-02 0. -1.
          2   -1    0    0  501    0  0.00000000000E+00 -0.00000000000E+00 -0.46836644267E+03  0.46836644268E+03  0.25500000000E-02 0.  1.
    5000001    1    1    2    0    0 -0.21188001442E+03 -0.21416879386E+01 -0.22474977039E+03  0.35019307050E+03  0.16500000000E+03 0.  0.
   -5000001    1    1    2    0    0  0.21188001442E+03  0.21416879386E+01 -0.81220185358E+02  0.28056985912E+03  0.16500000000E+03 0.  0.
<mgrwt>
<rscale>  0 0.55158341E+03</rscale>
<asrwt>0</asrwt>
<pdfrwt beam="1">  1        2 0.66909491E-01 0.55158341E+03</pdfrwt>
<pdfrwt beam="2">  1       -2 0.23199498E-01 0.55158341E+03</pdfrwt>
<totfact> 0.11869779E+03</totfact>
</mgrwt>
</event>
<event>
 4    1  0.1025337E-004  0.6036409E+03  0.7818608E-02  0.9897881E-01
         -2   -1    0    0    0  501 -0.00000000000E+00  0.00000000000E+00  0.52761432769E+02  0.52761432831E+02  0.25500000000E-02 0. -1.
          2   -1    0    0  501    0  0.00000000000E+00 -0.00000000000E+00 -0.17265563396E+04  0.17265563396E+04  0.25500000000E-02 0.  1.
    5000001    1    1    2    0    0 -0.12658988187E+03 -0.17972248279E+03 -0.12044132794E+04  0.12353790983E+04  0.16500000000E+03 0.  0.
   -5000001    1    1    2    0    0  0.12658988187E+03  0.17972248279E+03 -0.46938162746E+03  0.54393867413E+03  0.16500000000E+03 0.  0.
<mgrwt>
<rscale>  0 0.60364091E+03</rscale>
<asrwt>0</asrwt>
<pdfrwt beam="1">  1        2 0.24665087E+00 0.60364091E+03</pdfrwt>
<pdfrwt beam="2">  1       -2 0.75373486E-02 0.60364091E+03</pdfrwt>
<totfact> 0.12263875E+03</totfact>
</mgrwt>
</event>
<event>
 4    1  0.1025337E-004  0.4235096E+03  0.7818608E-02  0.1035930E+00
          2   -1    0    0  501    0  0.00000000000E+00  0.00000000000E+00  0.29774491951E+04  0.29774491951E+04  0.25500000000E-02 0.  1.
         -2   -1    0    0    0  501 -0.00000000000E+00 -0.00000000000E+00 -0.15059902873E+02  0.15059903089E+02  0.25500000000E-02 0. -1.
    5000001    1    1    2    0    0  0.81623091728E+02 -0.36956956386E+02  0.78934383493E+03  0.81136726300E+03  0.16500000000E+03 0.  0.
   -5000001    1    1    2    0    0 -0.81623091728E+02  0.36956956386E+02  0.21730454573E+04  0.21811418352E+04  0.16500000000E+03 0.  0.
<mgrwt>
<rscale>  0 0.42350960E+03</rscale>
<asrwt>0</asrwt>
<pdfrwt beam="1">  1        2 0.42534943E+00 0.42350960E+03</pdfrwt>
<pdfrwt beam="2">  1       -2 0.21514170E-02 0.42350960E+03</pdfrwt>
<totfact> 0.19509802E+03</totfact>
</mgrwt>
</event>
<event>
 4    1  0.1025337E-004  0.5180801E+03  0.7818608E-02  0.1009165E+00
          2   -1    0    0  501    0  0.00000000000E+00  0.00000000000E+00  0.87979787117E+03  0.87979787117E+03  0.25500000000E-02 0.  1.
         -2   -1    0    0    0  501 -0.00000000000E+00 -0.00000000000E+00 -0.76269496185E+02  0.76269496228E+02  0.25500000000E-02 0. -1.
    5000001    1    1    2    0    0 -0.18828380285E+03  0.31005404496E+02  0.51038651141E+03  0.56932549262E+03  0.16500000000E+03 0.  0.
   -5000001    1    1    2    0    0  0.18828380285E+03 -0.31005404496E+02  0.29314186358E+03  0.38674187478E+03  0.16500000000E+03 0.  0.
<mgrwt>
<rscale>  0 0.51808007E+03</rscale>
<asrwt>0</asrwt>
<pdfrwt beam="1">  1        2 0.12568541E+00 0.51808007E+03</pdfrwt>
<pdfrwt beam="2">  1       -2 0.10895642E-01 0.51808007E+03</pdfrwt>
<totfact> 0.20019869E+03</totfact>
</mgrwt>
</event>
<event>
 4    1  0.1025337E-004  0.4308084E+03  0.7818608E-02  0.1033605E+00
          2   -1    0    0  501    0  0.00000000000E+00  0.00000000000E+00  0.23946170680E+03  0.23946170681E+03  0.25500000000E-02 0.  1.
         -2   -1    0    0    0  501 -0.00000000000E+00 -0.00000000000E+00 -0.19376358677E+03  0.19376358679E+03  0.25500000000E-02 0. -1.
    5000001    1    1    2    0    0 -0.25126212107E+02  0.90541525750E+02 -0.79431264900E+02  0.20582376020E+03  0.16500000000E+03 0.  0.
   -5000001    1    1    2    0    0  0.25126212107E+02 -0.90541525750E+02  0.12512938493E+03  0.22740153340E+03  0.16500000000E+03 0.  0.
<mgrwt>
<rscale>  0 0.43080835E+03</rscale>
<asrwt>0</asrwt>
<pdfrwt beam="1">  1        2 0.34208815E-01 0.43080835E+03</pdfrwt>
<pdfrwt beam="2">  1       -2 0.27680512E-01 0.43080835E+03</pdfrwt>
<totfact> 0.18107896E+03</totfact>
</mgrwt>
</event>
<event>
 4    1  0.1025337E-004  0.5809154E+03  0.7818608E-02  0.9945811E-01
          2   -1    0    0  501    0  0.00000000000E+00  0.00000000000E+00  0.19056665277E+04  0.19056665277E+04  0.25500000000E-02 0.  1.
         -2   -1    0    0    0  501 -0.00000000000E+00 -0.00000000000E+00 -0.44270954819E+02  0.44270954893E+02  0.25500000000E-02 0. -1.
    5000001    1    1    2    0    0 -0.16641407745E+03  0.16505418579E+03  0.10882875892E+04  0.11254027751E+04  0.16500000000E+03 0.  0.
   -5000001    1    1    2    0    0  0.16641407745E+03 -0.16505418579E+03  0.77310798372E+03  0.82453470752E+03  0.16500000000E+03 0.  0.
<mgrwt>
<rscale>  0 0.58091540E+03</rscale>
<asrwt>0</asrwt>
<pdfrwt beam="1">  1        2 0.27223802E+00 0.58091540E+03</pdfrwt>
<pdfrwt beam="2">  1       -2 0.63244234E-02 0.58091540E+03</pdfrwt>
<totfact> 0.13152238E+03</totfact>
</mgrwt>
</event>
<event>
 4    1  0.1025337E-004  0.3754419E+03  0.7818608E-02  0.1052631E+00
         -2   -1    0    0    0  501 -0.00000000000E+00  0.00000000000E+00  0.83651079530E+01  0.83651083416E+01  0.25500000000E-02 0. -1.
          2   -1    0    0  501    0  0.00000000000E+00 -0.00000000000E+00 -0.42126368977E+04  0.42126368977E+04  0.25500000000E-02 0.  1.
    5000001    1    1    2    0    0 -0.72610828047E+01  0.88792627680E+02 -0.20032832454E+04  0.20120401625E+04  0.16500000000E+03 0.  0.
   -5000001    1    1    2    0    0  0.72610828047E+01 -0.88792627680E+02 -0.22009885443E+04  0.22089618436E+04  0.16500000000E+03 0.  0.
<mgrwt>
<rscale>  0 0.37544194E+03</rscale>
<asrwt>0</asrwt>
<pdfrwt beam="1">  1        2 0.60180391E+00 0.37544194E+03</pdfrwt>
<pdfrwt beam="2">  1       -2 0.11950182E-02 0.37544194E+03</pdfrwt>
<totfact> 0.83981116E+02</totfact>
</mgrwt>
</event>
<event>
 4    1  0.1025337E-004  0.9279450E+03  0.7818608E-02  0.9391308E-01
         -2   -1    0    0    0  501 -0.00000000000E+00  0.00000000000E+00  0.10821830133E+03  0.10821830136E+03  0.25500000000E-02 0. -1.
          2   -1    0    0  501    0  0.00000000000E+00 -0.00000000000E+00 -0.19892244315E+04  0.19892244315E+04  0.25500000000E-02 0.  1.
    5000001    1    1    2    0    0  0.14898467056E+03 -0.37342124535E+03 -0.57320711637E+03  0.71932694708E+03  0.16500000000E+03 0.  0.
   -5000001    1    1    2    0    0 -0.14898467056E+03  0.37342124535E+03 -0.13077990138E+04  0.13781157858E+04  0.16500000000E+03 0.  0.
<mgrwt>
<rscale>  0 0.92794502E+03</rscale>
<asrwt>0</asrwt>
<pdfrwt beam="1">  1        2 0.28417490E+00 0.92794502E+03</pdfrwt>
<pdfrwt beam="2">  1       -2 0.15459759E-01 0.92794502E+03</pdfrwt>
<totfact> 0.27243189E+02</totfact>
</mgrwt>
</event>
<event>
 4    1  0.1025337E-004  0.4437809E+03  0.7818608E-02  0.1029593E+00
          2   -1    0    0  501    0  0.00000000000E+00  0.00000000000E+00  0.54022789479E+03  0.54022789480E+03  0.25500000000E-02 0.  1.
         -2   -1    0    0    0  501 -0.00000000000E+00 -0.00000000000E+00 -0.91138160773E+02  0.91138160808E+02  0.25500000000E-02 0. -1.
    5000001    1    1    2    0    0 -0.36202294922E+02  0.11816901120E+03  0.34130887062E+03  0.39873708948E+03  0.16500000000E+03 0.  0.
   -5000001    1    1    2    0    0  0.36202294922E+02 -0.11816901120E+03  0.10778086340E+03  0.23262896613E+03  0.16500000000E+03 0.  0.
<mgrwt>
<rscale>  0 0.44378092E+03</rscale>
<asrwt>0</asrwt>
<pdfrwt beam="1">  1        2 0.77175412E-01 0.44378092E+03</pdfrwt>
<pdfrwt beam="2">  1       -2 0.13019738E-01 0.44378092E+03</pdfrwt>
<totfact> 0.27035213E+03</totfact>
</mgrwt>
</event>
<event>
 4    1  0.1025337E-004  0.3998216E+03  0.7818608E-02  0.1043841E+00
          2   -1    0    0  501    0  0.00000000000E+00  0.00000000000E+00  0.73400565551E+03  0.73400565552E+03  0.25500000000E-02 0.  1.
         -2   -1    0    0    0  501 -0.00000000000E+00 -0.00000000000E+00 -0.54446905720E+02  0.54446905780E+02  0.25500000000E-02 0. -1.
    5000001    1    1    2    0    0  0.10536283874E+03 -0.32468855887E+02  0.38742628608E+03  0.43529263896E+03  0.16500000000E+03 0.  0.
   -5000001    1    1    2    0    0 -0.10536283874E+03  0.32468855887E+02  0.29213246371E+03  0.35315992233E+03  0.16500000000E+03 0.  0.
<mgrwt>
<rscale>  0 0.39982164E+03</rscale>
<asrwt>0</asrwt>
<pdfrwt beam="1">  1        2 0.10485795E+00 0.39982164E+03</pdfrwt>
<pdfrwt beam="2">  1       -2 0.77781296E-02 0.39982164E+03</pdfrwt>
<totfact> 0.43114092E+03</totfact>
</mgrwt>
</event>
<event>
 4    1  0.1025337E-004  0.6373232E+03  0.7818608E-02  0.9830861E-01
          2   -1    0    0  501    0  0.00000000000E+00  0.00000000000E+00  0.12630571065E+03  0.12630571068E+03  0.25500000000E-02 0.  1.
         -2   -1    0    0    0  501 -0.00000000000E+00 -0.00000000000E+00 -0.80396385343E+03  0.80396385343E+03  0.25500000000E-02 0. -1.
    5000001    1    1    2    0    0 -0.14973117639E+03 -0.22691308917E+03 -0.30922834596E+03  0.44357202929E+03  0.16500000000E+03 0.  0.
   -5000001    1    1    2    0    0  0.14973117639E+03  0.22691308917E+03 -0.36842979681E+03  0.48669753482E+03  0.16500000000E+03 0.  0.
<mgrwt>
<rscale>  0 0.63732323E+03</rscale>
<asrwt>0</asrwt>
<pdfrwt beam="1">  1        2 0.18043673E-01 0.63732323E+03</pdfrwt>
<pdfrwt beam="2">  1       -2 0.11485198E+00 0.63732323E+03</pdfrwt>
<totfact> 0.19218216E+02</totfact>
</mgrwt>
</event>
<event>
 4    1  0.1025337E-004  0.8963414E+03  0.7818608E-02  0.9430166E-01
         -2   -1    0    0    0  501 -0.00000000000E+00  0.00000000000E+00  0.12677743315E+03  0.12677743318E+03  0.25500000000E-02 0. -1.
          2   -1    0    0  501    0  0.00000000000E+00 -0.00000000000E+00 -0.15843276489E+04  0.15843276489E+04  0.25500000000E-02 0.  1.
    5000001    1    1    2    0    0 -0.74183902763E+02  0.40964517795E+03 -0.69464907669E+03  0.82648337128E+03  0.16500000000E+03 0.  0.
   -5000001    1    1    2    0    0  0.74183902763E+02 -0.40964517795E+03 -0.76290113900E+03  0.88462171076E+03  0.16500000000E+03 0.  0.
<mgrwt>
<rscale>  0 0.89634144E+03</rscale>
<asrwt>0</asrwt>
<pdfrwt beam="1">  1        2 0.22633251E+00 0.89634144E+03</pdfrwt>
<pdfrwt beam="2">  1       -2 0.18111063E-01 0.89634144E+03</pdfrwt>
<totfact> 0.33574779E+02</totfact>
</mgrwt>
</event>
<event>
 4    1  0.1025337E-004  0.4646547E+03  0.7818608E-02  0.1023440E+00
          2   -1    0    0  501    0  0.00000000000E+00  0.00000000000E+00  0.60815714573E+03  0.60815714573E+03  0.25500000000E-02 0.  1.
         -2   -1    0    0    0  501 -0.00000000000E+00 -0.00000000000E+00 -0.88753376342E+02  0.88753376379E+02  0.25500000000E-02 0. -1.
    5000001    1    1    2    0    0  0.63288039223E+02 -0.15081618945E+03  0.26017886419E+03  0.34881075138E+03  0.16500000000E+03 0.  0.
   -5000001    1    1    2    0    0 -0.63288039223E+02  0.15081618945E+03  0.25922490519E+03  0.34809977073E+03  0.16500000000E+03 0.  0.
<mgrwt>
<rscale>  0 0.46465471E+03</rscale>
<asrwt>0</asrwt>
<pdfrwt beam="1">  1        2 0.86879592E-01 0.46465471E+03</pdfrwt>
<pdfrwt beam="2">  1       -2 0.12679054E-01 0.46465471E+03</pdfrwt>
<totfact> 0.24643412E+03</totfact>
</mgrwt>
</event>
<event>
 4    1  0.1025337E-004  0.4860176E+03  0.7818608E-02  0.1017494E+00
          2   -1    0    0  501    0  0.00000000000E+00  0.00000000000E+00  0.29564346505E+03  0.29564346506E+03  0.25500000000E-02 0.  1.
         -2   -1    0    0    0  501 -0.00000000000E+00 -0.00000000000E+00 -0.19974489285E+03  0.19974489286E+03  0.25500000000E-02 0. -1.
    5000001    1    1    2    0    0  0.68657367508E+02 -0.15212054465E+03 -0.16304040746E+02  0.23525585213E+03  0.16500000000E+03 0.  0.
   -5000001    1    1    2    0    0 -0.68657367508E+02  0.15212054465E+03  0.11220261295E+03  0.26013250580E+03  0.16500000000E+03 0.  0.
<mgrwt>
<rscale>  0 0.48601758E+03</rscale>
<asrwt>0</asrwt>
<pdfrwt beam="1">  1        2 0.42234780E-01 0.48601758E+03</pdfrwt>
<pdfrwt beam="2">  1       -2 0.28534985E-01 0.48601758E+03</pdfrwt>
<totfact> 0.13602136E+03</totfact>
</mgrwt>
</event>
<event>
 4    1  0.1025337E-004  0.3782929E+03  0.7818608E-02  0.1051567E+00
         -2   -1    0    0    0  501 -0.00000000000E+00  0.00000000000E+00  0.52661572223E+02  0.52661572285E+02  0.25500000000E-02 0. -1.
          2   -1    0    0  501    0  0.00000000000E+00 -0.00000000000E+00 -0.67936396344E+03  0.67936396344E+03  0.25500000000E-02 0.  1.
    5000001    1    1    2    0    0 -0.19883855427E+02  0.90189776103E+02 -0.30431394830E+03  0.35827579118E+03  0.16500000000E+03 0.  0.
   -5000001    1    1    2    0    0  0.19883855427E+02 -0.90189776103E+02 -0.32238844292E+03  0.37374974454E+03  0.16500000000E+03 0.  0.
<mgrwt>
<rscale>  0 0.37829287E+03</rscale>
<asrwt>0</asrwt>
<pdfrwt beam="1">  1        2 0.97051989E-01 0.37829287E+03</pdfrwt>
<pdfrwt beam="2">  1       -2 0.75230822E-02 0.37829287E+03</pdfrwt>
<totfact> 0.49830169E+03</totfact>
</mgrwt>
</event>
<event>
 4    1  0.1025337E-004  0.4240391E+03  0.7818608E-02  0.1035760E+00
         -2   -1    0    0    0  501 -0.00000000000E+00  0.00000000000E+00  0.30968909704E+02  0.30968909809E+02  0.25500000000E-02 0. -1.
          2   -1    0    0  501    0  0.00000000000E+00 -0.00000000000E+00 -0.14515294062E+04  0.14515294062E+04  0.25500000000E-02 0.  1.
    5000001    1    1    2    0    0 -0.75549368590E+02 -0.51263731935E+02 -0.37146865279E+03  0.41659289157E+03  0.16500000000E+03 0.  0.
   -5000001    1    1    2    0    0  0.75549368590E+02  0.51263731935E+02 -0.10490918437E+04  0.10659054244E+04  0.16500000000E+03 0.  0.
<mgrwt>
<rscale>  0 0.42403907E+03</rscale>
<asrwt>0</asrwt>
<pdfrwt beam="1">  1        2 0.20736130E+00 0.42403907E+03</pdfrwt>
<pdfrwt beam="2">  1       -2 0.44241309E-02 0.42403907E+03</pdfrwt>
<totfact> 0.39061808E+03</totfact>
</mgrwt>
</event>
<event>
 4    1  0.1025337E-004  0.5909292E+03  0.7818608E-02  0.9924406E-01
         -2   -1    0    0    0  501 -0.00000000000E+00  0.00000000000E+00  0.29927247434E+03  0.29927247435E+03  0.25500000000E-02 0. -1.
          2   -1    0    0  501    0  0.00000000000E+00 -0.00000000000E+00 -0.29170520491E+03  0.29170520492E+03  0.25500000000E-02 0.  1.
    5000001    1    1    2    0    0  0.16157570918E+03  0.18430236147E+03  0.43015742373E+01  0.29549547167E+03  0.16500000000E+03 0.  0.
   -5000001    1    1    2    0    0 -0.16157570918E+03 -0.18430236147E+03  0.32656951962E+01  0.29548220759E+03  0.16500000000E+03 0.  0.
<mgrwt>
<rscale>  0 0.59092923E+03</rscale>
<asrwt>0</asrwt>
<pdfrwt beam="1">  1        2 0.41672172E-01 0.59092923E+03</pdfrwt>
<pdfrwt beam="2">  1       -2 0.42753211E-01 0.59092923E+03</pdfrwt>
<totfact> 0.64217803E+02</totfact>
</mgrwt>
</event>
<event>
 4    1  0.1025337E-004  0.5830899E+03  0.7818608E-02  0.9941124E-01
          2   -1    0    0  501    0  0.00000000000E+00  0.00000000000E+00  0.11108398955E+04  0.11108398955E+04  0.25500000000E-02 0.  1.
         -2   -1    0    0    0  501 -0.00000000000E+00 -0.00000000000E+00 -0.76517288424E+02  0.76517288466E+02  0.25500000000E-02 0. -1.
    5000001    1    1    2    0    0 -0.15766006242E+03 -0.16638751838E+03  0.36986973927E+03  0.46537095482E+03  0.16500000000E+03 0.  0.
   -5000001    1    1    2    0    0  0.15766006242E+03  0.16638751838E+03  0.66445286780E+03  0.72198622915E+03  0.16500000000E+03 0.  0.
<mgrwt>
<rscale>  0 0.58308990E+03</rscale>
<asrwt>0</asrwt>
<pdfrwt beam="1">  1        2 0.15869141E+00 0.58308990E+03</pdfrwt>
<pdfrwt beam="2">  1       -2 0.10931041E-01 0.58308990E+03</pdfrwt>
<totfact> 0.14377584E+03</totfact>
</mgrwt>
</event>
<event>
 4    1  0.1025337E-004  0.8591827E+03  0.7818608E-02  0.9478094E-01
         -2   -1    0    0    0  501 -0.00000000000E+00  0.00000000000E+00  0.15473438675E+03  0.15473438677E+03  0.25500000000E-02 0. -1.
          2   -1    0    0  501    0  0.00000000000E+00 -0.00000000000E+00 -0.11926807232E+04  0.11926807232E+04  0.25500000000E-02 0.  1.
    5000001    1    1    2    0    0 -0.60538625048E+02 -0.39169809030E+03 -0.49511710723E+03  0.65533065619E+03  0.16500000000E+03 0.  0.
   -5000001    1    1    2    0    0  0.60538625048E+02  0.39169809030E+03 -0.54282922918E+03  0.69208445375E+03  0.16500000000E+03 0.  0.
<mgrwt>
<rscale>  0 0.85918268E+03</rscale>
<asrwt>0</asrwt>
<pdfrwt beam="1">  1        2 0.17038295E+00 0.85918268E+03</pdfrwt>
<pdfrwt beam="2">  1       -2 0.22104913E-01 0.85918268E+03</pdfrwt>
<totfact> 0.38640830E+02</totfact>
</mgrwt>
</event>
<event>
 4    1  0.1025337E-004  0.1199358E+04  0.7818608E-02  0.9113418E-01
          2   -1    0    0  501    0  0.00000000000E+00  0.00000000000E+00  0.12205200002E+04  0.12205200002E+04  0.25500000000E-02 0.  1.
         -2   -1    0    0    0  501 -0.00000000000E+00 -0.00000000000E+00 -0.29464086907E+03  0.29464086908E+03  0.25500000000E-02 0. -1.
    5000001    1    1    2    0    0  0.30483855813E+03  0.32641621714E+03  0.23666389973E+01  0.47613516391E+03  0.16500000000E+03 0.  0.
   -5000001    1    1    2    0    0 -0.30483855813E+03 -0.32641621714E+03  0.92351249218E+03  0.10390257054E+04  0.16500000000E+03 0.  0.
<mgrwt>
<rscale>  0 0.11993583E+04</rscale>
<asrwt>0</asrwt>
<pdfrwt beam="1">  1        2 0.17436000E+00 0.11993583E+04</pdfrwt>
<pdfrwt beam="2">  1       -2 0.42091553E-01 0.11993583E+04</pdfrwt>
<totfact> 0.10975248E+02</totfact>
</mgrwt>
</event>
<event>
 4    1  0.1025337E-004  0.5431535E+03  0.7818608E-02  0.1003091E+00
         -2   -1    0    0    0  501 -0.00000000000E+00  0.00000000000E+00  0.12689463079E+04  0.12689463079E+04  0.25500000000E-02 0. -1.
          2   -1    0    0  501    0  0.00000000000E+00 -0.00000000000E+00 -0.58122180303E+02  0.58122180359E+02  0.25500000000E-02 0.  1.
    5000001    1    1    2    0    0 -0.89385676234E+02  0.16132720903E+03  0.33210832828E+03  0.41417050740E+03  0.16500000000E+03 0.  0.
   -5000001    1    1    2    0    0  0.89385676234E+02 -0.16132720903E+03  0.87871579931E+03  0.91289798086E+03  0.16500000000E+03 0.  0.
<mgrwt>
<rscale>  0 0.54315348E+03</rscale>
<asrwt>0</asrwt>
<pdfrwt beam="1">  1        2 0.83031682E-02 0.54315348E+03</pdfrwt>
<pdfrwt beam="2">  1       -2 0.18127805E+00 0.54315348E+03</pdfrwt>
<totfact> 0.15344187E+02</totfact>
</mgrwt>
</event>
<event>
 4    1  0.1025337E-004  0.5089691E+03  0.7818608E-02  0.1011464E+00
         -2   -1    0    0    0  501 -0.00000000000E+00  0.00000000000E+00  0.19932124870E+03  0.19932124872E+03  0.25500000000E-02 0. -1.
          2   -1    0    0  501    0  0.00000000000E+00 -0.00000000000E+00 -0.32491455073E+03  0.32491455074E+03  0.25500000000E-02 0.  1.
    5000001    1    1    2    0    0  0.16257798785E+03 -0.80795377683E+02  0.68928643119E+01  0.24542209918E+03  0.16500000000E+03 0.  0.
   -5000001    1    1    2    0    0 -0.16257798785E+03  0.80795377683E+02 -0.13248616635E+03  0.27881370028E+03  0.16500000000E+03 0.  0.
<mgrwt>
<rscale>  0 0.50896905E+03</rscale>
<asrwt>0</asrwt>
<pdfrwt beam="1">  1        2 0.46416365E-01 0.50896905E+03</pdfrwt>
<pdfrwt beam="2">  1       -2 0.28474464E-01 0.50896905E+03</pdfrwt>
<totfact> 0.12312661E+03</totfact>
</mgrwt>
</event>
<event>
 4    1  0.1025337E-004  0.3743950E+03  0.7818608E-02  0.1053025E+00
          2   -1    0    0  501    0  0.00000000000E+00  0.00000000000E+00  0.46763641300E+03  0.46763641301E+03  0.25500000000E-02 0.  1.
         -2   -1    0    0    0  501 -0.00000000000E+00 -0.00000000000E+00 -0.74936201638E+02  0.74936201681E+02  0.25500000000E-02 0. -1.
    5000001    1    1    2    0    0 -0.72382241608E+02 -0.40877011514E+02  0.15268670047E+03  0.23968384900E+03  0.16500000000E+03 0.  0.
   -5000001    1    1    2    0    0  0.72382241608E+02  0.40877011514E+02  0.24001351089E+03  0.30288876569E+03  0.16500000000E+03 0.  0.
<mgrwt>
<rscale>  0 0.37439496E+03</rscale>
<asrwt>0</asrwt>
<pdfrwt beam="1">  1        2 0.66805201E-01 0.37439496E+03</pdfrwt>
<pdfrwt beam="2">  1       -2 0.10705172E-01 0.37439496E+03</pdfrwt>
<totfact> 0.43614413E+03</totfact>
</mgrwt>
</event>
<event>
 4    1  0.1025337E-004  0.5650044E+03  0.7818608E-02  0.9980794E-01
         -2   -1    0    0    0  501 -0.00000000000E+00  0.00000000000E+00  0.65816717821E+03  0.65816717822E+03  0.25500000000E-02 0. -1.
          2   -1    0    0  501    0  0.00000000000E+00 -0.00000000000E+00 -0.12125718781E+03  0.12125718783E+03  0.25500000000E-02 0.  1.
    5000001    1    1    2    0    0  0.54612998514E+02  0.14065250334E+03  0.30249045389E+02  0.22562293999E+03  0.16500000000E+03 0.  0.
   -5000001    1    1    2    0    0 -0.54612998514E+02 -0.14065250334E+03  0.50666094501E+03  0.55380142606E+03  0.16500000000E+03 0.  0.
<mgrwt>
<rscale>  0 0.56500443E+03</rscale>
<asrwt>0</asrwt>
<pdfrwt beam="1">  1        2 0.17322455E-01 0.56500443E+03</pdfrwt>
<pdfrwt beam="2">  1       -2 0.94023882E-01 0.56500443E+03</pdfrwt>
<totfact> 0.32536012E+02</totfact>
</mgrwt>
</event>
<event>
 4    1  0.1025337E-004  0.3630518E+03  0.7818608E-02  0.1057382E+00
          2   -1    0    0  501    0  0.00000000000E+00  0.00000000000E+00  0.14956883788E+04  0.14956883788E+04  0.25500000000E-02 0.  1.
         -2   -1    0    0    0  501 -0.00000000000E+00 -0.00000000000E+00 -0.22031100681E+02  0.22031100829E+02  0.25500000000E-02 0. -1.
    5000001    1    1    2    0    0  0.45883790022E+02 -0.46299426497E+02  0.57612847194E+03  0.60282499555E+03  0.16500000000E+03 0.  0.
   -5000001    1    1    2    0    0 -0.45883790022E+02  0.46299426497E+02  0.89752880618E+03  0.91489448408E+03  0.16500000000E+03 0.  0.
<mgrwt>
<rscale>  0 0.36305185E+03</rscale>
<asrwt>0</asrwt>
<pdfrwt beam="1">  1        2 0.21366977E+00 0.36305185E+03</pdfrwt>
<pdfrwt beam="2">  1       -2 0.31473001E-02 0.36305185E+03</pdfrwt>
<totfact> 0.62058903E+03</totfact>
</mgrwt>
</event>
<event>
 4    1  0.1025337E-004  0.3401575E+03  0.7818608E-02  0.1066729E+00
          2   -1    0    0  501    0  0.00000000000E+00  0.00000000000E+00  0.30706730464E+04  0.30706730464E+04  0.25500000000E-02 0. -1.
         -2   -1    0    0    0  501 -0.00000000000E+00 -0.00000000000E+00 -0.94203412657E+01  0.94203416108E+01  0.25500000000E-02 0.  1.
    5000001    1    1    2    0    0  0.34970762784E+02  0.60545032097E+00  0.13325602742E+04  0.13431921699E+04  0.16500000000E+03 0.  0.
   -5000001    1    1    2    0    0 -0.34970762784E+02 -0.60545032097E+00  0.17286924309E+04  0.17369012181E+04  0.16500000000E+03 0.  0.
<mgrwt>
<rscale>  0 0.34015754E+03</rscale>
<asrwt>0</asrwt>
<pdfrwt beam="1">  1        2 0.43866741E+00 0.34015754E+03</pdfrwt>
<pdfrwt beam="2">  1       -2 0.13457636E-02 0.34015754E+03</pdfrwt>
<totfact> 0.35035923E+03</totfact>
</mgrwt>
</event>
<event>
 4    1  0.1025337E-004  0.5487223E+03  0.7818608E-02  0.1001790E+00
          2   -1    0    0  501    0  0.00000000000E+00  0.00000000000E+00  0.45405731393E+03  0.45405731394E+03  0.25500000000E-02 0.  1.
         -2   -1    0    0    0  501 -0.00000000000E+00 -0.00000000000E+00 -0.16578094013E+03  0.16578094015E+03  0.25500000000E-02 0. -1.
    5000001    1    1    2    0    0 -0.50852674078E+02 -0.38169946543E+02 -0.92825734815E+02  0.19971118227E+03  0.16500000000E+03 0.  0.
   -5000001    1    1    2    0    0  0.50852674078E+02  0.38169946543E+02  0.38110210862E+03  0.42012707181E+03  0.16500000000E+03 0.  0.
<mgrwt>
<rscale>  0 0.54872233E+03</rscale>
<asrwt>0</asrwt>
<pdfrwt beam="1">  1        2 0.64865330E-01 0.54872233E+03</pdfrwt>
<pdfrwt beam="2">  1       -2 0.23682992E-01 0.54872233E+03</pdfrwt>
<totfact> 0.11848623E+03</totfact>
</mgrwt>
</event>
<event>
 4    1  0.1025337E-004  0.6248306E+03  0.7818608E-02  0.9855189E-01
          2   -1    0    0  501    0  0.00000000000E+00  0.00000000000E+00  0.19935589890E+04  0.19935589890E+04  0.25500000000E-02 0.  1.
         -2   -1    0    0    0  501 -0.00000000000E+00 -0.00000000000E+00 -0.48959328379E+02  0.48959328445E+02  0.25500000000E-02 0. -1.
    5000001    1    1    2    0    0 -0.18959359982E+03  0.17476750810E+03  0.11761526679E+04  0.12153392585E+04  0.16500000000E+03 0.  0.
   -5000001    1    1    2    0    0  0.18959359982E+03 -0.17476750810E+03  0.76844699270E+03  0.82717905895E+03  0.16500000000E+03 0.  0.
<mgrwt>
<rscale>  0 0.62483057E+03</rscale>
<asrwt>0</asrwt>
<pdfrwt beam="1">  1        2 0.28479415E+00 0.62483057E+03</pdfrwt>
<pdfrwt beam="2">  1       -2 0.69941896E-02 0.62483057E+03</pdfrwt>
<totfact> 0.10114652E+03</totfact>
</mgrwt>
</event>
<event>
 4    1  0.1025337E-004  0.5318201E+03  0.7818608E-02  0.1005792E+00
          2   -1    0    0  501    0  0.00000000000E+00  0.00000000000E+00  0.65480843603E+03  0.65480843604E+03  0.25500000000E-02 0.  1.
         -2   -1    0    0    0  501 -0.00000000000E+00 -0.00000000000E+00 -0.10798294790E+03  0.10798294793E+03  0.25500000000E-02 0. -1.
    5000001    1    1    2    0    0  0.13893229628E+03  0.15341680619E+03  0.30981823432E+03  0.40749384987E+03  0.16500000000E+03 0.  0.
   -5000001    1    1    2    0    0 -0.13893229628E+03 -0.15341680619E+03  0.23700725382E+03  0.35529753409E+03  0.16500000000E+03 0.  0.
<mgrwt>
<rscale>  0 0.53182006E+03</rscale>
<asrwt>0</asrwt>
<pdfrwt beam="1">  1        2 0.93544065E-01 0.53182006E+03</pdfrwt>
<pdfrwt beam="2">  1       -2 0.15426135E-01 0.53182006E+03</pdfrwt>
<totfact> 0.16300447E+03</totfact>
</mgrwt>
</event>
<event>
 4    1  0.1025337E-004  0.3818059E+03  0.7818608E-02  0.1050268E+00
         -2   -1    0    0    0  501 -0.00000000000E+00  0.00000000000E+00  0.17668421781E+02  0.17668421965E+02  0.25500000000E-02 0. -1.
          2   -1    0    0  501    0  0.00000000000E+00 -0.00000000000E+00 -0.20626598917E+04  0.20626598918E+04  0.25500000000E-02 0.  1.
    5000001    1    1    2    0    0 -0.94407533798E+02 -0.15958324066E+02 -0.10615951324E+04  0.10785994047E+04  0.16500000000E+03 0.  0.
   -5000001    1    1    2    0    0  0.94407533798E+02  0.15958324066E+02 -0.98339633754E+03  0.10017289091E+04  0.16500000000E+03 0.  0.
<mgrwt>
<rscale>  0 0.38180595E+03</rscale>
<asrwt>0</asrwt>
<pdfrwt beam="1">  1        2 0.29466555E+00 0.38180595E+03</pdfrwt>
<pdfrwt beam="2">  1       -2 0.25240616E-02 0.38180595E+03</pdfrwt>
<totfact> 0.45062681E+03</totfact>
</mgrwt>
</event>
<event>
 4    1  0.1025337E-004  0.3811345E+03  0.7818608E-02  0.1050515E+00
         -2   -1    0    0    0  501 -0.00000000000E+00  0.00000000000E+00  0.21811778936E+02  0.21811779085E+02  0.25500000000E-02 0. -1.
          2   -1    0    0  501    0  0.00000000000E+00 -0.00000000000E+00 -0.16649661836E+04  0.16649661836E+04  0.25500000000E-02 0.  1.
    5000001    1    1    2    0    0  0.87496046276E+02 -0.18690262713E+02 -0.96742257958E+03  0.98546249625E+03  0.16500000000E+03 0.  0.
   -5000001    1    1    2    0    0 -0.87496046276E+02  0.18690262713E+02 -0.67573182511E+03  0.70131546647E+03  0.16500000000E+03 0.  0.
<mgrwt>
<rscale>  0 0.38113449E+03</rscale>
<asrwt>0</asrwt>
<pdfrwt beam="1">  1        2 0.23785223E+00 0.38113449E+03</pdfrwt>
<pdfrwt beam="2">  1       -2 0.31159695E-02 0.38113449E+03</pdfrwt>
<totfact> 0.51741614E+03</totfact>
</mgrwt>
</event>
<event>
 4    1  0.1025337E-004  0.5572957E+03  0.7818608E-02  0.9998192E-01
          2   -1    0    0  501    0  0.00000000000E+00  0.00000000000E+00  0.22462293842E+04  0.22462293842E+04  0.25500000000E-02 0.  1.
         -2   -1    0    0    0  501 -0.00000000000E+00 -0.00000000000E+00 -0.34566646252E+02  0.34566646346E+02  0.25500000000E-02 0. -1.
    5000001    1    1    2    0    0  0.10281369317E+03 -0.18909354308E+03  0.13676497068E+04  0.13942803678E+04  0.16500000000E+03 0.  0.
   -5000001    1    1    2    0    0 -0.10281369317E+03  0.18909354308E+03  0.84401303115E+03  0.88651566274E+03  0.16500000000E+03 0.  0.
<mgrwt>
<rscale>  0 0.55729567E+03</rscale>
<asrwt>0</asrwt>
<pdfrwt beam="1">  1        2 0.32088998E+00 0.55729567E+03</pdfrwt>
<pdfrwt beam="2">  1       -2 0.49380912E-02 0.55729567E+03</pdfrwt>
<totfact> 0.13064859E+03</totfact>
</mgrwt>
</event>
<event>
 4    1  0.1025337E-004  0.4314364E+03  0.7818608E-02  0.1033407E+00
         -2   -1    0    0    0  501 -0.00000000000E+00  0.00000000000E+00  0.46392390053E+02  0.46392390123E+02  0.25500000000E-02 0. -1.
          2   -1    0    0  501    0  0.00000000000E+00 -0.00000000000E+00 -0.10030600092E+04  0.10030600092E+04  0.25500000000E-02 0.  1.
    5000001    1    1    2    0    0  0.13251495258E+03  0.18386854495E+02 -0.38696057702E+03  0.44143150912E+03  0.16500000000E+03 0.  0.
   -5000001    1    1    2    0    0 -0.13251495258E+03 -0.18386854495E+02 -0.56970704210E+03  0.60802089018E+03  0.16500000000E+03 0.  0.
<mgrwt>
<rscale>  0 0.43143644E+03</rscale>
<asrwt>0</asrwt>
<pdfrwt beam="1">  1        2 0.14329427E+00 0.43143644E+03</pdfrwt>
<pdfrwt beam="2">  1       -2 0.66274849E-02 0.43143644E+03</pdfrwt>
<totfact> 0.36994368E+03</totfact>
</mgrwt>
</event>
<event>
 4    1  0.1025337E-004  0.5175328E+03  0.7818608E-02  0.1009301E+00
         -2   -1    0    0    0  501 -0.00000000000E+00  0.00000000000E+00  0.32821843196E+03  0.32821843197E+03  0.25500000000E-02 0. -1.
          2   -1    0    0  501    0  0.00000000000E+00 -0.00000000000E+00 -0.20401067075E+03  0.20401067076E+03  0.25500000000E-02 0.  1.
    5000001    1    1    2    0    0 -0.16414936092E+03  0.11201579909E+03  0.78118845606E+02  0.26985200754E+03  0.16500000000E+03 0.  0.
   -5000001    1    1    2    0    0  0.16414936092E+03 -0.11201579909E+03  0.46088915608E+02  0.26237709519E+03  0.16500000000E+03 0.  0.
<mgrwt>
<rscale>  0 0.51753285E+03</rscale>
<asrwt>0</asrwt>
<pdfrwt beam="1">  1        2 0.29144382E-01 0.51753285E+03</pdfrwt>
<pdfrwt beam="2">  1       -2 0.46888347E-01 0.51753285E+03</pdfrwt>
<totfact> 0.79637112E+02</totfact>
</mgrwt>
</event>
<event>
 4    1  0.1025337E-004  0.4044386E+03  0.7818608E-02  0.1042254E+00
         -2   -1    0    0    0  501 -0.00000000000E+00  0.00000000000E+00  0.48251295059E+03  0.48251295060E+03  0.25500000000E-02 0. -1.
          2   -1    0    0  501    0  0.00000000000E+00 -0.00000000000E+00 -0.84749303765E+02  0.84749303804E+02  0.25500000000E-02 0.  1.
    5000001    1    1    2    0    0 -0.63543525499E+02  0.93331616487E+02  0.15636069607E+03  0.25381536113E+03  0.16500000000E+03 0.  0.
   -5000001    1    1    2    0    0  0.63543525499E+02 -0.93331616487E+02  0.24140295075E+03  0.31344689327E+03  0.16500000000E+03 0.  0.
<mgrwt>
<rscale>  0 0.40443856E+03</rscale>
<asrwt>0</asrwt>
<pdfrwt beam="1">  1        2 0.12107043E-01 0.40443856E+03</pdfrwt>
<pdfrwt beam="2">  1       -2 0.68930421E-01 0.40443856E+03</pdfrwt>
<totfact> 0.10042908E+03</totfact>
</mgrwt>
</event>
<event>
 4    1  0.1025337E-004  0.3954798E+03  0.7818608E-02  0.1045356E+00
          2   -1    0    0  501    0  0.00000000000E+00  0.00000000000E+00  0.43757179292E+03  0.43757179293E+03  0.25500000000E-02 0.  1.
         -2   -1    0    0    0  501 -0.00000000000E+00 -0.00000000000E+00 -0.89359209821E+02  0.89359209857E+02  0.25500000000E-02 0. -1.
    5000001    1    1    2    0    0  0.78453384896E+02  0.65986002281E+02  0.12484439998E+03  0.23091169374E+03  0.16500000000E+03 0.  0.
   -5000001    1    1    2    0    0 -0.78453384896E+02 -0.65986002281E+02  0.22336818313E+03  0.29601930905E+03  0.16500000000E+03 0.  0.
<mgrwt>
<rscale>  0 0.39547981E+03</rscale>
<asrwt>0</asrwt>
<pdfrwt beam="1">  1        2 0.62510254E-01 0.39547981E+03</pdfrwt>
<pdfrwt beam="2">  1       -2 0.12765602E-01 0.39547981E+03</pdfrwt>
<totfact> 0.35303487E+03</totfact>
</mgrwt>
</event>
<event>
 4    1  0.1025337E-004  0.4824118E+03  0.7818608E-02  0.1018474E+00
          2   -1    0    0  501    0  0.00000000000E+00  0.00000000000E+00  0.63089575907E+03  0.63089575907E+03  0.25500000000E-02 0.  1.
         -2   -1    0    0    0  501 -0.00000000000E+00 -0.00000000000E+00 -0.92218526577E+02  0.92218526612E+02  0.25500000000E-02 0. -1.
    5000001    1    1    2    0    0  0.50663989387E+02  0.16776804468E+03  0.24600487855E+03  0.34417489291E+03  0.16500000000E+03 0.  0.
   -5000001    1    1    2    0    0 -0.50663989387E+02 -0.16776804468E+03  0.29267235394E+03  0.37893939278E+03  0.16500000000E+03 0.  0.
<mgrwt>
<rscale>  0 0.48241176E+03</rscale>
<asrwt>0</asrwt>
<pdfrwt beam="1">  1        2 0.90127965E-01 0.48241176E+03</pdfrwt>
<pdfrwt beam="2">  1       -2 0.13174075E-01 0.48241176E+03</pdfrwt>
<totfact> 0.22164363E+03</totfact>
</mgrwt>
</event>
<event>
 4    1  0.1025337E-004  0.5229466E+03  0.7818608E-02  0.1007957E+00
         -2   -1    0    0    0  501 -0.00000000000E+00  0.00000000000E+00  0.30274179809E+02  0.30274179917E+02  0.25500000000E-02 0. -1.
          2   -1    0    0  501    0  0.00000000000E+00 -0.00000000000E+00 -0.22583034021E+04  0.22583034021E+04  0.25500000000E-02 0.  1.
    5000001    1    1    2    0    0 -0.13784546435E+03  0.12787751993E+02 -0.46522155694E+03  0.51266070230E+03  0.16500000000E+03 0.  0.
   -5000001    1    1    2    0    0  0.13784546435E+03 -0.12787751993E+02 -0.17628076653E+04  0.17759168797E+04  0.16500000000E+03 0.  0.
<mgrwt>
<rscale>  0 0.52294659E+03</rscale>
<asrwt>0</asrwt>
<pdfrwt beam="1">  1        2 0.32261467E+00 0.52294659E+03</pdfrwt>
<pdfrwt beam="2">  1       -2 0.43248843E-02 0.52294659E+03</pdfrwt>
<totfact> 0.15838395E+03</totfact>
</mgrwt>
</event>
<event>
 4    1  0.1025337E-004  0.3792814E+03  0.7818608E-02  0.1051200E+00
          2   -1    0    0  501    0  0.00000000000E+00  0.00000000000E+00  0.14539031790E+04  0.14539031790E+04  0.25500000000E-02 0.  1.
         -2   -1    0    0    0  501 -0.00000000000E+00 -0.00000000000E+00 -0.24735895420E+02  0.24735895552E+02  0.25500000000E-02 0. -1.
    5000001    1    1    2    0    0  0.44416791141E+02 -0.67614402085E+02  0.89719287453E+03  0.91581909393E+03  0.16500000000E+03 0.  0.
   -5000001    1    1    2    0    0 -0.44416791141E+02  0.67614402085E+02  0.53197440908E+03  0.56281998065E+03  0.16500000000E+03 0.  0.
<mgrwt>
<rscale>  0 0.37928141E+03</rscale>
<asrwt>0</asrwt>
<pdfrwt beam="1">  1        2 0.20770045E+00 0.37928141E+03</pdfrwt>
<pdfrwt beam="2">  1       -2 0.35336994E-02 0.37928141E+03</pdfrwt>
<totfact> 0.54783787E+03</totfact>
</mgrwt>
</event>
<event>
 4    1  0.1025337E-004  0.4039539E+03  0.7818608E-02  0.1042419E+00
         -2   -1    0    0    0  501 -0.00000000000E+00  0.00000000000E+00  0.70792247773E+02  0.70792247819E+02  0.25500000000E-02 0. -1.
          2   -1    0    0  501    0  0.00000000000E+00 -0.00000000000E+00 -0.57625929593E+03  0.57625929594E+03  0.25500000000E-02 0.  1.
    5000001    1    1    2    0    0  0.96606334436E+02 -0.23222731409E+02 -0.35013548806E+03  0.39961473835E+03  0.16500000000E+03 0.  0.
   -5000001    1    1    2    0    0 -0.96606334436E+02  0.23222731409E+02 -0.15533156010E+03  0.24743680541E+03  0.16500000000E+03 0.  0.
<mgrwt>
<rscale>  0 0.40395391E+03</rscale>
<asrwt>0</asrwt>
<pdfrwt beam="1">  1        2 0.82322754E-01 0.40395391E+03</pdfrwt>
<pdfrwt beam="2">  1       -2 0.10113179E-01 0.40395391E+03</pdfrwt>
<totfact> 0.37818487E+03</totfact>
</mgrwt>
</event>
<event>
 4    1  0.1025337E-004  0.5279300E+03  0.7818608E-02  0.1006735E+00
          2   -1    0    0  501    0  0.00000000000E+00  0.00000000000E+00  0.70246467520E+03  0.70246467521E+03  0.25500000000E-02 0.  1.
         -2   -1    0    0    0  501 -0.00000000000E+00 -0.00000000000E+00 -0.99190085915E+02  0.99190085948E+02  0.25500000000E-02 0. -1.
    5000001    1    1    2    0    0 -0.20285533091E+03  0.26616006971E+02  0.26463372030E+03  0.37298083466E+03  0.16500000000E+03 0.  0.
   -5000001    1    1    2    0    0  0.20285533091E+03 -0.26616006971E+02  0.33864086899E+03  0.42867392649E+03  0.16500000000E+03 0.  0.
<mgrwt>
<rscale>  0 0.52793004E+03</rscale>
<asrwt>0</asrwt>
<pdfrwt beam="1">  1        2 0.10035210E+00 0.52793004E+03</pdfrwt>
<pdfrwt beam="2">  1       -2 0.14170012E-01 0.52793004E+03</pdfrwt>
<totfact> 0.17265898E+03</totfact>
</mgrwt>
</event>
<event>
 4    1  0.1025337E-004  0.4827184E+03  0.7818608E-02  0.1018391E+00
         -2   -1    0    0    0  501 -0.00000000000E+00  0.00000000000E+00  0.51839742923E+02  0.51839742986E+02  0.25500000000E-02 0. -1.
          2   -1    0    0  501    0  0.00000000000E+00 -0.00000000000E+00 -0.11237375840E+04  0.11237375840E+04  0.25500000000E-02 0.  1.
    5000001    1    1    2    0    0 -0.36127274484E+02 -0.16864120482E+03 -0.62322173973E+03  0.66736449770E+03  0.16500000000E+03 0.  0.
   -5000001    1    1    2    0    0  0.36127274484E+02  0.16864120482E+03 -0.44867610130E+03  0.50821282924E+03  0.16500000000E+03 0.  0.
<mgrwt>
<rscale>  0 0.48271842E+03</rscale>
<asrwt>0</asrwt>
<pdfrwt beam="1">  1        2 0.16053393E+00 0.48271842E+03</pdfrwt>
<pdfrwt beam="2">  1       -2 0.74056783E-02 0.48271842E+03</pdfrwt>
<totfact> 0.26422880E+03</totfact>
</mgrwt>
</event>
<event>
 4    1  0.1025337E-004  0.5097238E+03  0.7818608E-02  0.1011272E+00
          2   -1    0    0  501    0  0.00000000000E+00  0.00000000000E+00  0.98345282752E+03  0.98345282753E+03  0.25500000000E-02 0.  1.
         -2   -1    0    0    0  501 -0.00000000000E+00 -0.00000000000E+00 -0.66047483146E+02  0.66047483196E+02  0.25500000000E-02 0. -1.
    5000001    1    1    2    0    0  0.18469667961E+03  0.18131665758E+02  0.34064039530E+03  0.42154774305E+03  0.16500000000E+03 0.  0.
   -5000001    1    1    2    0    0 -0.18469667961E+03 -0.18131665758E+02  0.57676494908E+03  0.62795256767E+03  0.16500000000E+03 0.  0.
<mgrwt>
<rscale>  0 0.50972378E+03</rscale>
<asrwt>0</asrwt>
<pdfrwt beam="1">  1        2 0.14049327E+00 0.50972378E+03</pdfrwt>
<pdfrwt beam="2">  1       -2 0.94353543E-02 0.50972378E+03</pdfrwt>
<totfact> 0.21739307E+03</totfact>
</mgrwt>
</event>
<event>
 4    1  0.1025337E-004  0.4585248E+03  0.7818608E-02  0.1025210E+00
          2   -1    0    0  501    0  0.00000000000E+00  0.00000000000E+00  0.11734459356E+03  0.11734459359E+03  0.25500000000E-02 0.  1.
         -2   -1    0    0    0  501 -0.00000000000E+00 -0.00000000000E+00 -0.44792224790E+03  0.44792224790E+03  0.25500000000E-02 0. -1.
    5000001    1    1    2    0    0  0.12220754979E+01 -0.15206661764E+03 -0.22324989176E+03  0.31653003623E+03  0.16500000000E+03 0.  0.
   -5000001    1    1    2    0    0 -0.12220754979E+01  0.15206661764E+03 -0.10732776258E+03  0.24873680525E+03  0.16500000000E+03 0.  0.
<mgrwt>
<rscale>  0 0.45852483E+03</rscale>
<asrwt>0</asrwt>
<pdfrwt beam="1">  1        2 0.16763514E-01 0.45852483E+03</pdfrwt>
<pdfrwt beam="2">  1       -2 0.63988892E-01 0.45852483E+03</pdfrwt>
<totfact> 0.79486213E+02</totfact>
</mgrwt>
</event>
<event>
 4    1  0.1025337E-004  0.5711058E+03  0.7818608E-02  0.9967235E-01
          2   -1    0    0  501    0  0.00000000000E+00  0.00000000000E+00  0.29637879743E+03  0.29637879744E+03  0.25500000000E-02 0.  1.
         -2   -1    0    0    0  501 -0.00000000000E+00 -0.00000000000E+00 -0.27512244018E+03  0.27512244019E+03  0.25500000000E-02 0. -1.
    5000001    1    1    2    0    0 -0.93230276631E+02 -0.48678404491E+02 -0.19749175380E+03  0.27800982782E+03  0.16500000000E+03 0.  0.
   -5000001    1    1    2    0    0  0.93230276631E+02  0.48678404491E+02  0.21874811105E+03  0.29349140981E+03  0.16500000000E+03 0.  0.
<mgrwt>
<rscale>  0 0.57110580E+03</rscale>
<asrwt>0</asrwt>
<pdfrwt beam="1">  1        2 0.42339829E-01 0.57110580E+03</pdfrwt>
<pdfrwt beam="2">  1       -2 0.39303205E-01 0.57110580E+03</pdfrwt>
<totfact> 0.74361483E+02</totfact>
</mgrwt>
</event>
<event>
 4    1  0.1025337E-004  0.9189912E+03  0.7818608E-02  0.9402148E-01
         -2   -1    0    0    0  501 -0.00000000000E+00  0.00000000000E+00  0.66469802793E+03  0.66469802794E+03  0.25500000000E-02 0. -1.
          2   -1    0    0  501    0  0.00000000000E+00 -0.00000000000E+00 -0.31764232594E+03  0.31764232595E+03  0.25500000000E-02 0.  1.
    5000001    1    1    2    0    0  0.35871009188E+03  0.10413299491E+02  0.42451070786E+03  0.57984110574E+03  0.16500000000E+03 0.  0.
   -5000001    1    1    2    0    0 -0.35871009188E+03 -0.10413299491E+02 -0.77455005866E+02  0.40249924814E+03  0.16500000000E+03 0.  0.
<mgrwt>
<rscale>  0 0.91899125E+03</rscale>
<asrwt>0</asrwt>
<pdfrwt beam="1">  1        2 0.45377476E-01 0.91899125E+03</pdfrwt>
<pdfrwt beam="2">  1       -2 0.94956859E-01 0.91899125E+03</pdfrwt>
<totfact> 0.10470226E+02</totfact>
</mgrwt>
</event>
<event>
 4    1  0.1025337E-004  0.4866624E+03  0.7818608E-02  0.1017320E+00
          2   -1    0    0  501    0  0.00000000000E+00  0.00000000000E+00  0.13787396163E+04  0.13787396163E+04  0.25500000000E-02 0.  1.
         -2   -1    0    0    0  501 -0.00000000000E+00 -0.00000000000E+00 -0.42945071384E+02  0.42945071460E+02  0.25500000000E-02 0. -1.
    5000001    1    1    2    0    0 -0.19875209112E+02 -0.17349381347E+03  0.55513586761E+03  0.60489334495E+03  0.16500000000E+03 0.  0.
   -5000001    1    1    2    0    0  0.19875209112E+02  0.17349381347E+03  0.78065867729E+03  0.81679134280E+03  0.16500000000E+03 0.  0.
<mgrwt>
<rscale>  0 0.48666239E+03</rscale>
<asrwt>0</asrwt>
<pdfrwt beam="1">  1        2 0.19696278E+00 0.48666239E+03</pdfrwt>
<pdfrwt beam="2">  1       -2 0.61350108E-02 0.48666239E+03</pdfrwt>
<totfact> 0.25731358E+03</totfact>
</mgrwt>
</event>
<event>
 4    1  0.1025337E-004  0.5001746E+03  0.7818608E-02  0.1013733E+00
          2   -1    0    0  501    0  0.00000000000E+00  0.00000000000E+00  0.11845368242E+04  0.11845368242E+04  0.25500000000E-02 0.  1.
         -2   -1    0    0    0  501 -0.00000000000E+00 -0.00000000000E+00 -0.52800099429E+02  0.52800099490E+02  0.25500000000E-02 0. -1.
    5000001    1    1    2    0    0  0.11041927436E+03  0.91090729578E+02  0.86711223984E+03  0.89420275869E+03  0.16500000000E+03 0.  0.
   -5000001    1    1    2    0    0 -0.11041927436E+03 -0.91090729578E+02  0.26462448490E+03  0.34313416498E+03  0.16500000000E+03 0.  0.
<mgrwt>
<rscale>  0 0.50017462E+03</rscale>
<asrwt>0</asrwt>
<pdfrwt beam="1">  1        2 0.16921949E+00 0.50017462E+03</pdfrwt>
<pdfrwt beam="2">  1       -2 0.75428737E-02 0.50017462E+03</pdfrwt>
<totfact> 0.23712705E+03</totfact>
</mgrwt>
</event>
<event>
 4    1  0.1025337E-004  0.6503949E+03  0.7818608E-02  0.9806038E-01
         -2   -1    0    0    0  501 -0.00000000000E+00  0.00000000000E+00  0.10669963246E+03  0.10669963249E+03  0.25500000000E-02 0. -1.
          2   -1    0    0  501    0  0.00000000000E+00 -0.00000000000E+00 -0.99113174216E+03  0.99113174216E+03  0.25500000000E-02 0.  1.
    5000001    1    1    2    0    0 -0.72306050870E+02 -0.25992290944E+03 -0.31432913862E+03  0.44588775631E+03  0.16500000000E+03 0.  0.
   -5000001    1    1    2    0    0  0.72306050870E+02  0.25992290944E+03 -0.57010297108E+03  0.65194361833E+03  0.16500000000E+03 0.  0.
<mgrwt>
<rscale>  0 0.65039493E+03</rscale>
<asrwt>0</asrwt>
<pdfrwt beam="1">  1        2 0.14159024E+00 0.65039493E+03</pdfrwt>
<pdfrwt beam="2">  1       -2 0.15242805E-01 0.65039493E+03</pdfrwt>
<totfact> 0.97419058E+02</totfact>
</mgrwt>
</event>
<event>
 4    1  0.1025337E-004  0.4475478E+03  0.7818608E-02  0.1028456E+00
          2   -1    0    0  501    0  0.00000000000E+00  0.00000000000E+00  0.90585595143E+03  0.90585595143E+03  0.25500000000E-02 0.  1.
         -2   -1    0    0    0  501 -0.00000000000E+00 -0.00000000000E+00 -0.55278941644E+02  0.55278941703E+02  0.25500000000E-02 0. -1.
    5000001    1    1    2    0    0 -0.14980515881E+03  0.19933642216E+02  0.41822352590E+03  0.47431514135E+03  0.16500000000E+03 0.  0.
   -5000001    1    1    2    0    0  0.14980515881E+03 -0.19933642216E+02  0.43235348388E+03  0.48681975178E+03  0.16500000000E+03 0.  0.
<mgrwt>
<rscale>  0 0.44754780E+03</rscale>
<asrwt>0</asrwt>
<pdfrwt beam="1">  1        2 0.12940799E+00 0.44754780E+03</pdfrwt>
<pdfrwt beam="2">  1       -2 0.78969917E-02 0.44754780E+03</pdfrwt>
<totfact> 0.32259330E+03</totfact>
</mgrwt>
</event>
<event>
 4    1  0.1025337E-004  0.4638749E+03  0.7818608E-02  0.1023663E+00
          2   -1    0    0  501    0  0.00000000000E+00  0.00000000000E+00  0.70751984153E+02  0.70751984199E+02  0.25500000000E-02 0.  1.
         -2   -1    0    0    0  501 -0.00000000000E+00 -0.00000000000E+00 -0.76033181168E+03  0.76033181168E+03  0.25500000000E-02 0. -1.
    5000001    1    1    2    0    0  0.12311197263E+03  0.97388973630E+02 -0.42347440437E+03  0.48082922243E+03  0.16500000000E+03 0.  0.
   -5000001    1    1    2    0    0 -0.12311197263E+03 -0.97388973630E+02 -0.26610542316E+03  0.35025457345E+03  0.16500000000E+03 0.  0.
<mgrwt>
<rscale>  0 0.46387492E+03</rscale>
<asrwt>0</asrwt>
<pdfrwt beam="1">  1        2 0.10107427E-01 0.46387492E+03</pdfrwt>
<pdfrwt beam="2">  1       -2 0.10861883E+00 0.46387492E+03</pdfrwt>
<totfact> 0.44857508E+02</totfact>
</mgrwt>
</event>
<event>
 4    1  0.1025337E-004  0.4329509E+03  0.7818608E-02  0.1032932E+00
         -2   -1    0    0    0  501 -0.00000000000E+00  0.00000000000E+00  0.12183173414E+03  0.12183173417E+03  0.25500000000E-02 0. -1.
          2   -1    0    0  501    0  0.00000000000E+00 -0.00000000000E+00 -0.38464206498E+03  0.38464206499E+03  0.25500000000E-02 0.  1.
    5000001    1    1    2    0    0 -0.90708568661E+02 -0.20770924172E+02 -0.88411811003E+01  0.18963818762E+03  0.16500000000E+03 0.  0.
   -5000001    1    1    2    0    0  0.90708568661E+02  0.20770924172E+02 -0.25396914974E+03  0.31683561154E+03  0.16500000000E+03 0.  0.
<mgrwt>
<rscale>  0 0.43295085E+03</rscale>
<asrwt>0</asrwt>
<pdfrwt beam="1">  1        2 0.54948866E-01 0.43295085E+03</pdfrwt>
<pdfrwt beam="2">  1       -2 0.17404534E-01 0.43295085E+03</pdfrwt>
<totfact> 0.24289680E+03</totfact>
</mgrwt>
</event>
<event>
 4    1  0.1025337E-004  0.3561218E+03  0.7818608E-02  0.1060130E+00
          2   -1    0    0  501    0  0.00000000000E+00  0.00000000000E+00  0.42683175288E+04  0.42683175288E+04  0.25500000000E-02 0.  1.
         -2   -1    0    0    0  501 -0.00000000000E+00 -0.00000000000E+00 -0.74281455103E+01  0.74281459480E+01  0.25500000000E-02 0. -1.
    5000001    1    1    2    0    0  0.61343810854E+02  0.24963382425E+02  0.22471301288E+04  0.22541528452E+04  0.16500000000E+03 0.  0.
   -5000001    1    1    2    0    0 -0.61343810854E+02 -0.24963382425E+02  0.20137592545E+04  0.20215928296E+04  0.16500000000E+03 0.  0.
<mgrwt>
<rscale>  0 0.35612180E+03</rscale>
<asrwt>0</asrwt>
<pdfrwt beam="1">  1        2 0.60976282E+00 0.35612180E+03</pdfrwt>
<pdfrwt beam="2">  1       -2 0.10611581E-02 0.35612180E+03</pdfrwt>
<totfact> 0.91660670E+02</totfact>
</mgrwt>
</event>
<event>
 4    1  0.1025337E-004  0.4421575E+03  0.7818608E-02  0.1030087E+00
          2   -1    0    0  501    0  0.00000000000E+00  0.00000000000E+00  0.27075323222E+03  0.27075323223E+03  0.25500000000E-02 0.  1.
         -2   -1    0    0    0  501 -0.00000000000E+00 -0.00000000000E+00 -0.18051794543E+03  0.18051794545E+03  0.25500000000E-02 0. -1.
    5000001    1    1    2    0    0  0.11485249572E+03 -0.81755272016E+02  0.21088523141E+01  0.21703563655E+03  0.16500000000E+03 0.  0.
   -5000001    1    1    2    0    0 -0.11485249572E+03  0.81755272016E+02  0.88126434469E+02  0.23423554113E+03  0.16500000000E+03 0.  0.
<mgrwt>
<rscale>  0 0.44215752E+03</rscale>
<asrwt>0</asrwt>
<pdfrwt beam="1">  1        2 0.38679033E-01 0.44215752E+03</pdfrwt>
<pdfrwt beam="2">  1       -2 0.25788278E-01 0.44215752E+03</pdfrwt>
<totfact> 0.17975383E+03</totfact>
</mgrwt>
</event>
<event>
 4    1  0.1025337E-004  0.6963255E+03  0.7818608E-02  0.9723537E-01
          2   -1    0    0  501    0  0.00000000000E+00  0.00000000000E+00  0.11268754109E+04  0.11268754109E+04  0.25500000000E-02 0.  1.
         -2   -1    0    0    0  501 -0.00000000000E+00 -0.00000000000E+00 -0.10756940177E+03  0.10756940180E+03  0.25500000000E-02 0. -1.
    5000001    1    1    2    0    0  0.84674562511E+02 -0.20248829884E+03  0.13017051845E+03  0.30387605463E+03  0.16500000000E+03 0.  0.
   -5000001    1    1    2    0    0 -0.84674562511E+02  0.20248829884E+03  0.88913549067E+03  0.93056875805E+03  0.16500000000E+03 0.  0.
<mgrwt>
<rscale>  0 0.69632554E+03</rscale>
<asrwt>0</asrwt>
<pdfrwt beam="1">  1        2 0.16098219E+00 0.69632554E+03</pdfrwt>
<pdfrwt beam="2">  1       -2 0.15367058E-01 0.69632554E+03</pdfrwt>
<totfact> 0.79666145E+02</totfact>
</mgrwt>
</event>
<event>
 4    1  0.1025337E-004  0.4268395E+03  0.7818608E-02  0.1034863E+00
          2   -1    0    0  501    0  0.00000000000E+00  0.00000000000E+00  0.84306013202E+03  0.84306013203E+03  0.25500000000E-02 0.  1.
         -2   -1    0    0    0  501 -0.00000000000E+00 -0.00000000000E+00 -0.54026965315E+02  0.54026965375E+02  0.25500000000E-02 0. -1.
    5000001    1    1    2    0    0 -0.23390587084E+02 -0.12155149967E+03  0.27938092630E+03  0.34727595456E+03  0.16500000000E+03 0.  0.
   -5000001    1    1    2    0    0  0.23390587084E+02  0.12155149967E+03  0.50965224041E+03  0.54981114284E+03  0.16500000000E+03 0.  0.
<mgrwt>
<rscale>  0 0.42683946E+03</rscale>
<asrwt>0</asrwt>
<pdfrwt beam="1">  1        2 0.12043715E+00 0.42683946E+03</pdfrwt>
<pdfrwt beam="2">  1       -2 0.77181387E-02 0.42683946E+03</pdfrwt>
<totfact> 0.36722413E+03</totfact>
</mgrwt>
</event>
<event>
 4    1  0.1025337E-004  0.3882977E+03  0.7818608E-02  0.1047909E+00
         -2   -1    0    0    0  501 -0.00000000000E+00  0.00000000000E+00  0.54911952609E+02  0.54911952668E+02  0.25500000000E-02 0. -1.
          2   -1    0    0  501    0  0.00000000000E+00 -0.00000000000E+00 -0.68644010210E+03  0.68644010210E+03  0.25500000000E-02 0.  1.
    5000001    1    1    2    0    0 -0.56903243900E+02  0.83511002268E+02 -0.34635357797E+03  0.39673400111E+03  0.16500000000E+03 0.  0.
   -5000001    1    1    2    0    0  0.56903243900E+02 -0.83511002268E+02 -0.28517457152E+03  0.34461805366E+03  0.16500000000E+03 0.  0.
<mgrwt>
<rscale>  0 0.38829765E+03</rscale>
<asrwt>0</asrwt>
<pdfrwt beam="1">  1        2 0.98062867E-01 0.38829765E+03</pdfrwt>
<pdfrwt beam="2">  1       -2 0.78445651E-02 0.38829765E+03</pdfrwt>
<totfact> 0.46107364E+03</totfact>
</mgrwt>
</event>
<event>
 4    1  0.1025337E-004  0.5978258E+03  0.7818608E-02  0.9909927E-01
          2   -1    0    0  501    0  0.00000000000E+00  0.00000000000E+00  0.22688318071E+03  0.22688318073E+03  0.25500000000E-02 0.  1.
         -2   -1    0    0    0  501 -0.00000000000E+00 -0.00000000000E+00 -0.39381019611E+03  0.39381019611E+03  0.25500000000E-02 0. -1.
    5000001    1    1    2    0    0  0.17278725986E+03  0.82991908243E+02  0.81944022079E+02  0.26586258999E+03  0.16500000000E+03 0.  0.
   -5000001    1    1    2    0    0 -0.17278725986E+03 -0.82991908243E+02 -0.24887103747E+03  0.35483078685E+03  0.16500000000E+03 0.  0.
<mgrwt>
<rscale>  0 0.59782576E+03</rscale>
<asrwt>0</asrwt>
<pdfrwt beam="1">  1        2 0.32411883E-01 0.59782576E+03</pdfrwt>
<pdfrwt beam="2">  1       -2 0.56258599E-01 0.59782576E+03</pdfrwt>
<totfact> 0.48763036E+02</totfact>
</mgrwt>
</event>
<event>
 4    1  0.1025337E-004  0.6335844E+03  0.7818608E-02  0.9838079E-01
         -2   -1    0    0    0  501 -0.00000000000E+00  0.00000000000E+00  0.64759496309E+02  0.64759496359E+02  0.25500000000E-02 0. -1.
          2   -1    0    0  501    0  0.00000000000E+00 -0.00000000000E+00 -0.15496922561E+04  0.15496922561E+04  0.25500000000E-02 0.  1.
    5000001    1    1    2    0    0 -0.24436271648E+03  0.16401477450E+02 -0.10346701883E+04  0.10759877064E+04  0.16500000000E+03 0.  0.
   -5000001    1    1    2    0    0  0.24436271648E+03 -0.16401477450E+02 -0.45026257149E+03  0.53846404611E+03  0.16500000000E+03 0.  0.
<mgrwt>
<rscale>  0 0.63358437E+03</rscale>
<asrwt>0</asrwt>
<pdfrwt beam="1">  1        2 0.22138459E+00 0.63358437E+03</pdfrwt>
<pdfrwt beam="2">  1       -2 0.92513575E-02 0.63358437E+03</pdfrwt>
<totfact> 0.10872878E+03</totfact>
</mgrwt>
</event>
<event>
 4    1  0.1025337E-004  0.4353783E+03  0.7818608E-02  0.1032174E+00
         -2   -1    0    0    0  501 -0.00000000000E+00  0.00000000000E+00  0.64053422898E+02  0.64053422949E+02  0.25500000000E-02 0. -1.
          2   -1    0    0  501    0  0.00000000000E+00 -0.00000000000E+00 -0.73982880849E+03  0.73982880849E+03  0.25500000000E-02 0.  1.
    5000001    1    1    2    0    0  0.49279960534E+02  0.13261651844E+03 -0.36034343853E+03  0.42081830897E+03  0.16500000000E+03 0.  0.
   -5000001    1    1    2    0    0 -0.49279960534E+02 -0.13261651844E+03 -0.31543194705E+03  0.38306392246E+03  0.16500000000E+03 0.  0.
<mgrwt>
<rscale>  0 0.43537831E+03</rscale>
<asrwt>0</asrwt>
<pdfrwt beam="1">  1        2 0.10568982E+00 0.43537831E+03</pdfrwt>
<pdfrwt beam="2">  1       -2 0.91504894E-02 0.43537831E+03</pdfrwt>
<totfact> 0.33036325E+03</totfact>
</mgrwt>
</event>
<event>
 4    1  0.1025337E-004  0.5198428E+03  0.7818608E-02  0.1008726E+00
         -2   -1    0    0    0  501 -0.00000000000E+00  0.00000000000E+00  0.13391919071E+03  0.13391919074E+03  0.25500000000E-02 0. -1.
          2   -1    0    0  501    0  0.00000000000E+00 -0.00000000000E+00 -0.50447679656E+03  0.50447679656E+03  0.25500000000E-02 0.  1.
    5000001    1    1    2    0    0 -0.60198814959E+02  0.14551128283E+03 -0.33835139882E+03  0.40804913899E+03  0.16500000000E+03 0.  0.
   -5000001    1    1    2    0    0  0.60198814959E+02 -0.14551128283E+03 -0.32206207028E+02  0.23034684830E+03  0.16500000000E+03 0.  0.
<mgrwt>
<rscale>  0 0.51984276E+03</rscale>
<asrwt>0</asrwt>
<pdfrwt beam="1">  1        2 0.72068113E-01 0.51984276E+03</pdfrwt>
<pdfrwt beam="2">  1       -2 0.19131313E-01 0.51984276E+03</pdfrwt>
<totfact> 0.15294082E+03</totfact>
</mgrwt>
</event>
<event>
 4    1  0.1025337E-004  0.6411533E+03  0.7818608E-02  0.9823523E-01
          2   -1    0    0  501    0  0.00000000000E+00  0.00000000000E+00  0.82434708173E+03  0.82434708173E+03  0.25500000000E-02 0.  1.
         -2   -1    0    0    0  501 -0.00000000000E+00 -0.00000000000E+00 -0.12466760122E+03  0.12466760124E+03  0.25500000000E-02 0. -1.
    5000001    1    1    2    0    0 -0.26807283218E+03 -0.45284643765E+02  0.40961052015E+03  0.51857450818E+03  0.16500000000E+03 0.  0.
   -5000001    1    1    2    0    0  0.26807283218E+03  0.45284643765E+02  0.29006896036E+03  0.43044017480E+03  0.16500000000E+03 0.  0.
<mgrwt>
<rscale>  0 0.64115325E+03</rscale>
<asrwt>0</asrwt>
<pdfrwt beam="1">  1        2 0.11776386E+00 0.64115325E+03</pdfrwt>
<pdfrwt beam="2">  1       -2 0.17809658E-01 0.64115325E+03</pdfrwt>
<totfact> 0.95774440E+02</totfact>
</mgrwt>
</event>
<event>
 4    1  0.1025337E-004  0.8394683E+03  0.7818608E-02  0.9504582E-01
          2   -1    0    0  501    0  0.00000000000E+00  0.00000000000E+00  0.10006525508E+04  0.10006525508E+04  0.25500000000E-02 0.  1.
         -2   -1    0    0    0  501 -0.00000000000E+00 -0.00000000000E+00 -0.17606188497E+03  0.17606188499E+03  0.25500000000E-02 0. -1.
    5000001    1    1    2    0    0 -0.30012277623E+03  0.24201635330E+03  0.43682286884E+03  0.60554505597E+03  0.16500000000E+03 0.  0.
   -5000001    1    1    2    0    0  0.30012277623E+03 -0.24201635330E+03  0.38776779701E+03  0.57116937984E+03  0.16500000000E+03 0.  0.
<mgrwt>
<rscale>  0 0.83946834E+03</rscale>
<asrwt>0</asrwt>
<pdfrwt beam="1">  1        2 0.14295037E+00 0.83946834E+03</pdfrwt>
<pdfrwt beam="2">  1       -2 0.25151697E-01 0.83946834E+03</pdfrwt>
<totfact> 0.39840616E+02</totfact>
</mgrwt>
</event>
<event>
 4    1  0.1025337E-004  0.4936722E+03  0.7818608E-02  0.1015444E+00
         -2   -1    0    0    0  501 -0.00000000000E+00  0.00000000000E+00  0.13657804330E+03  0.13657804333E+03  0.25500000000E-02 0. -1.
          2   -1    0    0  501    0  0.00000000000E+00 -0.00000000000E+00 -0.44610440903E+03  0.44610440904E+03  0.25500000000E-02 0.  1.
    5000001    1    1    2    0    0 -0.46468796760E+02 -0.17160490982E+03 -0.10073326673E+03  0.26264002965E+03  0.16500000000E+03 0.  0.
   -5000001    1    1    2    0    0  0.46468796760E+02  0.17160490982E+03 -0.20879309900E+03  0.32004242272E+03  0.16500000000E+03 0.  0.
<mgrwt>
<rscale>  0 0.49367223E+03</rscale>
<asrwt>0</asrwt>
<pdfrwt beam="1">  1        2 0.63729200E-01 0.49367223E+03</pdfrwt>
<pdfrwt beam="2">  1       -2 0.19511149E-01 0.49367223E+03</pdfrwt>
<totfact> 0.16972070E+03</totfact>
</mgrwt>
</event>
<event>
 4    1  0.1025337E-004  0.6207437E+03  0.7818608E-02  0.9863280E-01
          2   -1    0    0  501    0  0.00000000000E+00  0.00000000000E+00  0.23299421554E+03  0.23299421556E+03  0.25500000000E-02 0.  1.
         -2   -1    0    0    0  501 -0.00000000000E+00 -0.00000000000E+00 -0.41344662816E+03  0.41344662817E+03  0.25500000000E-02 0. -1.
    5000001    1    1    2    0    0 -0.13329290355E+03 -0.22206236715E+03 -0.43340420157E+02  0.31013236700E+03  0.16500000000E+03 0.  0.
   -5000001    1    1    2    0    0  0.13329290355E+03  0.22206236715E+03 -0.13711199246E+03  0.33630847673E+03  0.16500000000E+03 0.  0.
<mgrwt>
<rscale>  0 0.62074366E+03</rscale>
<asrwt>0</asrwt>
<pdfrwt beam="1">  1        2 0.33284888E-01 0.62074366E+03</pdfrwt>
<pdfrwt beam="2">  1       -2 0.59063804E-01 0.62074366E+03</pdfrwt>
<totfact> 0.42748834E+02</totfact>
</mgrwt>
</event>
<event>
 4    1  0.1025337E-004  0.5352350E+03  0.7818608E-02  0.1004970E+00
          2   -1    0    0  501    0  0.00000000000E+00  0.00000000000E+00  0.24471503925E+04  0.24471503925E+04  0.25500000000E-02 0.  1.
         -2   -1    0    0    0  501 -0.00000000000E+00 -0.00000000000E+00 -0.29266339978E+02  0.29266340089E+02  0.25500000000E-02 0. -1.
    5000001    1    1    2    0    0  0.71525928975E+02  0.19623719133E+03  0.10806255623E+04  0.11129247951E+04  0.16500000000E+03 0.  0.
   -5000001    1    1    2    0    0 -0.71525928975E+02 -0.19623719133E+03  0.13372584903E+04  0.13634919375E+04  0.16500000000E+03 0.  0.
<mgrwt>
<rscale>  0 0.53523503E+03</rscale>
<asrwt>0</asrwt>
<pdfrwt beam="1">  1        2 0.34959288E+00 0.53523503E+03</pdfrwt>
<pdfrwt beam="2">  1       -2 0.41809062E-02 0.53523503E+03</pdfrwt>
<totfact> 0.13380885E+03</totfact>
</mgrwt>
</event>
<event>
 4    1  0.1025337E-004  0.3983722E+03  0.7818608E-02  0.1044345E+00
         -2   -1    0    0    0  501 -0.00000000000E+00  0.00000000000E+00  0.19841170552E+03  0.19841170553E+03  0.25500000000E-02 0. -1.
          2   -1    0    0  501    0  0.00000000000E+00 -0.00000000000E+00 -0.19996349629E+03  0.19996349630E+03  0.25500000000E-02 0.  1.
    5000001    1    1    2    0    0 -0.14267687249E+02 -0.90605719845E+02  0.62763039417E+02  0.19894009773E+03  0.16500000000E+03 0.  0.
   -5000001    1    1    2    0    0  0.14267687249E+02  0.90605719845E+02 -0.64314830186E+02  0.19943510411E+03  0.16500000000E+03 0.  0.
<mgrwt>
<rscale>  0 0.39837218E+03</rscale>
<asrwt>0</asrwt>
<pdfrwt beam="1">  1        2 0.28566214E-01 0.39837218E+03</pdfrwt>
<pdfrwt beam="2">  1       -2 0.28344529E-01 0.39837218E+03</pdfrwt>
<totfact> 0.21163372E+03</totfact>
</mgrwt>
</event>
<event>
 4    1  0.1025337E-004  0.6353398E+03  0.7818608E-02  0.9834684E-01
          2   -1    0    0  501    0  0.00000000000E+00  0.00000000000E+00  0.12606078762E+04  0.12606078762E+04  0.25500000000E-02 0.  1.
         -2   -1    0    0    0  501 -0.00000000000E+00 -0.00000000000E+00 -0.80051975861E+02  0.80051975902E+02  0.25500000000E-02 0. -1.
    5000001    1    1    2    0    0  0.25301224464E+03  0.57447207402E+02  0.75874341829E+03  0.81867695239E+03  0.16500000000E+03 0.  0.
   -5000001    1    1    2    0    0 -0.25301224464E+03 -0.57447207402E+02  0.42181248201E+03  0.52198289967E+03  0.16500000000E+03 0.  0.
<mgrwt>
<rscale>  0 0.63533976E+03</rscale>
<asrwt>0</asrwt>
<pdfrwt beam="1">  1        2 0.18008683E+00 0.63533976E+03</pdfrwt>
<pdfrwt beam="2">  1       -2 0.11435997E-01 0.63533976E+03</pdfrwt>
<totfact> 0.10977850E+03</totfact>
</mgrwt>
</event>
<event>
 4    1  0.1025337E-004  0.4013485E+03  0.7818608E-02  0.1043314E+00
         -2   -1    0    0    0  501 -0.00000000000E+00  0.00000000000E+00  0.25681322432E+02  0.25681322559E+02  0.25500000000E-02 0. -1.
          2   -1    0    0  501    0  0.00000000000E+00 -0.00000000000E+00 -0.15680714940E+04  0.15680714940E+04  0.25500000000E-02 0.  1.
    5000001    1    1    2    0    0 -0.10828148603E+03 -0.24219690778E+02 -0.66363490266E+03  0.69278261935E+03  0.16500000000E+03 0.  0.
   -5000001    1    1    2    0    0  0.10828148603E+03  0.24219690778E+02 -0.87875526894E+03  0.90097019724E+03  0.16500000000E+03 0.  0.
<mgrwt>
<rscale>  0 0.40134848E+03</rscale>
<asrwt>0</asrwt>
<pdfrwt beam="1">  1        2 0.22401015E+00 0.40134848E+03</pdfrwt>
<pdfrwt beam="2">  1       -2 0.36687614E-02 0.40134848E+03</pdfrwt>
<totfact> 0.45258164E+03</totfact>
</mgrwt>
</event>
<event>
 4    1  0.1025337E-004  0.5552242E+03  0.7818608E-02  0.1000292E+00
         -2   -1    0    0    0  501 -0.00000000000E+00  0.00000000000E+00  0.60235879252E+02  0.60235879306E+02  0.25500000000E-02 0. -1.
          2   -1    0    0  501    0  0.00000000000E+00 -0.00000000000E+00 -0.12794447553E+04  0.12794447553E+04  0.25500000000E-02 0.  1.
    5000001    1    1    2    0    0 -0.10841660827E+03 -0.19306404919E+03 -0.67851238491E+03  0.73255166679E+03  0.16500000000E+03 0.  0.
   -5000001    1    1    2    0    0  0.10841660827E+03  0.19306404919E+03 -0.54069649115E+03  0.60712896783E+03  0.16500000000E+03 0.  0.
<mgrwt>
<rscale>  0 0.55522421E+03</rscale>
<asrwt>0</asrwt>
<pdfrwt beam="1">  1        2 0.18277781E+00 0.55522421E+03</pdfrwt>
<pdfrwt beam="2">  1       -2 0.86051264E-02 0.55522421E+03</pdfrwt>
<totfact> 0.17030201E+03</totfact>
</mgrwt>
</event>
<event>
 4    1  0.1025337E-004  0.3835614E+03  0.7818608E-02  0.1049625E+00
         -2   -1    0    0    0  501 -0.00000000000E+00  0.00000000000E+00  0.37819759611E+02  0.37819759697E+02  0.25500000000E-02 0. -1.
          2   -1    0    0  501    0  0.00000000000E+00 -0.00000000000E+00 -0.97250317679E+03  0.97250317679E+03  0.25500000000E-02 0.  1.
    5000001    1    1    2    0    0 -0.41005840429E+02 -0.82258903540E+02 -0.37970908169E+03  0.42408960478E+03  0.16500000000E+03 0.  0.
   -5000001    1    1    2    0    0  0.41005840429E+02  0.82258903540E+02 -0.55497433549E+03  0.58623333171E+03  0.16500000000E+03 0.  0.
<mgrwt>
<rscale>  0 0.38356140E+03</rscale>
<asrwt>0</asrwt>
<pdfrwt beam="1">  1        2 0.13892901E+00 0.38356140E+03</pdfrwt>
<pdfrwt beam="2">  1       -2 0.54028234E-02 0.38356140E+03</pdfrwt>
<totfact> 0.52915916E+03</totfact>
</mgrwt>
</event>
<event>
 4    1  0.1025337E-004  0.3576519E+03  0.7818608E-02  0.1059517E+00
          2   -1    0    0  501    0  0.00000000000E+00  0.00000000000E+00  0.15057780588E+04  0.15057780588E+04  0.25500000000E-02 0.  1.
         -2   -1    0    0    0  501 -0.00000000000E+00 -0.00000000000E+00 -0.21237341252E+02  0.21237341405E+02  0.25500000000E-02 0. -1.
    5000001    1    1    2    0    0  0.40723234776E+02 -0.42861815507E+02  0.89371665592E+03  0.91074144418E+03  0.16500000000E+03 0.  0.
   -5000001    1    1    2    0    0 -0.40723234776E+02  0.42861815507E+02  0.59082406163E+03  0.61627395603E+03  0.16500000000E+03 0.  0.
<mgrwt>
<rscale>  0 0.35765191E+03</rscale>
<asrwt>0</asrwt>
<pdfrwt beam="1">  1        2 0.21511121E+00 0.35765191E+03</pdfrwt>
<pdfrwt beam="2">  1       -2 0.30339050E-02 0.35765191E+03</pdfrwt>
<totfact> 0.64791135E+03</totfact>
</mgrwt>
</event>
<event>
 4    1  0.1025337E-004  0.6023671E+03  0.7818608E-02  0.9900507E-01
         -2   -1    0    0    0  501 -0.00000000000E+00  0.00000000000E+00  0.40508315183E+03  0.40508315183E+03  0.25500000000E-02 0. -1.
          2   -1    0    0  501    0  0.00000000000E+00 -0.00000000000E+00 -0.22393312750E+03  0.22393312751E+03  0.25500000000E-02 0.  1.
    5000001    1    1    2    0    0 -0.59057930362E+01  0.15509449227E+03  0.29784392601E+03  0.37419939095E+03  0.16500000000E+03 0.  0.
   -5000001    1    1    2    0    0  0.59057930362E+01 -0.15509449227E+03 -0.11669390169E+03  0.25481688840E+03  0.16500000000E+03 0.  0.
<mgrwt>
<rscale>  0 0.60236712E+03</rscale>
<asrwt>0</asrwt>
<pdfrwt beam="1">  1        2 0.31990447E-01 0.60236712E+03</pdfrwt>
<pdfrwt beam="2">  1       -2 0.57869021E-01 0.60236712E+03</pdfrwt>
<totfact> 0.46655431E+02</totfact>
</mgrwt>
</event>
<event>
 4    1  0.1025337E-004  0.4835061E+03  0.7818608E-02  0.1018176E+00
         -2   -1    0    0    0  501 -0.00000000000E+00  0.00000000000E+00  0.10322698460E+03  0.10322698463E+03  0.25500000000E-02 0.  1.
          2   -1    0    0  501    0  0.00000000000E+00 -0.00000000000E+00 -0.56617496535E+03  0.56617496536E+03  0.25500000000E-02 0. -1.
    5000001    1    1    2    0    0  0.17055656763E+03 -0.18266514570E+02 -0.17279567746E+03  0.29411996611E+03  0.16500000000E+03 0.  0.
   -5000001    1    1    2    0    0 -0.17055656763E+03  0.18266514570E+02 -0.29015230330E+03  0.37528198388E+03  0.16500000000E+03 0.  0.
<mgrwt>
<rscale>  0 0.48350609E+03</rscale>
<asrwt>0</asrwt>
<pdfrwt beam="1">  1        2 0.80882136E-01 0.48350609E+03</pdfrwt>
<pdfrwt beam="2">  1       -2 0.14746712E-01 0.48350609E+03</pdfrwt>
<totfact> 0.20849193E+03</totfact>
</mgrwt>
</event>
<event>
 4    1  0.1025337E-004  0.3942221E+03  0.7818608E-02  0.1045799E+00
          2   -1    0    0  501    0  0.00000000000E+00  0.00000000000E+00  0.39754344398E+03  0.39754344399E+03  0.25500000000E-02 0.  1.
         -2   -1    0    0    0  501 -0.00000000000E+00 -0.00000000000E+00 -0.97732124569E+02  0.97732124602E+02  0.25500000000E-02 0. -1.
    5000001    1    1    2    0    0  0.73298376314E+02  0.78654519868E+02  0.16030975854E+03  0.25393582683E+03  0.16500000000E+03 0.  0.
   -5000001    1    1    2    0    0 -0.73298376314E+02 -0.78654519868E+02  0.13950156087E+03  0.24133974176E+03  0.16500000000E+03 0.  0.
<mgrwt>
<rscale>  0 0.39422210E+03</rscale>
<asrwt>0</asrwt>
<pdfrwt beam="1">  1        2 0.56791920E-01 0.39422210E+03</pdfrwt>
<pdfrwt beam="2">  1       -2 0.13961732E-01 0.39422210E+03</pdfrwt>
<totfact> 0.33846871E+03</totfact>
</mgrwt>
</event>
<event>
 4    1  0.1025337E-004  0.4946422E+03  0.7818608E-02  0.1015187E+00
          2   -1    0    0  501    0  0.00000000000E+00  0.00000000000E+00  0.15652707869E+04  0.15652707870E+04  0.25500000000E-02 0. -1.
         -2   -1    0    0    0  501 -0.00000000000E+00 -0.00000000000E+00 -0.39078044124E+02  0.39078044207E+02  0.25500000000E-02 0.  1.
    5000001    1    1    2    0    0 -0.90791428031E+02  0.15513437701E+03  0.89416410134E+03  0.92685716184E+03  0.16500000000E+03 0.  0.
   -5000001    1    1    2    0    0  0.90791428031E+02 -0.15513437701E+03  0.63202864149E+03  0.67749166932E+03  0.16500000000E+03 0.  0.
<mgrwt>
<rscale>  0 0.49464218E+03</rscale>
<asrwt>0</asrwt>
<pdfrwt beam="1">  1        2 0.22361003E+00 0.49464218E+03</pdfrwt>
<pdfrwt beam="2">  1       -2 0.55825799E-02 0.49464218E+03</pdfrwt>
<totfact> 0.23831873E+03</totfact>
</mgrwt>
</event>
<event>
 4    1  0.1025337E-004  0.3839435E+03  0.7818608E-02  0.1049486E+00
         -2   -1    0    0    0  501 -0.00000000000E+00  0.00000000000E+00  0.55608096174E+03  0.55608096175E+03  0.25500000000E-02 0. -1.
          2   -1    0    0  501    0  0.00000000000E+00 -0.00000000000E+00 -0.66273010522E+02  0.66273010571E+02  0.25500000000E-02 0.  1.
    5000001    1    1    2    0    0 -0.66770949928E+02  0.71887110345E+02  0.24258705884E+03  0.30935351542E+03  0.16500000000E+03 0.  0.
   -5000001    1    1    2    0    0  0.66770949928E+02 -0.71887110345E+02  0.24722089238E+03  0.31300045689E+03  0.16500000000E+03 0.  0.
<mgrwt>
<rscale>  0 0.38394353E+03</rscale>
<asrwt>0</asrwt>
<pdfrwt beam="1">  1        2 0.94675731E-02 0.38394353E+03</pdfrwt>
<pdfrwt beam="2">  1       -2 0.79440136E-01 0.38394353E+03</pdfrwt>
<totfact> 0.10003860E+03</totfact>
</mgrwt>
</event>
<event>
 4    1  0.1025337E-004  0.3865846E+03  0.7818608E-02  0.1048527E+00
          2   -1    0    0  501    0  0.00000000000E+00  0.00000000000E+00  0.31672199486E+03  0.31672199487E+03  0.25500000000E-02 0.  1.
         -2   -1    0    0    0  501 -0.00000000000E+00 -0.00000000000E+00 -0.11796439187E+03  0.11796439190E+03  0.25500000000E-02 0. -1.
    5000001    1    1    2    0    0 -0.15860496380E+02  0.97396728683E+02  0.76911641719E+02  0.20707022658E+03  0.16500000000E+03 0.  0.
   -5000001    1    1    2    0    0  0.15860496380E+02 -0.97396728683E+02  0.12184596127E+03  0.22761616019E+03  0.16500000000E+03 0.  0.
<mgrwt>
<rscale>  0 0.38658462E+03</rscale>
<asrwt>0</asrwt>
<pdfrwt beam="1">  1        2 0.45245999E-01 0.38658462E+03</pdfrwt>
<pdfrwt beam="2">  1       -2 0.16852056E-01 0.38658462E+03</pdfrwt>
<totfact> 0.31662266E+03</totfact>
</mgrwt>
</event>
<event>
 4    1  0.1025337E-004  0.5402395E+03  0.7818608E-02  0.1003779E+00
          2   -1    0    0  501    0  0.00000000000E+00  0.00000000000E+00  0.48026604277E+03  0.48026604277E+03  0.25500000000E-02 0.  1.
         -2   -1    0    0    0  501 -0.00000000000E+00 -0.00000000000E+00 -0.15192552803E+03  0.15192552806E+03  0.25500000000E-02 0. -1.
    5000001    1    1    2    0    0  0.39367652470E+02 -0.18299000853E+03  0.28524287249E+03  0.37897711222E+03  0.16500000000E+03 0.  0.
   -5000001    1    1    2    0    0 -0.39367652470E+02  0.18299000853E+03  0.43097642244E+02  0.25321445861E+03  0.16500000000E+03 0.  0.
<mgrwt>
<rscale>  0 0.54023947E+03</rscale>
<asrwt>0</asrwt>
<pdfrwt beam="1">  1        2 0.68609436E-01 0.54023947E+03</pdfrwt>
<pdfrwt beam="2">  1       -2 0.21703646E-01 0.54023947E+03</pdfrwt>
<totfact> 0.12979904E+03</totfact>
</mgrwt>
</event>
<event>
 4    1  0.1025337E-004  0.6344335E+03  0.7818608E-02  0.9836435E-01
         -2   -1    0    0    0  501 -0.00000000000E+00  0.00000000000E+00  0.27503070194E+02  0.27503070313E+02  0.25500000000E-02 0. -1.
          2   -1    0    0  501    0  0.00000000000E+00 -0.00000000000E+00 -0.36587352254E+04  0.36587352254E+04  0.25500000000E-02 0.  1.
    5000001    1    1    2    0    0 -0.13719810294E+03  0.22687948563E+03 -0.21393188350E+04  0.21619916046E+04  0.16500000000E+03 0.  0.
   -5000001    1    1    2    0    0  0.13719810294E+03 -0.22687948563E+03 -0.14919133201E+04  0.15242466911E+04  0.16500000000E+03 0.  0.
<mgrwt>
<rscale>  0 0.63443345E+03</rscale>
<asrwt>0</asrwt>
<pdfrwt beam="1">  1        2 0.52267615E+00 0.63443345E+03</pdfrwt>
<pdfrwt beam="2">  1       -2 0.39290124E-02 0.63443345E+03</pdfrwt>
<totfact> 0.31204926E+02</totfact>
</mgrwt>
</event>
<event>
 4    1  0.1025337E-004  0.4528621E+03  0.7818608E-02  0.1026872E+00
          2   -1    0    0  501    0  0.00000000000E+00  0.00000000000E+00  0.88465776514E+03  0.88465776515E+03  0.25500000000E-02 0.  1.
         -2   -1    0    0    0  501 -0.00000000000E+00 -0.00000000000E+00 -0.57955764750E+02  0.57955764806E+02  0.25500000000E-02 0. -1.
    5000001    1    1    2    0    0 -0.15039116705E+03  0.19872405506E+02  0.48026921063E+03  0.52999616065E+03  0.16500000000E+03 0.  0.
   -5000001    1    1    2    0    0  0.15039116705E+03 -0.19872405506E+02  0.34643278977E+03  0.41261736931E+03  0.16500000000E+03 0.  0.
<mgrwt>
<rscale>  0 0.45286209E+03</rscale>
<asrwt>0</asrwt>
<pdfrwt beam="1">  1        2 0.12637969E+00 0.45286209E+03</pdfrwt>
<pdfrwt beam="2">  1       -2 0.82793947E-02 0.45286209E+03</pdfrwt>
<totfact> 0.30884139E+03</totfact>
</mgrwt>
</event>
<event>
 4    1  0.1025337E-004  0.5498606E+03  0.7818608E-02  0.1001526E+00
          2   -1    0    0  501    0  0.00000000000E+00  0.00000000000E+00  0.73244091697E+03  0.73244091698E+03  0.25500000000E-02 0.  1.
         -2   -1    0    0    0  501 -0.00000000000E+00 -0.00000000000E+00 -0.10319830964E+03  0.10319830967E+03  0.25500000000E-02 0. -1.
    5000001    1    1    2    0    0  0.16479878948E+03  0.13185571356E+03  0.40851418770E+03  0.48852165947E+03  0.16500000000E+03 0.  0.
   -5000001    1    1    2    0    0 -0.16479878948E+03 -0.13185571356E+03  0.22072841963E+03  0.34711756718E+03  0.16500000000E+03 0.  0.
<mgrwt>
<rscale>  0 0.54986058E+03</rscale>
<asrwt>0</asrwt>
<pdfrwt beam="1">  1        2 0.10463441E+00 0.54986058E+03</pdfrwt>
<pdfrwt beam="2">  1       -2 0.14742616E-01 0.54986058E+03</pdfrwt>
<totfact> 0.15349075E+03</totfact>
</mgrwt>
</event>
<event>
 4    1  0.1025337E-004  0.4351191E+03  0.7818608E-02  0.1032255E+00
          2   -1    0    0  501    0  0.00000000000E+00  0.00000000000E+00  0.60605968026E+03  0.60605968026E+03  0.25500000000E-02 0.  1.
         -2   -1    0    0    0  501 -0.00000000000E+00 -0.00000000000E+00 -0.78098174088E+02  0.78098174129E+02  0.25500000000E-02 0. -1.
    5000001    1    1    2    0    0 -0.99584161217E+02  0.91151654074E+02  0.19577779552E+03  0.28944701488E+03  0.16500000000E+03 0.  0.
   -5000001    1    1    2    0    0  0.99584161217E+02 -0.91151654074E+02  0.33218371065E+03  0.39471083951E+03  0.16500000000E+03 0.  0.
<mgrwt>
<rscale>  0 0.43511908E+03</rscale>
<asrwt>0</asrwt>
<pdfrwt beam="1">  1        2 0.86579952E-01 0.43511908E+03</pdfrwt>
<pdfrwt beam="2">  1       -2 0.11156882E-01 0.43511908E+03</pdfrwt>
<totfact> 0.30473356E+03</totfact>
</mgrwt>
</event>
<event>
 4    1  0.1025337E-004  0.6787307E+03  0.7818608E-02  0.9754313E-01
          2   -1    0    0  501    0  0.00000000000E+00  0.00000000000E+00  0.30008122505E+04  0.30008122505E+04  0.25500000000E-02 0.  1.
         -2   -1    0    0    0  501 -0.00000000000E+00 -0.00000000000E+00 -0.38379222548E+02  0.38379222632E+02  0.25500000000E-02 0. -1.
    5000001    1    1    2    0    0  0.29324978907E+03  0.43020427317E+02  0.14369692550E+04  0.14764659955E+04  0.16500000000E+03 0.  0.
   -5000001    1    1    2    0    0 -0.29324978907E+03 -0.43020427317E+02  0.15254637729E+04  0.15627254777E+04  0.16500000000E+03 0.  0.
<mgrwt>
<rscale>  0 0.67873070E+03</rscale>
<asrwt>0</asrwt>
<pdfrwt beam="1">  1        2 0.42868738E+00 0.67873070E+03</pdfrwt>
<pdfrwt beam="2">  1       -2 0.54827471E-02 0.67873070E+03</pdfrwt>
<totfact> 0.44451992E+02</totfact>
</mgrwt>
</event>
<event>
 4    1  0.1025337E-004  0.6385365E+03  0.7818608E-02  0.9828531E-01
          2   -1    0    0  501    0  0.00000000000E+00  0.00000000000E+00  0.15613830076E+04  0.15613830076E+04  0.25500000000E-02 0.  1.
         -2   -1    0    0    0  501 -0.00000000000E+00 -0.00000000000E+00 -0.65283279137E+02  0.65283279187E+02  0.25500000000E-02 0. -1.
    5000001    1    1    2    0    0 -0.27271033962E+03 -0.79775568294E+01  0.70598677209E+03  0.77464630194E+03  0.16500000000E+03 0.  0.
   -5000001    1    1    2    0    0  0.27271033962E+03  0.79775568294E+01  0.79011295639E+03  0.85201998486E+03  0.16500000000E+03 0.  0.
<mgrwt>
<rscale>  0 0.63853646E+03</rscale>
<asrwt>0</asrwt>
<pdfrwt beam="1">  1        2 0.22305475E+00 0.63853646E+03</pdfrwt>
<pdfrwt beam="2">  1       -2 0.93261812E-02 0.63853646E+03</pdfrwt>
<totfact> 0.10581658E+03</totfact>
</mgrwt>
</event>
<event>
 4    1  0.1025337E-004  0.5240454E+03  0.7818608E-02  0.1007687E+00
          2   -1    0    0  501    0  0.00000000000E+00  0.00000000000E+00  0.14898090532E+04  0.14898090532E+04  0.25500000000E-02 0.  1.
         -2   -1    0    0    0  501 -0.00000000000E+00 -0.00000000000E+00 -0.46083691923E+02  0.46083691994E+02  0.25500000000E-02 0. -1.
    5000001    1    1    2    0    0  0.53155088357E+02 -0.19587996896E+03  0.76693244972E+03  0.81031155002E+03  0.16500000000E+03 0.  0.
   -5000001    1    1    2    0    0 -0.53155088357E+02  0.19587996896E+03  0.67679291150E+03  0.72558119513E+03  0.16500000000E+03 0.  0.
<mgrwt>
<rscale>  0 0.52404542E+03</rscale>
<asrwt>0</asrwt>
<pdfrwt beam="1">  1        2 0.21282981E+00 0.52404542E+03</pdfrwt>
<pdfrwt beam="2">  1       -2 0.65833861E-02 0.52404542E+03</pdfrwt>
<totfact> 0.20137174E+03</totfact>
</mgrwt>
</event>
<event>
 4    1  0.1025337E-004  0.4697259E+03  0.7818608E-02  0.1021998E+00
         -2   -1    0    0    0  501 -0.00000000000E+00  0.00000000000E+00  0.30269419216E+02  0.30269419323E+02  0.25500000000E-02 0. -1.
          2   -1    0    0  501    0  0.00000000000E+00 -0.00000000000E+00 -0.18223210717E+04  0.18223210717E+04  0.25500000000E-02 0.  1.
    5000001    1    1    2    0    0  0.15888631338E+03  0.39991250540E+02 -0.76572869661E+03  0.80025595750E+03  0.16500000000E+03 0.  0.
   -5000001    1    1    2    0    0 -0.15888631338E+03 -0.39991250540E+02 -0.10263229558E+04  0.10523345335E+04  0.16500000000E+03 0.  0.
<mgrwt>
<rscale>  0 0.46972588E+03</rscale>
<asrwt>0</asrwt>
<pdfrwt beam="1">  1        2 0.26033151E+00 0.46972588E+03</pdfrwt>
<pdfrwt beam="2">  1       -2 0.43242039E-02 0.46972588E+03</pdfrwt>
<totfact> 0.26219848E+03</totfact>
</mgrwt>
</event>
<event>
 4    1  0.1025337E-004  0.9324015E+03  0.7818608E-02  0.9385960E-01
          2   -1    0    0  501    0  0.00000000000E+00  0.00000000000E+00  0.10193478262E+04  0.10193478262E+04  0.25500000000E-02 0.  1.
         -2   -1    0    0    0  501 -0.00000000000E+00 -0.00000000000E+00 -0.21321785951E+03  0.21321785953E+03  0.25500000000E-02 0. -1.
    5000001    1    1    2    0    0  0.23291565122E+03  0.16382769978E+03 -0.33428730501E+02  0.33080461880E+03  0.16500000000E+03 0.  0.
   -5000001    1    1    2    0    0 -0.23291565122E+03 -0.16382769978E+03  0.83955869714E+03  0.90176106688E+03  0.16500000000E+03 0.  0.
<mgrwt>
<rscale>  0 0.93240155E+03</rscale>
<asrwt>0</asrwt>
<pdfrwt beam="1">  1        2 0.14562112E+00 0.93240155E+03</pdfrwt>
<pdfrwt beam="2">  1       -2 0.30459694E-01 0.93240155E+03</pdfrwt>
<totfact> 0.27189819E+02</totfact>
</mgrwt>
</event>
<event>
 4    1  0.1025337E-004  0.1213693E+04  0.7818608E-02  0.9100955E-01
         -2   -1    0    0    0  501 -0.00000000000E+00  0.00000000000E+00  0.82749148505E+03  0.82749148505E+03  0.25500000000E-02 0. -1.
          2   -1    0    0  501    0  0.00000000000E+00 -0.00000000000E+00 -0.44503471190E+03  0.44503471191E+03  0.25500000000E-02 0.  1.
    5000001    1    1    2    0    0  0.32345510938E+03  0.55855624650E+02 -0.31519081110E+03  0.48405919678E+03  0.16500000000E+03 0.  0.
   -5000001    1    1    2    0    0 -0.32345510938E+03 -0.55855624650E+02  0.69764758424E+03  0.78846700019E+03  0.16500000000E+03 0.  0.
<mgrwt>
<rscale>  0 0.12136926E+04</rscale>
<asrwt>0</asrwt>
<pdfrwt beam="1">  1        2 0.63576388E-01 0.12136926E+04</pdfrwt>
<pdfrwt beam="2">  1       -2 0.11821307E+00 0.12136926E+04</pdfrwt>
<totfact> 0.41699818E+01</totfact>
</mgrwt>
</event>
<event>
 4    1  0.1025337E-004  0.4591797E+03  0.7818608E-02  0.1025019E+00
          2   -1    0    0  501    0  0.00000000000E+00  0.00000000000E+00  0.73841540002E+03  0.73841540003E+03  0.25500000000E-02 0.  1.
         -2   -1    0    0    0  501 -0.00000000000E+00 -0.00000000000E+00 -0.71384607699E+02  0.71384607745E+02  0.25500000000E-02 0. -1.
    5000001    1    1    2    0    0 -0.54025119329E+02 -0.14718838263E+03  0.38652146409E+03  0.44856100555E+03  0.16500000000E+03 0.  0.
   -5000001    1    1    2    0    0  0.54025119329E+02  0.14718838263E+03  0.28050932823E+03  0.36123900222E+03  0.16500000000E+03 0.  0.
<mgrwt>
<rscale>  0 0.45917968E+03</rscale>
<asrwt>0</asrwt>
<pdfrwt beam="1">  1        2 0.10548791E+00 0.45917968E+03</pdfrwt>
<pdfrwt beam="2">  1       -2 0.10197801E-01 0.45917968E+03</pdfrwt>
<totfact> 0.27840565E+03</totfact>
</mgrwt>
</event>
<event>
 4    1  0.1025337E-004  0.4169406E+03  0.7818608E-02  0.1038067E+00
         -2   -1    0    0    0  501 -0.00000000000E+00  0.00000000000E+00  0.58472987075E+02  0.58472987130E+02  0.25500000000E-02 0. -1.
          2   -1    0    0  501    0  0.00000000000E+00 -0.00000000000E+00 -0.74324672774E+03  0.74324672774E+03  0.25500000000E-02 0.  1.
    5000001    1    1    2    0    0 -0.71585759972E+02 -0.16146267770E+02 -0.14209839746E+03  0.22978724410E+03  0.16500000000E+03 0.  0.
   -5000001    1    1    2    0    0  0.71585759972E+02  0.16146267770E+02 -0.54267534321E+03  0.57193247077E+03  0.16500000000E+03 0.  0.
<mgrwt>
<rscale>  0 0.41694055E+03</rscale>
<asrwt>0</asrwt>
<pdfrwt beam="1">  1        2 0.10617810E+00 0.41694055E+03</pdfrwt>
<pdfrwt beam="2">  1       -2 0.83532843E-02 0.41694055E+03</pdfrwt>
<totfact> 0.37956517E+03</totfact>
</mgrwt>
</event>
<event>
 4    1  0.1025337E-004  0.5211102E+03  0.7818608E-02  0.1008411E+00
         -2   -1    0    0    0  501 -0.00000000000E+00  0.00000000000E+00  0.29306544302E+02  0.29306544413E+02  0.25500000000E-02 0. -1.
          2   -1    0    0  501    0  0.00000000000E+00 -0.00000000000E+00 -0.23165119270E+04  0.23165119270E+04  0.25500000000E-02 0.  1.
    5000001    1    1    2    0    0  0.45156084431E+02 -0.18572571242E+03 -0.14329266522E+04  0.14550040903E+04  0.16500000000E+03 0.  0.
   -5000001    1    1    2    0    0 -0.45156084431E+02  0.18572571242E+03 -0.85427873054E+03  0.89081438115E+03  0.16500000000E+03 0.  0.
<mgrwt>
<rscale>  0 0.52111020E+03</rscale>
<asrwt>0</asrwt>
<pdfrwt beam="1">  1        2 0.33093016E+00 0.52111020E+03</pdfrwt>
<pdfrwt beam="2">  1       -2 0.41866506E-02 0.52111020E+03</pdfrwt>
<totfact> 0.15563878E+03</totfact>
</mgrwt>
</event>
<event>
 4    1  0.1025337E-004  0.4628942E+03  0.7818608E-02  0.1023945E+00
          2   -1    0    0  501    0  0.00000000000E+00  0.00000000000E+00  0.81766681422E+03  0.81766681423E+03  0.25500000000E-02 0.  1.
         -2   -1    0    0    0  501 -0.00000000000E+00 -0.00000000000E+00 -0.65512940854E+02  0.65512940904E+02  0.25500000000E-02 0. -1.
    5000001    1    1    2    0    0  0.14426368227E+02 -0.15184946483E+03  0.27025220021E+03  0.35146497946E+03  0.16500000000E+03 0.  0.
   -5000001    1    1    2    0    0 -0.14426368227E+02  0.15184946483E+03  0.48190167316E+03  0.53171477567E+03  0.16500000000E+03 0.  0.
<mgrwt>
<rscale>  0 0.46289419E+03</rscale>
<asrwt>0</asrwt>
<pdfrwt beam="1">  1        2 0.11680954E+00 0.46289419E+03</pdfrwt>
<pdfrwt beam="2">  1       -2 0.93589919E-02 0.46289419E+03</pdfrwt>
<totfact> 0.28130644E+03</totfact>
</mgrwt>
</event>
<event>
 4    1  0.1025337E-004  0.4168661E+03  0.7818608E-02  0.1038091E+00
          2   -1    0    0  501    0  0.00000000000E+00  0.00000000000E+00  0.40933232765E+04  0.40933232765E+04  0.25500000000E-02 0.  1.
         -2   -1    0    0    0  501 -0.00000000000E+00 -0.00000000000E+00 -0.10613462581E+02  0.10613462887E+02  0.25500000000E-02 0. -1.
    5000001    1    1    2    0    0  0.21081121978E+02 -0.82365065923E+02  0.11078726527E+04  0.11233143960E+04  0.16500000000E+03 0.  0.
   -5000001    1    1    2    0    0 -0.21081121978E+02  0.82365065923E+02  0.29748371612E+04  0.29806223433E+04  0.16500000000E+03 0.  0.
<mgrwt>
<rscale>  0 0.41686609E+03</rscale>
<asrwt>0</asrwt>
<pdfrwt beam="1">  1        2 0.58476143E+00 0.41686609E+03</pdfrwt>
<pdfrwt beam="2">  1       -2 0.15162065E-02 0.41686609E+03</pdfrwt>
<totfact> 0.70890399E+02</totfact>
</mgrwt>
</event>
<event>
 4    1  0.1025337E-004  0.7571085E+03  0.7818608E-02  0.9624264E-01
          2   -1    0    0  501    0  0.00000000000E+00  0.00000000000E+00  0.12383718365E+04  0.12383718365E+04  0.25500000000E-02 0.  1.
         -2   -1    0    0    0  501 -0.00000000000E+00 -0.00000000000E+00 -0.11571914414E+03  0.11571914417E+03  0.25500000000E-02 0. -1.
    5000001    1    1    2    0    0  0.25131084428E+03  0.47929401826E+02  0.15891726621E+03  0.34341529598E+03  0.16500000000E+03 0.  0.
   -5000001    1    1    2    0    0 -0.25131084428E+03 -0.47929401826E+02  0.96373542613E+03  0.10106756847E+04  0.16500000000E+03 0.  0.
<mgrwt>
<rscale>  0 0.75710852E+03</rscale>
<asrwt>0</asrwt>
<pdfrwt beam="1">  1        2 0.17691028E+00 0.75710852E+03</pdfrwt>
<pdfrwt beam="2">  1       -2 0.16531305E-01 0.75710852E+03</pdfrwt>
<totfact> 0.60674232E+02</totfact>
</mgrwt>
</event>
<event>
 4    1  0.1025337E-004  0.5056898E+03  0.7818608E-02  0.1012304E+00
         -2   -1    0    0    0  501 -0.00000000000E+00  0.00000000000E+00  0.63455853508E+03  0.63455853509E+03  0.25500000000E-02 0. -1.
          2   -1    0    0  501    0  0.00000000000E+00 -0.00000000000E+00 -0.10074805807E+03  0.10074805811E+03  0.25500000000E-02 0.  1.
    5000001    1    1    2    0    0  0.14334421916E+03 -0.10017949211E+03  0.15313399280E+03  0.28505879316E+03  0.16500000000E+03 0.  0.
   -5000001    1    1    2    0    0 -0.14334421916E+03  0.10017949211E+03  0.38067648421E+03  0.45024780004E+03  0.16500000000E+03 0.  0.
<mgrwt>
<rscale>  0 0.50568979E+03</rscale>
<asrwt>0</asrwt>
<pdfrwt beam="1">  1        2 0.14392580E-01 0.50568979E+03</pdfrwt>
<pdfrwt beam="2">  1       -2 0.90651220E-01 0.50568979E+03</pdfrwt>
<totfact> 0.44260788E+02</totfact>
</mgrwt>
</event>
<event>
 4    1  0.1025337E-004  0.5461337E+03  0.7818608E-02  0.1002393E+00
         -2   -1    0    0    0  501 -0.00000000000E+00  0.00000000000E+00  0.22504426785E+02  0.22504426930E+02  0.25500000000E-02 0. -1.
          2   -1    0    0  501    0  0.00000000000E+00 -0.00000000000E+00 -0.33133708616E+04  0.33133708616E+04  0.25500000000E-02 0.  1.
    5000001    1    1    2    0    0  0.15808679781E+03  0.12813030928E+03 -0.21158690694E+04  0.21320262031E+04  0.16500000000E+03 0.  0.
   -5000001    1    1    2    0    0 -0.15808679781E+03 -0.12813030928E+03 -0.11749973654E+04  0.12038490855E+04  0.16500000000E+03 0.  0.
<mgrwt>
<rscale>  0 0.54613373E+03</rscale>
<asrwt>0</asrwt>
<pdfrwt beam="1">  1        2 0.47333838E+00 0.54613373E+03</pdfrwt>
<pdfrwt beam="2">  1       -2 0.32149202E-02 0.54613373E+03</pdfrwt>
<totfact> 0.68623137E+02</totfact>
</mgrwt>
</event>
<event>
 4    1  0.1025337E-004  0.5936497E+03  0.7818608E-02  0.9918669E-01
          2   -1    0    0  501    0  0.00000000000E+00  0.00000000000E+00  0.72477371093E+03  0.72477371093E+03  0.25500000000E-02 0.  1.
         -2   -1    0    0    0  501 -0.00000000000E+00 -0.00000000000E+00 -0.12156207193E+03  0.12156207195E+03  0.25500000000E-02 0. -1.
    5000001    1    1    2    0    0 -0.10155276297E+03 -0.22398073696E+03  0.33010666052E+03  0.44348138802E+03  0.16500000000E+03 0.  0.
   -5000001    1    1    2    0    0  0.10155276297E+03  0.22398073696E+03  0.27310497848E+03  0.40285439487E+03  0.16500000000E+03 0.  0.
<mgrwt>
<rscale>  0 0.59364971E+03</rscale>
<asrwt>0</asrwt>
<pdfrwt beam="1">  1        2 0.10353911E+00 0.59364971E+03</pdfrwt>
<pdfrwt beam="2">  1       -2 0.17366009E-01 0.59364971E+03</pdfrwt>
<totfact> 0.11778624E+03</totfact>
</mgrwt>
</event>
<event>
 4    1  0.1025337E-004  0.7608511E+03  0.7818608E-02  0.9618479E-01
         -2   -1    0    0    0  501 -0.00000000000E+00  0.00000000000E+00  0.10083366952E+03  0.10083366955E+03  0.25500000000E-02 0. -1.
          2   -1    0    0  501    0  0.00000000000E+00 -0.00000000000E+00 -0.14352706381E+04  0.14352706381E+04  0.25500000000E-02 0.  1.
    5000001    1    1    2    0    0 -0.16796157946E+03 -0.27447778626E+03 -0.42876718661E+03  0.56090591692E+03  0.16500000000E+03 0.  0.
   -5000001    1    1    2    0    0  0.16796157946E+03  0.27447778626E+03 -0.90566978201E+03  0.97519839078E+03  0.16500000000E+03 0.  0.
<mgrwt>
<rscale>  0 0.76085112E+03</rscale>
<asrwt>0</asrwt>
<pdfrwt beam="1">  1        2 0.20503865E+00 0.76085112E+03</pdfrwt>
<pdfrwt beam="2">  1       -2 0.14404811E-01 0.76085112E+03</pdfrwt>
<totfact> 0.59883135E+02</totfact>
</mgrwt>
</event>
<event>
 4    1  0.1025337E-004  0.6116709E+03  0.7818608E-02  0.9881484E-01
         -2   -1    0    0    0  501 -0.00000000000E+00  0.00000000000E+00  0.57128625399E+03  0.57128625399E+03  0.25500000000E-02 0. -1.
          2   -1    0    0  501    0  0.00000000000E+00 -0.00000000000E+00 -0.16372761014E+03  0.16372761016E+03  0.25500000000E-02 0.  1.
    5000001    1    1    2    0    0  0.18102236314E+03 -0.18140362680E+03  0.17352349252E+03  0.35073034403E+03  0.16500000000E+03 0.  0.
   -5000001    1    1    2    0    0 -0.18102236314E+03  0.18140362680E+03  0.23403515133E+03  0.38428352011E+03  0.16500000000E+03 0.  0.
<mgrwt>
<rscale>  0 0.61167093E+03</rscale>
<asrwt>0</asrwt>
<pdfrwt beam="1">  1        2 0.23389658E-01 0.61167093E+03</pdfrwt>
<pdfrwt beam="2">  1       -2 0.81612323E-01 0.61167093E+03</pdfrwt>
<totfact> 0.31598224E+02</totfact>
</mgrwt>
</event>
<event>
 4    1  0.1025337E-004  0.7954948E+03  0.7818608E-02  0.9566561E-01
         -2   -1    0    0    0  501 -0.00000000000E+00  0.00000000000E+00  0.31159988258E+03  0.31159988259E+03  0.25500000000E-02 0. -1.
          2   -1    0    0  501    0  0.00000000000E+00 -0.00000000000E+00 -0.50771195754E+03  0.50771195754E+03  0.25500000000E-02 0.  1.
    5000001    1    1    2    0    0 -0.57324568247E+02 -0.28467146525E+03  0.12440630808E+03  0.35640690052E+03  0.16500000000E+03 0.  0.
   -5000001    1    1    2    0    0  0.57324568247E+02  0.28467146525E+03 -0.32051838304E+03  0.46290493961E+03  0.16500000000E+03 0.  0.
<mgrwt>
<rscale>  0 0.79549478E+03</rscale>
<asrwt>0</asrwt>
<pdfrwt beam="1">  1        2 0.72530280E-01 0.79549478E+03</pdfrwt>
<pdfrwt beam="2">  1       -2 0.44514269E-01 0.79549478E+03</pdfrwt>
<totfact> 0.31752440E+02</totfact>
</mgrwt>
</event>
<event>
 4    1  0.1025337E-004  0.5131624E+03  0.7818608E-02  0.1010399E+00
          2   -1    0    0  501    0  0.00000000000E+00  0.00000000000E+00  0.14333438081E+04  0.14333438081E+04  0.25500000000E-02 0.  1.
         -2   -1    0    0    0  501 -0.00000000000E+00 -0.00000000000E+00 -0.45930297952E+02  0.45930298023E+02  0.25500000000E-02 0. -1.
    5000001    1    1    2    0    0  0.12351324323E+03  0.15276287374E+03  0.70555424683E+03  0.75074883421E+03  0.16500000000E+03 0.  0.
   -5000001    1    1    2    0    0 -0.12351324323E+03 -0.15276287374E+03  0.68185926329E+03  0.72852527189E+03  0.16500000000E+03 0.  0.
<mgrwt>
<rscale>  0 0.51316238E+03</rscale>
<asrwt>0</asrwt>
<pdfrwt beam="1">  1        2 0.20476341E+00 0.51316238E+03</pdfrwt>
<pdfrwt beam="2">  1       -2 0.65614708E-02 0.51316238E+03</pdfrwt>
<totfact> 0.21669374E+03</totfact>
</mgrwt>
</event>
<event>
 4    1  0.1025337E-004  0.5366711E+03  0.7818608E-02  0.1004627E+00
         -2   -1    0    0    0  501 -0.00000000000E+00  0.00000000000E+00  0.29062814792E+02  0.29062814904E+02  0.25500000000E-02 0. -1.
          2   -1    0    0  501    0  0.00000000000E+00 -0.00000000000E+00 -0.24775290403E+04  0.24775290403E+04  0.25500000000E-02 0.  1.
    5000001    1    1    2    0    0 -0.16684195524E+03  0.12957619891E+03 -0.12819562034E+04  0.13096804712E+04  0.16500000000E+03 0.  0.
   -5000001    1    1    2    0    0  0.16684195524E+03 -0.12957619891E+03 -0.11665100221E+04  0.11969113840E+04  0.16500000000E+03 0.  0.
<mgrwt>
<rscale>  0 0.53667110E+03</rscale>
<asrwt>0</asrwt>
<pdfrwt beam="1">  1        2 0.35393259E+00 0.53667110E+03</pdfrwt>
<pdfrwt beam="2">  1       -2 0.41518322E-02 0.53667110E+03</pdfrwt>
<totfact> 0.13050013E+03</totfact>
</mgrwt>
</event>
<event>
 4    1  0.1025337E-004  0.4002066E+03  0.7818608E-02  0.1043708E+00
          2   -1    0    0  501    0  0.00000000000E+00  0.00000000000E+00  0.20872612365E+03  0.20872612367E+03  0.25500000000E-02 0.  1.
         -2   -1    0    0    0  501 -0.00000000000E+00 -0.00000000000E+00 -0.19183669683E+03  0.19183669685E+03  0.25500000000E-02 0. -1.
    5000001    1    1    2    0    0  0.10209549303E+03 -0.47495877386E+02  0.20159063941E+02  0.20077533694E+03  0.16500000000E+03 0.  0.
   -5000001    1    1    2    0    0 -0.10209549303E+03  0.47495877386E+02 -0.32696371235E+01  0.19978748357E+03  0.16500000000E+03 0.  0.
<mgrwt>
<rscale>  0 0.40020660E+03</rscale>
<asrwt>0</asrwt>
<pdfrwt beam="1">  1        2 0.29818018E-01 0.40020660E+03</pdfrwt>
<pdfrwt beam="2">  1       -2 0.27405242E-01 0.40020660E+03</pdfrwt>
<totfact> 0.21447283E+03</totfact>
</mgrwt>
</event>
<event>
 4    1  0.1025337E-004  0.5712226E+03  0.7818608E-02  0.9966977E-01
         -2   -1    0    0    0  501 -0.00000000000E+00  0.00000000000E+00  0.68083610640E+02  0.68083610687E+02  0.25500000000E-02 0.  1.
          2   -1    0    0  501    0  0.00000000000E+00 -0.00000000000E+00 -0.11981415479E+04  0.11981415479E+04  0.25500000000E-02 0. -1.
    5000001    1    1    2    0    0 -0.79778705339E+02 -0.19754958733E+03 -0.77483545374E+03  0.82035691114E+03  0.16500000000E+03 0.  0.
   -5000001    1    1    2    0    0  0.79778705339E+02  0.19754958733E+03 -0.35522248349E+03  0.44586824742E+03  0.16500000000E+03 0.  0.
<mgrwt>
<rscale>  0 0.57122256E+03</rscale>
<asrwt>0</asrwt>
<pdfrwt beam="1">  1        2 0.17116307E+00 0.57122256E+03</pdfrwt>
<pdfrwt beam="2">  1       -2 0.97262308E-02 0.57122256E+03</pdfrwt>
<totfact> 0.15505218E+03</totfact>
</mgrwt>
</event>
<event>
 4    1  0.1025337E-004  0.4782918E+03  0.7818608E-02  0.1019606E+00
          2   -1    0    0  501    0  0.00000000000E+00  0.00000000000E+00  0.13600509734E+04  0.13600509734E+04  0.25500000000E-02 0.  1.
         -2   -1    0    0    0  501 -0.00000000000E+00 -0.00000000000E+00 -0.42050446743E+02  0.42050446820E+02  0.25500000000E-02 0. -1.
    5000001    1    1    2    0    0  0.61822072083E+02  0.14107891759E+03  0.42742243593E+03  0.48336339159E+03  0.16500000000E+03 0.  0.
   -5000001    1    1    2    0    0 -0.61822072083E+02 -0.14107891759E+03  0.89057809073E+03  0.91873802864E+03  0.16500000000E+03 0.  0.
<mgrwt>
<rscale>  0 0.47829176E+03</rscale>
<asrwt>0</asrwt>
<pdfrwt beam="1">  1        2 0.19429298E+00 0.47829176E+03</pdfrwt>
<pdfrwt beam="2">  1       -2 0.60072072E-02 0.47829176E+03</pdfrwt>
<totfact> 0.27205799E+03</totfact>
</mgrwt>
</event>
<event>
 4    1  0.1025337E-004  0.7543873E+03  0.7818608E-02  0.9628492E-01
          2   -1    0    0  501    0  0.00000000000E+00  0.00000000000E+00  0.50454102044E+03  0.50454102045E+03  0.25500000000E-02 0.  1.
         -2   -1    0    0    0  501 -0.00000000000E+00 -0.00000000000E+00 -0.28198908087E+03  0.28198908088E+03  0.25500000000E-02 0. -1.
    5000001    1    1    2    0    0 -0.13407719853E+03 -0.30829709449E+03  0.15820797237E+03  0.40654465457E+03  0.16500000000E+03 0.  0.
   -5000001    1    1    2    0    0  0.13407719853E+03  0.30829709449E+03  0.64343967196E+02  0.37998544676E+03  0.16500000000E+03 0.  0.
<mgrwt>
<rscale>  0 0.75438732E+03</rscale>
<asrwt>0</asrwt>
<pdfrwt beam="1">  1        2 0.72077287E-01 0.75438732E+03</pdfrwt>
<pdfrwt beam="2">  1       -2 0.40284155E-01 0.75438732E+03</pdfrwt>
<totfact> 0.38985957E+02</totfact>
</mgrwt>
</event>
<event>
 4    1  0.1025337E-004  0.3915574E+03  0.7818608E-02  0.1046743E+00
         -2   -1    0    0    0  501 -0.00000000000E+00  0.00000000000E+00  0.15422555161E+02  0.15422555372E+02  0.25500000000E-02 0. -1.
          2   -1    0    0  501    0  0.00000000000E+00 -0.00000000000E+00 -0.24852752982E+04  0.24852752982E+04  0.25500000000E-02 0.  1.
    5000001    1    1    2    0    0 -0.96456088124E+02  0.74461124332E+01 -0.96813440710E+03  0.98684773483E+03  0.16500000000E+03 0.  0.
   -5000001    1    1    2    0    0  0.96456088124E+02 -0.74461124332E+01 -0.15017183359E+04  0.15138501187E+04  0.16500000000E+03 0.  0.
<mgrwt>
<rscale>  0 0.39155738E+03</rscale>
<asrwt>0</asrwt>
<pdfrwt beam="1">  1        2 0.35503907E+00 0.39155738E+03</pdfrwt>
<pdfrwt beam="2">  1       -2 0.22032238E-02 0.39155738E+03</pdfrwt>
<totfact> 0.33983838E+03</totfact>
</mgrwt>
</event>
<event>
 4    1  0.1025337E-004  0.4059061E+03  0.7818608E-02  0.1041754E+00
         -2   -1    0    0    0  501 -0.00000000000E+00  0.00000000000E+00  0.70957244229E+03  0.70957244230E+03  0.25500000000E-02 0. -1.
          2   -1    0    0  501    0  0.00000000000E+00 -0.00000000000E+00 -0.58048968966E+02  0.58048969022E+02  0.25500000000E-02 0.  1.
    5000001    1    1    2    0    0  0.45163440308E+02  0.10910230290E+03  0.31691175881E+03  0.37629923161E+03  0.16500000000E+03 0.  0.
   -5000001    1    1    2    0    0 -0.45163440308E+02 -0.10910230290E+03  0.33461171452E+03  0.39132217971E+03  0.16500000000E+03 0.  0.
<mgrwt>
<rscale>  0 0.40590614E+03</rscale>
<asrwt>0</asrwt>
<pdfrwt beam="1">  1        2 0.82927111E-02 0.40590614E+03</pdfrwt>
<pdfrwt beam="2">  1       -2 0.10136748E+00 0.40590614E+03</pdfrwt>
<totfact> 0.67957302E+02</totfact>
</mgrwt>
</event>
<event>
 4    1  0.1025337E-004  0.6270197E+03  0.7818608E-02  0.9850882E-01
         -2   -1    0    0    0  501 -0.00000000000E+00  0.00000000000E+00  0.15315233181E+03  0.15315233183E+03  0.25500000000E-02 0. -1.
          2   -1    0    0  501    0  0.00000000000E+00 -0.00000000000E+00 -0.64176896956E+03  0.64176896957E+03  0.25500000000E-02 0.  1.
    5000001    1    1    2    0    0 -0.14826604460E+03  0.14587113499E+02 -0.52456399347E+03  0.56972623874E+03  0.16500000000E+03 0.  0.
   -5000001    1    1    2    0    0  0.14826604460E+03 -0.14587113499E+02  0.35947355723E+02  0.22519506266E+03  0.16500000000E+03 0.  0.
<mgrwt>
<rscale>  0 0.62701966E+03</rscale>
<asrwt>0</asrwt>
<pdfrwt beam="1">  1        2 0.91681280E-01 0.62701966E+03</pdfrwt>
<pdfrwt beam="2">  1       -2 0.21878905E-01 0.62701966E+03</pdfrwt>
<totfact> 0.91380513E+02</totfact>
</mgrwt>
</event>
<event>
 4    1  0.1025337E-004  0.5409557E+03  0.7818608E-02  0.1003609E+00
         -2   -1    0    0    0  501 -0.00000000000E+00  0.00000000000E+00  0.40747270006E+03  0.40747270007E+03  0.25500000000E-02 0. -1.
          2   -1    0    0  501    0  0.00000000000E+00 -0.00000000000E+00 -0.17954154949E+03  0.17954154951E+03  0.25500000000E-02 0.  1.
    5000001    1    1    2    0    0  0.19400910964E+03 -0.40594087120E+02  0.20242878163E+03  0.32785641089E+03  0.16500000000E+03 0.  0.
   -5000001    1    1    2    0    0 -0.19400910964E+03  0.40594087120E+02  0.25502368939E+02  0.25915783869E+03  0.16500000000E+03 0.  0.
<mgrwt>
<rscale>  0 0.54095575E+03</rscale>
<asrwt>0</asrwt>
<pdfrwt beam="1">  1        2 0.25648793E-01 0.54095575E+03</pdfrwt>
<pdfrwt beam="2">  1       -2 0.58210386E-01 0.54095575E+03</pdfrwt>
<totfact> 0.59170761E+02</totfact>
</mgrwt>
</event>
<event>
 4    1  0.1025337E-004  0.8799566E+03  0.7818608E-02  0.9450989E-01
         -2   -1    0    0    0  501 -0.00000000000E+00  0.00000000000E+00  0.28758512789E+03  0.28758512790E+03  0.25500000000E-02 0. -1.
          2   -1    0    0  501    0  0.00000000000E+00 -0.00000000000E+00 -0.67312550825E+03  0.67312550826E+03  0.25500000000E-02 0.  1.
    5000001    1    1    2    0    0  0.27536831895E+03  0.30023453602E+03 -0.21425887695E+03  0.48897888917E+03  0.16500000000E+03 0.  0.
   -5000001    1    1    2    0    0 -0.27536831895E+03 -0.30023453602E+03 -0.17128150342E+03  0.47173174699E+03  0.16500000000E+03 0.  0.
<mgrwt>
<rscale>  0 0.87995656E+03</rscale>
<asrwt>0</asrwt>
<pdfrwt beam="1">  1        2 0.96160787E-01 0.87995656E+03</pdfrwt>
<pdfrwt beam="2">  1       -2 0.41083590E-01 0.87995656E+03</pdfrwt>
<totfact> 0.26566558E+02</totfact>
</mgrwt>
</event>
<event>
 4    1  0.1025337E-004  0.4169463E+03  0.7818608E-02  0.1038065E+00
         -2   -1    0    0    0  501 -0.00000000000E+00  0.00000000000E+00  0.37212256989E+02  0.37212257077E+02  0.25500000000E-02 0. -1.
          2   -1    0    0  501    0  0.00000000000E+00 -0.00000000000E+00 -0.11679231558E+04  0.11679231558E+04  0.25500000000E-02 0.  1.
    5000001    1    1    2    0    0  0.98606560300E+02  0.37374577033E+02 -0.77209263517E+03  0.79653760114E+03  0.16500000000E+03 0.  0.
   -5000001    1    1    2    0    0 -0.98606560300E+02 -0.37374577033E+02 -0.35861826363E+03  0.40859781173E+03  0.16500000000E+03 0.  0.
<mgrwt>
<rscale>  0 0.41694631E+03</rscale>
<asrwt>0</asrwt>
<pdfrwt beam="1">  1        2 0.16684614E+00 0.41694631E+03</pdfrwt>
<pdfrwt beam="2">  1       -2 0.53160375E-02 0.41694631E+03</pdfrwt>
<totfact> 0.41813067E+03</totfact>
</mgrwt>
</event>
<event>
 4    1  0.1025337E-004  0.7655673E+03  0.7818608E-02  0.9611239E-01
         -2   -1    0    0    0  501 -0.00000000000E+00  0.00000000000E+00  0.25283717193E+03  0.25283717195E+03  0.25500000000E-02 0. -1.
          2   -1    0    0  501    0  0.00000000000E+00 -0.00000000000E+00 -0.57951659457E+03  0.57951659457E+03  0.25500000000E-02 0.  1.
    5000001    1    1    2    0    0 -0.32466951277E+03 -0.92465566433E+02 -0.83903141298E+02  0.38499988392E+03  0.16500000000E+03 0.  0.
   -5000001    1    1    2    0    0  0.32466951277E+03  0.92465566433E+02 -0.24277628134E+03  0.44735388260E+03  0.16500000000E+03 0.  0.
<mgrwt>
<rscale>  0 0.76556734E+03</rscale>
<asrwt>0</asrwt>
<pdfrwt beam="1">  1        2 0.82788084E-01 0.76556734E+03</pdfrwt>
<pdfrwt beam="2">  1       -2 0.36119596E-01 0.76556734E+03</pdfrwt>
<totfact> 0.40968823E+02</totfact>
</mgrwt>
</event>
<event>
 4    1  0.1025337E-004  0.5150239E+03  0.7818608E-02  0.1009930E+00
         -2   -1    0    0    0  501 -0.00000000000E+00  0.00000000000E+00  0.92687375895E+02  0.92687375930E+02  0.25500000000E-02 0. -1.
          2   -1    0    0  501    0  0.00000000000E+00 -0.00000000000E+00 -0.71544166328E+03  0.71544166329E+03  0.25500000000E-02 0.  1.
    5000001    1    1    2    0    0  0.14247324855E+03  0.13699943742E+03 -0.31838352779E+03  0.40946372632E+03  0.16500000000E+03 0.  0.
   -5000001    1    1    2    0    0 -0.14247324855E+03 -0.13699943742E+03 -0.30437075960E+03  0.39866531289E+03  0.16500000000E+03 0.  0.
<mgrwt>
<rscale>  0 0.51502392E+03</rscale>
<asrwt>0</asrwt>
<pdfrwt beam="1">  1        2 0.10220595E+00 0.51502392E+03</pdfrwt>
<pdfrwt beam="2">  1       -2 0.13241054E-01 0.51502392E+03</pdfrwt>
<totfact> 0.18898867E+03</totfact>
</mgrwt>
</event>
<event>
 4    1  0.1025337E-004  0.6020098E+03  0.7818608E-02  0.9901245E-01
         -2   -1    0    0    0  501 -0.00000000000E+00  0.00000000000E+00  0.47464852219E+02  0.47464852288E+02  0.25500000000E-02 0. -1.
          2   -1    0    0  501    0  0.00000000000E+00 -0.00000000000E+00 -0.19088637485E+04  0.19088637485E+04  0.25500000000E-02 0.  1.
    5000001    1    1    2    0    0  0.11136947810E+03 -0.18965004011E+03 -0.53258411005E+03  0.59936727692E+03  0.16500000000E+03 0.  0.
   -5000001    1    1    2    0    0 -0.11136947810E+03  0.18965004011E+03 -0.13288147862E+04  0.13569613238E+04  0.16500000000E+03 0.  0.
<mgrwt>
<rscale>  0 0.60200975E+03</rscale>
<asrwt>0</asrwt>
<pdfrwt beam="1">  1        2 0.27269477E+00 0.60200975E+03</pdfrwt>
<pdfrwt beam="2">  1       -2 0.67806944E-02 0.60200975E+03</pdfrwt>
<totfact> 0.11730832E+03</totfact>
</mgrwt>
</event>
<event>
 4    1  0.1025337E-004  0.4793702E+03  0.7818608E-02  0.1019308E+00
         -2   -1    0    0    0  501 -0.00000000000E+00  0.00000000000E+00  0.20356531685E+02  0.20356531845E+02  0.25500000000E-02 0. -1.
          2   -1    0    0  501    0  0.00000000000E+00 -0.00000000000E+00 -0.28221384696E+04  0.28221384696E+04  0.25500000000E-02 0.  1.
    5000001    1    1    2    0    0  0.16985635218E+03  0.16288515650E+02 -0.12035615845E+04  0.12267444656E+04  0.16500000000E+03 0.  0.
   -5000001    1    1    2    0    0 -0.16985635218E+03 -0.16288515650E+02 -0.15982203534E+04  0.16157505359E+04  0.16500000000E+03 0.  0.
<mgrwt>
<rscale>  0 0.47937022E+03</rscale>
<asrwt>0</asrwt>
<pdfrwt beam="1">  1        2 0.40316239E+00 0.47937022E+03</pdfrwt>
<pdfrwt beam="2">  1       -2 0.29080778E-02 0.47937022E+03</pdfrwt>
<totfact> 0.14938934E+03</totfact>
</mgrwt>
</event>
<event>
 4    1  0.1025337E-004  0.4318340E+03  0.7818608E-02  0.1033282E+00
          2   -1    0    0  501    0  0.00000000000E+00  0.00000000000E+00  0.27930403447E+04  0.27930403447E+04  0.25500000000E-02 0.  1.
         -2   -1    0    0    0  501 -0.00000000000E+00 -0.00000000000E+00 -0.16691543958E+02  0.16691544152E+02  0.25500000000E-02 0. -1.
    5000001    1    1    2    0    0 -0.26044625198E+02  0.10030823301E+03  0.19934927850E+04  0.20029923983E+04  0.16500000000E+03 0.  0.
   -5000001    1    1    2    0    0  0.26044625198E+02 -0.10030823301E+03  0.78285601580E+03  0.80673949053E+03  0.16500000000E+03 0.  0.
<mgrwt>
<rscale>  0 0.43183402E+03</rscale>
<asrwt>0</asrwt>
<pdfrwt beam="1">  1        2 0.39900567E+00 0.43183402E+03</pdfrwt>
<pdfrwt beam="2">  1       -2 0.23845069E-02 0.43183402E+03</pdfrwt>
<totfact> 0.20933753E+03</totfact>
</mgrwt>
</event>
<event>
 4    1  0.1025337E-004  0.7752701E+03  0.7818608E-02  0.9596519E-01
          2   -1    0    0  501    0  0.00000000000E+00  0.00000000000E+00  0.10927774829E+04  0.10927774829E+04  0.25500000000E-02 0.  1.
         -2   -1    0    0    0  501 -0.00000000000E+00 -0.00000000000E+00 -0.13750367304E+03  0.13750367306E+03  0.25500000000E-02 0. -1.
    5000001    1    1    2    0    0  0.15566305149E+03  0.11234049274E+03  0.94350831221E+03  0.97687476532E+03  0.16500000000E+03 0.  0.
   -5000001    1    1    2    0    0 -0.15566305149E+03 -0.11234049274E+03  0.11765497702E+02  0.25340639069E+03  0.16500000000E+03 0.  0.
<mgrwt>
<rscale>  0 0.77527006E+03</rscale>
<asrwt>0</asrwt>
<pdfrwt beam="1">  1        2 0.15611108E+00 0.77527006E+03</pdfrwt>
<pdfrwt beam="2">  1       -2 0.19643380E-01 0.77527006E+03</pdfrwt>
<totfact> 0.54534361E+02</totfact>
</mgrwt>
</event>
<event>
 4    1  0.1025337E-004  0.3922917E+03  0.7818608E-02  0.1046482E+00
         -2   -1    0    0    0  501 -0.00000000000E+00  0.00000000000E+00  0.65624014723E+02  0.65624014772E+02  0.25500000000E-02 0. -1.
          2   -1    0    0  501    0  0.00000000000E+00 -0.00000000000E+00 -0.58626711292E+03  0.58626711292E+03  0.25500000000E-02 0.  1.
    5000001    1    1    2    0    0 -0.62650624709E+01 -0.52069085924E+02 -0.10713587041E+03  0.20360141317E+03  0.16500000000E+03 0.  0.
   -5000001    1    1    2    0    0  0.62650624709E+01  0.52069085924E+02 -0.41350722779E+03  0.44828971452E+03  0.16500000000E+03 0.  0.
<mgrwt>
<rscale>  0 0.39229174E+03</rscale>
<asrwt>0</asrwt>
<pdfrwt beam="1">  1        2 0.83752442E-01 0.39229174E+03</pdfrwt>
<pdfrwt beam="2">  1       -2 0.93748596E-02 0.39229174E+03</pdfrwt>
<totfact> 0.41839285E+03</totfact>
</mgrwt>
</event>
<event>
 4    1  0.1025337E-004  0.3734613E+03  0.7818608E-02  0.1053377E+00
         -2   -1    0    0    0  501 -0.00000000000E+00  0.00000000000E+00  0.11833997119E+03  0.11833997122E+03  0.25500000000E-02 0. -1.
          2   -1    0    0  501    0  0.00000000000E+00 -0.00000000000E+00 -0.29464538665E+03  0.29464538666E+03  0.25500000000E-02 0.  1.
    5000001    1    1    2    0    0  0.55345396785E+02  0.67637930618E+02 -0.90704274942E+02  0.20758195513E+03  0.16500000000E+03 0.  0.
   -5000001    1    1    2    0    0 -0.55345396785E+02 -0.67637930618E+02 -0.85601140509E+02  0.20540340275E+03  0.16500000000E+03 0.  0.
<mgrwt>
<rscale>  0 0.37346125E+03</rscale>
<asrwt>0</asrwt>
<pdfrwt beam="1">  1        2 0.42092198E-01 0.37346125E+03</pdfrwt>
<pdfrwt beam="2">  1       -2 0.16905710E-01 0.37346125E+03</pdfrwt>
<totfact> 0.34044292E+03</totfact>
</mgrwt>
</event>
<event>
 4    1  0.1025337E-004  0.5761730E+03  0.7818608E-02  0.9956111E-01
         -2   -1    0    0    0  501 -0.00000000000E+00  0.00000000000E+00  0.69847029945E+02  0.69847029991E+02  0.25500000000E-02 0. -1.
          2   -1    0    0  501    0  0.00000000000E+00 -0.00000000000E+00 -0.11882227201E+04  0.11882227201E+04  0.25500000000E-02 0.  1.
    5000001    1    1    2    0    0  0.41774339114E+02 -0.23093386472E+03 -0.61667978927E+03  0.68014300539E+03  0.16500000000E+03 0.  0.
   -5000001    1    1    2    0    0 -0.41774339114E+02  0.23093386472E+03 -0.50169590089E+03  0.57792674471E+03  0.16500000000E+03 0.  0.
<mgrwt>
<rscale>  0 0.57617299E+03</rscale>
<asrwt>0</asrwt>
<pdfrwt beam="1">  1        2 0.16974609E+00 0.57617299E+03</pdfrwt>
<pdfrwt beam="2">  1       -2 0.99781479E-02 0.57617299E+03</pdfrwt>
<totfact> 0.15067161E+03</totfact>
</mgrwt>
</event>
<event>
 4    1  0.1025337E-004  0.3779447E+03  0.7818608E-02  0.1051696E+00
         -2   -1    0    0    0  501 -0.00000000000E+00  0.00000000000E+00  0.27513873894E+02  0.27513874012E+02  0.25500000000E-02 0. -1.
          2   -1    0    0  501    0  0.00000000000E+00 -0.00000000000E+00 -0.12979102875E+04  0.12979102875E+04  0.25500000000E-02 0.  1.
    5000001    1    1    2    0    0  0.63428464521E+02 -0.33340159803E+01 -0.40122405546E+03  0.43845185420E+03  0.16500000000E+03 0.  0.
   -5000001    1    1    2    0    0 -0.63428464521E+02  0.33340159803E+01 -0.86917235817E+03  0.88697230733E+03  0.16500000000E+03 0.  0.
<mgrwt>
<rscale>  0 0.37794465E+03</rscale>
<asrwt>0</asrwt>
<pdfrwt beam="1">  1        2 0.18541572E+00 0.37794465E+03</pdfrwt>
<pdfrwt beam="2">  1       -2 0.39305542E-02 0.37794465E+03</pdfrwt>
<totfact> 0.56296485E+03</totfact>
</mgrwt>
</event>
<event>
 4    1  0.1025337E-004  0.5757488E+03  0.7818608E-02  0.9957037E-01
         -2   -1    0    0    0  501 -0.00000000000E+00  0.00000000000E+00  0.40007300770E+02  0.40007300851E+02  0.25500000000E-02 0. -1.
          2   -1    0    0  501    0  0.00000000000E+00 -0.00000000000E+00 -0.20714137154E+04  0.20714137154E+04  0.25500000000E-02 0.  1.
    5000001    1    1    2    0    0 -0.19029338254E+03 -0.72544299159E+02 -0.57912316760E+03  0.63567514505E+03  0.16500000000E+03 0.  0.
   -5000001    1    1    2    0    0  0.19029338254E+03  0.72544299159E+02 -0.14522832470E+04  0.14757458712E+04  0.16500000000E+03 0.  0.
<mgrwt>
<rscale>  0 0.57574881E+03</rscale>
<asrwt>0</asrwt>
<pdfrwt beam="1">  1        2 0.29591618E+00 0.57574881E+03</pdfrwt>
<pdfrwt beam="2">  1       -2 0.57153300E-02 0.57574881E+03</pdfrwt>
<totfact> 0.12728901E+03</totfact>
</mgrwt>
</event>
<event>
 4    1  0.1025337E-004  0.5436126E+03  0.7818608E-02  0.1002983E+00
         -2   -1    0    0    0  501 -0.00000000000E+00  0.00000000000E+00  0.34370961724E+02  0.34370961819E+02  0.25500000000E-02 0. -1.
          2   -1    0    0  501    0  0.00000000000E+00 -0.00000000000E+00 -0.21494498657E+04  0.21494498657E+04  0.25500000000E-02 0.  1.
    5000001    1    1    2    0    0 -0.70485546658E+02 -0.20274437049E+03 -0.96077762496E+03  0.99819443832E+03  0.16500000000E+03 0.  0.
   -5000001    1    1    2    0    0  0.70485546658E+02  0.20274437049E+03 -0.11543012790E+04  0.11856263892E+04  0.16500000000E+03 0.  0.
<mgrwt>
<rscale>  0 0.54361258E+03</rscale>
<asrwt>0</asrwt>
<pdfrwt beam="1">  1        2 0.30706418E+00 0.54361258E+03</pdfrwt>
<pdfrwt beam="2">  1       -2 0.49101388E-02 0.54361258E+03</pdfrwt>
<totfact> 0.14752831E+03</totfact>
</mgrwt>
</event>
<event>
 4    1  0.1025337E-004  0.5368930E+03  0.7818608E-02  0.1004574E+00
         -2   -1    0    0    0  501 -0.00000000000E+00  0.00000000000E+00  0.30219992273E+02  0.30219992381E+02  0.25500000000E-02 0. -1.
          2   -1    0    0  501    0  0.00000000000E+00 -0.00000000000E+00 -0.23846304692E+04  0.23846304692E+04  0.25500000000E-02 0.  1.
    5000001    1    1    2    0    0  0.17021085495E+03  0.38225837205E+01 -0.61090486284E+03  0.65529848064E+03  0.16500000000E+03 0.  0.
   -5000001    1    1    2    0    0 -0.17021085495E+03 -0.38225837205E+01 -0.17435056141E+04  0.17595519810E+04  0.16500000000E+03 0.  0.
<mgrwt>
<rscale>  0 0.53689297E+03</rscale>
<asrwt>0</asrwt>
<pdfrwt beam="1">  1        2 0.34066138E+00 0.53689297E+03</pdfrwt>
<pdfrwt beam="2">  1       -2 0.43171433E-02 0.53689297E+03</pdfrwt>
<totfact> 0.13702422E+03</totfact>
</mgrwt>
</event>
<event>
 4    1  0.1025337E-004  0.5893390E+03  0.7818608E-02  0.9927774E-01
         -2   -1    0    0    0  501 -0.00000000000E+00  0.00000000000E+00  0.10837764085E+03  0.10837764088E+03  0.25500000000E-02 0. -1.
          2   -1    0    0  501    0  0.00000000000E+00 -0.00000000000E+00 -0.80118120468E+03  0.80118120468E+03  0.25500000000E-02 0.  1.
    5000001    1    1    2    0    0  0.11278043732E+03  0.21650653604E+03 -0.35143171519E+03  0.45861068198E+03  0.16500000000E+03 0.  0.
   -5000001    1    1    2    0    0 -0.11278043732E+03 -0.21650653604E+03 -0.34137184864E+03  0.45094816358E+03  0.16500000000E+03 0.  0.
<mgrwt>
<rscale>  0 0.58933905E+03</rscale>
<asrwt>0</asrwt>
<pdfrwt beam="1">  1        2 0.11445446E+00 0.58933905E+03</pdfrwt>
<pdfrwt beam="2">  1       -2 0.15482520E-01 0.58933905E+03</pdfrwt>
<totfact> 0.12623212E+03</totfact>
</mgrwt>
</event>
<event>
 4    1  0.1025337E-004  0.4518303E+03  0.7818608E-02  0.1027178E+00
          2   -1    0    0  501    0  0.00000000000E+00  0.00000000000E+00  0.30782616202E+04  0.30782616202E+04  0.25500000000E-02 0. -1.
         -2   -1    0    0    0  501 -0.00000000000E+00 -0.00000000000E+00 -0.16580025905E+02  0.16580026101E+02  0.25500000000E-02 0.  1.
    5000001    1    1    2    0    0 -0.15223955650E+03  0.10631316956E+02  0.13742341497E+04  0.13924921564E+04  0.16500000000E+03 0.  0.
   -5000001    1    1    2    0    0  0.15223955650E+03 -0.10631316956E+02  0.16874474447E+04  0.17023494900E+04  0.16500000000E+03 0.  0.
<mgrwt>
<rscale>  0 0.45183031E+03</rscale>
<asrwt>0</asrwt>
<pdfrwt beam="1">  1        2 0.43975183E+00 0.45183031E+03</pdfrwt>
<pdfrwt beam="2">  1       -2 0.23685742E-02 0.45183031E+03</pdfrwt>
<totfact> 0.14865347E+03</totfact>
</mgrwt>
</event>
<event>
 4    1  0.1025337E-004  0.4572770E+03  0.7818608E-02  0.1025574E+00
          2   -1    0    0  501    0  0.00000000000E+00  0.00000000000E+00  0.15211650729E+04  0.15211650729E+04  0.25500000000E-02 0.  1.
         -2   -1    0    0    0  501 -0.00000000000E+00 -0.00000000000E+00 -0.34365480772E+02  0.34365480867E+02  0.25500000000E-02 0. -1.
    5000001    1    1    2    0    0 -0.12250473973E+03  0.99267508535E+02  0.69661901475E+03  0.73305149971E+03  0.16500000000E+03 0.  0.
   -5000001    1    1    2    0    0  0.12250473973E+03 -0.99267508535E+02  0.79018057736E+03  0.82247905405E+03  0.16500000000E+03 0.  0.
<mgrwt>
<rscale>  0 0.45727702E+03</rscale>
<asrwt>0</asrwt>
<pdfrwt beam="1">  1        2 0.21730938E+00 0.45727702E+03</pdfrwt>
<pdfrwt beam="2">  1       -2 0.49093526E-02 0.45727702E+03</pdfrwt>
<totfact> 0.30645440E+03</totfact>
</mgrwt>
</event>
<event>
 4    1  0.1025337E-004  0.1239532E+04  0.7818608E-02  0.9078941E-01
         -2   -1    0    0    0  501 -0.00000000000E+00  0.00000000000E+00  0.11127716547E+04  0.11127716547E+04  0.25500000000E-02 0. -1.
          2   -1    0    0  501    0  0.00000000000E+00 -0.00000000000E+00 -0.34518277987E+03  0.34518277988E+03  0.25500000000E-02 0.  1.
    5000001    1    1    2    0    0 -0.20527914743E+03  0.50052102311E+03  0.85713410780E+02  0.57204249120E+03  0.16500000000E+03 0.  0.
   -5000001    1    1    2    0    0  0.20527914743E+03 -0.50052102311E+03  0.68187546403E+03  0.88591194336E+03  0.16500000000E+03 0.  0.
<mgrwt>
<rscale>  0 0.12395315E+04</rscale>
<asrwt>0</asrwt>
<pdfrwt beam="1">  1        2 0.49311825E-01 0.12395315E+04</pdfrwt>
<pdfrwt beam="2">  1       -2 0.15896738E+00 0.12395315E+04</pdfrwt>
<totfact> 0.25737264E+01</totfact>
</mgrwt>
</event>
<event>
 4    1  0.1025337E-004  0.1236182E+04  0.7818608E-02  0.9081763E-01
         -2   -1    0    0    0  501 -0.00000000000E+00  0.00000000000E+00  0.21503359396E+03  0.21503359397E+03  0.25500000000E-02 0. -1.
          2   -1    0    0  501    0  0.00000000000E+00 -0.00000000000E+00 -0.17766373493E+04  0.17766373493E+04  0.25500000000E-02 0.  1.
    5000001    1    1    2    0    0 -0.50628046267E+03  0.41369256867E+02 -0.27958148807E+03  0.60284503048E+03  0.16500000000E+03 0.  0.
   -5000001    1    1    2    0    0  0.50628046267E+03 -0.41369256867E+02 -0.12820222673E+04  0.13888259128E+04  0.16500000000E+03 0.  0.
<mgrwt>
<rscale>  0 0.12361824E+04</rscale>
<asrwt>0</asrwt>
<pdfrwt beam="1">  1        2 0.25380533E+00 0.12361824E+04</pdfrwt>
<pdfrwt beam="2">  1       -2 0.30719086E-01 0.12361824E+04</pdfrwt>
<totfact> 0.10102933E+02</totfact>
</mgrwt>
</event>
<event>
 4    1  0.1025337E-004  0.3871607E+03  0.7818608E-02  0.1048318E+00
         -2   -1    0    0    0  501 -0.00000000000E+00  0.00000000000E+00  0.26637052391E+03  0.26637052392E+03  0.25500000000E-02 0. -1.
          2   -1    0    0  501    0  0.00000000000E+00 -0.00000000000E+00 -0.14068132242E+03  0.14068132244E+03  0.25500000000E-02 0.  1.
    5000001    1    1    2    0    0 -0.73932865742E+02 -0.69119766090E+02  0.65135266792E+02  0.20423323354E+03  0.16500000000E+03 0.  0.
   -5000001    1    1    2    0    0  0.73932865742E+02  0.69119766090E+02  0.60553934700E+02  0.20281861283E+03  0.16500000000E+03 0.  0.
<mgrwt>
<rscale>  0 0.38716073E+03</rscale>
<asrwt>0</asrwt>
<pdfrwt beam="1">  1        2 0.20097332E-01 0.38716073E+03</pdfrwt>
<pdfrwt beam="2">  1       -2 0.38052931E-01 0.38716073E+03</pdfrwt>
<totfact> 0.18235909E+03</totfact>
</mgrwt>
</event>
<event>
 4    1  0.1025337E-004  0.3799572E+03  0.7818608E-02  0.1050950E+00
          2   -1    0    0  501    0  0.00000000000E+00  0.00000000000E+00  0.21522343020E+04  0.21522343020E+04  0.25500000000E-02 0.  1.
         -2   -1    0    0    0  501 -0.00000000000E+00 -0.00000000000E+00 -0.16769488805E+02  0.16769488999E+02  0.25500000000E-02 0. -1.
    5000001    1    1    2    0    0  0.58904635167E+02  0.31890797347E+02  0.68992787997E+03  0.71253930317E+03  0.16500000000E+03 0.  0.
   -5000001    1    1    2    0    0 -0.58904635167E+02 -0.31890797347E+02  0.14455369332E+04  0.14564644878E+04  0.16500000000E+03 0.  0.
<mgrwt>
<rscale>  0 0.37995720E+03</rscale>
<asrwt>0</asrwt>
<pdfrwt beam="1">  1        2 0.30746183E+00 0.37995720E+03</pdfrwt>
<pdfrwt beam="2">  1       -2 0.23956429E-02 0.37995720E+03</pdfrwt>
<totfact> 0.43997579E+03</totfact>
</mgrwt>
</event>
<event>
 4    1  0.1025337E-004  0.6811534E+03  0.7818608E-02  0.9750016E-01
         -2   -1    0    0    0  501 -0.00000000000E+00  0.00000000000E+00  0.72148743079E+02  0.72148743124E+02  0.25500000000E-02 0.  1.
          2   -1    0    0  501    0  0.00000000000E+00 -0.00000000000E+00 -0.16076855169E+04  0.16076855169E+04  0.25500000000E-02 0. -1.
    5000001    1    1    2    0    0 -0.23287697969E+03 -0.12958251996E+03 -0.43925779559E+03  0.53962554437E+03  0.16500000000E+03 0.  0.
   -5000001    1    1    2    0    0  0.23287697969E+03  0.12958251996E+03 -0.10962789782E+04  0.11402087156E+04  0.16500000000E+03 0.  0.
<mgrwt>
<rscale>  0 0.68115340E+03</rscale>
<asrwt>0</asrwt>
<pdfrwt beam="1">  1        2 0.22966934E+00 0.68115340E+03</pdfrwt>
<pdfrwt beam="2">  1       -2 0.10306964E-01 0.68115340E+03</pdfrwt>
<totfact> 0.84992882E+02</totfact>
</mgrwt>
</event>
<event>
 4    1  0.1025337E-004  0.1103200E+04  0.7818608E-02  0.9202079E-01
         -2   -1    0    0    0  501 -0.00000000000E+00  0.00000000000E+00  0.11346799091E+03  0.11346799094E+03  0.25500000000E-02 0. -1.
          2   -1    0    0  501    0  0.00000000000E+00 -0.00000000000E+00 -0.26814836199E+04  0.26814836199E+04  0.25500000000E-02 0.  1.
    5000001    1    1    2    0    0  0.49182030482E+02  0.46635995169E+03 -0.18895453416E+04  0.19538467378E+04  0.16500000000E+03 0.  0.
   -5000001    1    1    2    0    0 -0.49182030482E+02 -0.46635995169E+03 -0.67847028737E+03  0.84110487307E+03  0.16500000000E+03 0.  0.
<mgrwt>
<rscale>  0 0.11032000E+04</rscale>
<asrwt>0</asrwt>
<pdfrwt beam="1">  1        2 0.38306905E+00 0.11032000E+04</pdfrwt>
<pdfrwt beam="2">  1       -2 0.16209715E-01 0.11032000E+04</pdfrwt>
<totfact> 0.10877798E+02</totfact>
</mgrwt>
</event>
<event>
 4    1  0.1025337E-004  0.4315575E+03  0.7818608E-02  0.1033369E+00
          2   -1    0    0  501    0  0.00000000000E+00  0.00000000000E+00  0.29159410441E+03  0.29159410442E+03  0.25500000000E-02 0.  1.
         -2   -1    0    0    0  501 -0.00000000000E+00 -0.00000000000E+00 -0.15967558382E+03  0.15967558384E+03  0.25500000000E-02 0. -1.
    5000001    1    1    2    0    0 -0.72158583847E+02  0.91079020726E+01 -0.57968432994E+02  0.18940737664E+03  0.16500000000E+03 0.  0.
   -5000001    1    1    2    0    0  0.72158583847E+02 -0.91079020726E+01  0.18988695359E+03  0.26186231162E+03  0.16500000000E+03 0.  0.
<mgrwt>
<rscale>  0 0.43155745E+03</rscale>
<asrwt>0</asrwt>
<pdfrwt beam="1">  1        2 0.41656300E-01 0.43155745E+03</pdfrwt>
<pdfrwt beam="2">  1       -2 0.22810798E-01 0.43155745E+03</pdfrwt>
<totfact> 0.20602111E+03</totfact>
</mgrwt>
</event>
<event>
 4    1  0.1025337E-004  0.8175613E+03  0.7818608E-02  0.9534940E-01
         -2   -1    0    0    0  501 -0.00000000000E+00  0.00000000000E+00  0.19180219227E+03  0.19180219229E+03  0.25500000000E-02 0. -1.
          2   -1    0    0  501    0  0.00000000000E+00 -0.00000000000E+00 -0.87121850357E+03  0.87121850357E+03  0.25500000000E-02 0.  1.
    5000001    1    1    2    0    0 -0.31715327824E+03 -0.36451637350E+02 -0.59304257202E+03  0.69342585472E+03  0.16500000000E+03 0.  0.
   -5000001    1    1    2    0    0  0.31715327824E+03  0.36451637350E+02 -0.86373739271E+02  0.36959484114E+03  0.16500000000E+03 0.  0.
<mgrwt>
<rscale>  0 0.81756130E+03</rscale>
<asrwt>0</asrwt>
<pdfrwt beam="1">  1        2 0.12445978E+00 0.81756130E+03</pdfrwt>
<pdfrwt beam="2">  1       -2 0.27400314E-01 0.81756130E+03</pdfrwt>
<totfact> 0.41282044E+02</totfact>
</mgrwt>
</event>
<event>
 4    1  0.1025337E-004  0.7997327E+03  0.7818608E-02  0.9560404E-01
         -2   -1    0    0    0  501 -0.00000000000E+00  0.00000000000E+00  0.48778388693E+03  0.48778388694E+03  0.25500000000E-02 0. -1.
          2   -1    0    0  501    0  0.00000000000E+00 -0.00000000000E+00 -0.32779496064E+03  0.32779496065E+03  0.25500000000E-02 0.  1.
    5000001    1    1    2    0    0  0.31238280477E+03 -0.17320298393E+03  0.72665463102E+01  0.39352267159E+03  0.16500000000E+03 0.  0.
   -5000001    1    1    2    0    0 -0.31238280477E+03  0.17320298393E+03  0.15272237998E+03  0.42205617600E+03  0.16500000000E+03 0.  0.
<mgrwt>
<rscale>  0 0.79973271E+03</rscale>
<asrwt>0</asrwt>
<pdfrwt beam="1">  1        2 0.46827852E-01 0.79973271E+03</pdfrwt>
<pdfrwt beam="2">  1       -2 0.69683412E-01 0.79973271E+03</pdfrwt>
<totfact> 0.20432611E+02</totfact>
</mgrwt>
</event>
<event>
 4    1  0.1025337E-004  0.8757062E+03  0.7818608E-02  0.9456470E-01
         -2   -1    0    0    0  501 -0.00000000000E+00  0.00000000000E+00  0.98279651171E+03  0.98279651171E+03  0.25500000000E-02 0. -1.
          2   -1    0    0  501    0  0.00000000000E+00 -0.00000000000E+00 -0.19507125522E+03  0.19507125524E+03  0.25500000000E-02 0.  1.
    5000001    1    1    2    0    0 -0.25145748590E+03 -0.28733782915E+03  0.57777786926E+03  0.71193128986E+03  0.16500000000E+03 0.  0.
   -5000001    1    1    2    0    0  0.25145748590E+03  0.28733782915E+03  0.20994738722E+03  0.46593647709E+03  0.16500000000E+03 0.  0.
<mgrwt>
<rscale>  0 0.87570623E+03</rscale>
<asrwt>0</asrwt>
<pdfrwt beam="1">  1        2 0.27867323E-01 0.87570623E+03</pdfrwt>
<pdfrwt beam="2">  1       -2 0.14039950E+00 0.87570623E+03</pdfrwt>
<totfact> 0.69310091E+01</totfact>
</mgrwt>
</event>
<event>
 4    1  0.1025337E-004  0.5158413E+03  0.7818608E-02  0.1009725E+00
         -2   -1    0    0    0  501 -0.00000000000E+00  0.00000000000E+00  0.55950022076E+03  0.55950022077E+03  0.25500000000E-02 0. -1.
          2   -1    0    0  501    0  0.00000000000E+00 -0.00000000000E+00 -0.11889730657E+03  0.11889730659E+03  0.25500000000E-02 0.  1.
    5000001    1    1    2    0    0  0.94375856042E+02 -0.13726183983E+03  0.36164229329E+03  0.43099624496E+03  0.16500000000E+03 0.  0.
   -5000001    1    1    2    0    0 -0.94375856042E+02  0.13726183983E+03  0.78960620903E+02  0.24740128240E+03  0.16500000000E+03 0.  0.
<mgrwt>
<rscale>  0 0.51584133E+03</rscale>
<asrwt>0</asrwt>
<pdfrwt beam="1">  1        2 0.16985329E-01 0.51584133E+03</pdfrwt>
<pdfrwt beam="2">  1       -2 0.79928604E-01 0.51584133E+03</pdfrwt>
<totfact> 0.48222127E+02</totfact>
</mgrwt>
</event>
<event>
 4    1  0.1025337E-004  0.6300293E+03  0.7818608E-02  0.9844992E-01
          2   -1    0    0  501    0  0.00000000000E+00  0.00000000000E+00  0.86810938474E+03  0.86810938474E+03  0.25500000000E-02 0.  1.
         -2   -1    0    0    0  501 -0.00000000000E+00 -0.00000000000E+00 -0.11431073154E+03  0.11431073157E+03  0.25500000000E-02 0. -1.
    5000001    1    1    2    0    0  0.26189423738E+03 -0.29572057602E+02  0.29821721345E+03  0.43083825801E+03  0.16500000000E+03 0.  0.
   -5000001    1    1    2    0    0 -0.26189423738E+03  0.29572057602E+02  0.45558143975E+03  0.55158185830E+03  0.16500000000E+03 0.  0.
<mgrwt>
<rscale>  0 0.63002927E+03</rscale>
<asrwt>0</asrwt>
<pdfrwt beam="1">  1        2 0.12401562E+00 0.63002927E+03</pdfrwt>
<pdfrwt beam="2">  1       -2 0.16330105E-01 0.63002927E+03</pdfrwt>
<totfact> 0.10384253E+03</totfact>
</mgrwt>
</event>
<event>
 4    1  0.1025337E-004  0.5995630E+03  0.7818608E-02  0.9906313E-01
          2   -1    0    0  501    0  0.00000000000E+00  0.00000000000E+00  0.18537100853E+04  0.18537100853E+04  0.25500000000E-02 0.  1.
         -2   -1    0    0    0  501 -0.00000000000E+00 -0.00000000000E+00 -0.48480579090E+02  0.48480579157E+02  0.25500000000E-02 0. -1.
    5000001    1    1    2    0    0  0.22586246540E+01 -0.24941535025E+03  0.83676301477E+03  0.88860028202E+03  0.16500000000E+03 0.  0.
   -5000001    1    1    2    0    0 -0.22586246540E+01  0.24941535025E+03  0.96846649146E+03  0.10135903825E+04  0.16500000000E+03 0.  0.
<mgrwt>
<rscale>  0 0.59956297E+03</rscale>
<asrwt>0</asrwt>
<pdfrwt beam="1">  1        2 0.26481576E+00 0.59956297E+03</pdfrwt>
<pdfrwt beam="2">  1       -2 0.69257961E-02 0.59956297E+03</pdfrwt>
<totfact> 0.12095543E+03</totfact>
</mgrwt>
</event>
<event>
 4    1  0.1025337E-004  0.8826377E+03  0.7818608E-02  0.9447549E-01
         -2   -1    0    0    0  501 -0.00000000000E+00  0.00000000000E+00  0.85347242949E+03  0.85347242949E+03  0.25500000000E-02 0. -1.
          2   -1    0    0  501    0  0.00000000000E+00 -0.00000000000E+00 -0.22819989878E+03  0.22819989879E+03  0.25500000000E-02 0.  1.
    5000001    1    1    2    0    0  0.31917964596E+03  0.23382634937E+03  0.44109129511E+03  0.61509100032E+03  0.16500000000E+03 0.  0.
   -5000001    1    1    2    0    0 -0.31917964596E+03 -0.23382634937E+03  0.18418123560E+03  0.46658132796E+03  0.16500000000E+03 0.  0.
<mgrwt>
<rscale>  0 0.88263769E+03</rscale>
<asrwt>0</asrwt>
<pdfrwt beam="1">  1        2 0.32599985E-01 0.88263769E+03</pdfrwt>
<pdfrwt beam="2">  1       -2 0.12192463E+00 0.88263769E+03</pdfrwt>
<totfact> 0.83015817E+01</totfact>
</mgrwt>
</event>
<event>
 4    1  0.1025337E-004  0.5180039E+03  0.7818608E-02  0.1009184E+00
         -2   -1    0    0    0  501 -0.00000000000E+00  0.00000000000E+00  0.69212177196E+02  0.69212177243E+02  0.25500000000E-02 0. -1.
          2   -1    0    0  501    0  0.00000000000E+00 -0.00000000000E+00 -0.96922258654E+03  0.96922258654E+03  0.25500000000E-02 0.  1.
    5000001    1    1    2    0    0  0.11005863497E+03 -0.16334615774E+03 -0.51533872713E+03  0.57584188286E+03  0.16500000000E+03 0.  0.
   -5000001    1    1    2    0    0 -0.11005863497E+03  0.16334615774E+03 -0.38467168221E+03  0.46259288092E+03  0.16500000000E+03 0.  0.
<mgrwt>
<rscale>  0 0.51800388E+03</rscale>
<asrwt>0</asrwt>
<pdfrwt beam="1">  1        2 0.13846036E+00 0.51800388E+03</pdfrwt>
<pdfrwt beam="2">  1       -2 0.98874545E-02 0.51800388E+03</pdfrwt>
<totfact> 0.20569167E+03</totfact>
</mgrwt>
</event>
<event>
 4    1  0.1025337E-004  0.7517910E+03  0.7818608E-02  0.9632545E-01
         -2   -1    0    0    0  501 -0.00000000000E+00  0.00000000000E+00  0.15697874325E+03  0.15697874327E+03  0.25500000000E-02 0. -1.
          2   -1    0    0  501    0  0.00000000000E+00 -0.00000000000E+00 -0.90010549411E+03  0.90010549411E+03  0.25500000000E-02 0.  1.
    5000001    1    1    2    0    0 -0.79925962667E+02 -0.30339942159E+03 -0.54736969353E+03  0.65213338354E+03  0.16500000000E+03 0.  0.
   -5000001    1    1    2    0    0  0.79925962667E+02  0.30339942159E+03 -0.19575705733E+03  0.40495085384E+03  0.16500000000E+03 0.  0.
<mgrwt>
<rscale>  0 0.75179101E+03</rscale>
<asrwt>0</asrwt>
<pdfrwt beam="1">  1        2 0.12858650E+00 0.75179101E+03</pdfrwt>
<pdfrwt beam="2">  1       -2 0.22425535E-01 0.75179101E+03</pdfrwt>
<totfact> 0.56836310E+02</totfact>
</mgrwt>
</event>
<event>
 4    1  0.1025337E-004  0.6352626E+03  0.7818608E-02  0.9834833E-01
         -2   -1    0    0    0  501 -0.00000000000E+00  0.00000000000E+00  0.28933351735E+03  0.28933351736E+03  0.25500000000E-02 0. -1.
          2   -1    0    0  501    0  0.00000000000E+00 -0.00000000000E+00 -0.34869673118E+03  0.34869673119E+03  0.25500000000E-02 0.  1.
    5000001    1    1    2    0    0 -0.20314400661E+03 -0.14209447277E+03  0.81281965000E+02  0.30869092058E+03  0.16500000000E+03 0.  0.
   -5000001    1    1    2    0    0  0.20314400661E+03  0.14209447277E+03 -0.14064517884E+03  0.32933932797E+03  0.16500000000E+03 0.  0.
<mgrwt>
<rscale>  0 0.63526263E+03</rscale>
<asrwt>0</asrwt>
<pdfrwt beam="1">  1        2 0.49813819E-01 0.63526263E+03</pdfrwt>
<pdfrwt beam="2">  1       -2 0.41333360E-01 0.63526263E+03</pdfrwt>
<totfact> 0.56295561E+02</totfact>
</mgrwt>
</event>
<event>
 4    1  0.1025337E-004  0.6948812E+03  0.7818608E-02  0.9726026E-01
         -2   -1    0    0    0  501 -0.00000000000E+00  0.00000000000E+00  0.79298003847E+02  0.79298003888E+02  0.25500000000E-02 0. -1.
          2   -1    0    0  501    0  0.00000000000E+00 -0.00000000000E+00 -0.15222953572E+04  0.15222953572E+04  0.25500000000E-02 0.  1.
    5000001    1    1    2    0    0  0.18941631759E+03 -0.23998119485E+03 -0.73192612503E+03  0.81019156238E+03  0.16500000000E+03 0.  0.
   -5000001    1    1    2    0    0 -0.18941631759E+03  0.23998119485E+03 -0.71107122832E+03  0.79140179871E+03  0.16500000000E+03 0.  0.
<mgrwt>
<rscale>  0 0.69488124E+03</rscale>
<asrwt>0</asrwt>
<pdfrwt beam="1">  1        2 0.21747075E+00 0.69488124E+03</pdfrwt>
<pdfrwt beam="2">  1       -2 0.11328287E-01 0.69488124E+03</pdfrwt>
<totfact> 0.80590949E+02</totfact>
</mgrwt>
</event>
<event>
 4    1  0.1025337E-004  0.9651782E+03  0.7818608E-02  0.9347583E-01
         -2   -1    0    0    0  501 -0.00000000000E+00  0.00000000000E+00  0.42586756841E+03  0.42586756842E+03  0.25500000000E-02 0. -1.
          2   -1    0    0  501    0  0.00000000000E+00 -0.00000000000E+00 -0.54686538203E+03  0.54686538203E+03  0.25500000000E-02 0.  1.
    5000001    1    1    2    0    0  0.11647235593E+03 -0.29325578485E+03 -0.38878226651E+03  0.52720149449E+03  0.16500000000E+03 0.  0.
   -5000001    1    1    2    0    0 -0.11647235593E+03  0.29325578485E+03  0.26778445290E+03  0.44553145597E+03  0.16500000000E+03 0.  0.
<mgrwt>
<rscale>  0 0.96517818E+03</rscale>
<asrwt>0</asrwt>
<pdfrwt beam="1">  1        2 0.78123625E-01 0.96517818E+03</pdfrwt>
<pdfrwt beam="2">  1       -2 0.60838225E-01 0.96517818E+03</pdfrwt>
<totfact> 0.15231746E+02</totfact>
</mgrwt>
</event>
<event>
 4    1  0.1025337E-004  0.4798427E+03  0.7818608E-02  0.1019178E+00
         -2   -1    0    0    0  501 -0.00000000000E+00  0.00000000000E+00  0.22448000666E+03  0.22448000668E+03  0.25500000000E-02 0. -1.
          2   -1    0    0  501    0  0.00000000000E+00 -0.00000000000E+00 -0.25642484768E+03  0.25642484770E+03  0.25500000000E-02 0.  1.
    5000001    1    1    2    0    0 -0.15640442226E+03 -0.43542995287E+02 -0.79190697118E+02  0.24465179797E+03  0.16500000000E+03 0.  0.
   -5000001    1    1    2    0    0  0.15640442226E+03  0.43542995287E+02  0.47245856097E+02  0.23625305640E+03  0.16500000000E+03 0.  0.
<mgrwt>
<rscale>  0 0.47984269E+03</rscale>
<asrwt>0</asrwt>
<pdfrwt beam="1">  1        2 0.36632121E-01 0.47984269E+03</pdfrwt>
<pdfrwt beam="2">  1       -2 0.32068573E-01 0.47984269E+03</pdfrwt>
<totfact> 0.12828469E+03</totfact>
</mgrwt>
</event>
<event>
 4    1  0.1025337E-004  0.4038620E+03  0.7818608E-02  0.1042451E+00
          2   -1    0    0  501    0  0.00000000000E+00  0.00000000000E+00  0.29730652391E+03  0.29730652392E+03  0.25500000000E-02 0.  1.
         -2   -1    0    0    0  501 -0.00000000000E+00 -0.00000000000E+00 -0.13715183403E+03  0.13715183406E+03  0.25500000000E-02 0. -1.
    5000001    1    1    2    0    0  0.10635877473E+03  0.13449953736E+02  0.31274791571E+02  0.19923905944E+03  0.16500000000E+03 0.  0.
   -5000001    1    1    2    0    0 -0.10635877473E+03 -0.13449953736E+02  0.12887989831E+03  0.23521929854E+03  0.16500000000E+03 0.  0.
<mgrwt>
<rscale>  0 0.40386203E+03</rscale>
<asrwt>0</asrwt>
<pdfrwt beam="1">  1        2 0.42472361E-01 0.40386203E+03</pdfrwt>
<pdfrwt beam="2">  1       -2 0.19593119E-01 0.40386203E+03</pdfrwt>
<totfact> 0.26258057E+03</totfact>
</mgrwt>
</event>
<event>
 4    1  0.1025337E-004  0.4452595E+03  0.7818608E-02  0.1029145E+00
          2   -1    0    0  501    0  0.00000000000E+00  0.00000000000E+00  0.68121181748E+03  0.68121181749E+03  0.25500000000E-02 0.  1.
         -2   -1    0    0    0  501 -0.00000000000E+00 -0.00000000000E+00 -0.72758594912E+02  0.72758594957E+02  0.25500000000E-02 0. -1.
    5000001    1    1    2    0    0  0.12472377262E+03 -0.62281407785E+02  0.21297490755E+03  0.30334519027E+03  0.16500000000E+03 0.  0.
   -5000001    1    1    2    0    0 -0.12472377262E+03  0.62281407785E+02  0.39547831502E+03  0.45062522218E+03  0.16500000000E+03 0.  0.
<mgrwt>
<rscale>  0 0.44525954E+03</rscale>
<asrwt>0</asrwt>
<pdfrwt beam="1">  1        2 0.97315977E-01 0.44525954E+03</pdfrwt>
<pdfrwt beam="2">  1       -2 0.10394085E-01 0.44525954E+03</pdfrwt>
<totfact> 0.29770020E+03</totfact>
</mgrwt>
</event>
<event>
 4    1  0.1025337E-004  0.4101481E+03  0.7818608E-02  0.1040321E+00
         -2   -1    0    0    0  501 -0.00000000000E+00  0.00000000000E+00  0.29923835907E+02  0.29923836015E+02  0.25500000000E-02 0. -1.
          2   -1    0    0  501    0  0.00000000000E+00 -0.00000000000E+00 -0.14054137593E+04  0.14054137593E+04  0.25500000000E-02 0.  1.
    5000001    1    1    2    0    0  0.10827209521E+03 -0.45989200662E+02 -0.79799593770E+03  0.82332276160E+03  0.16500000000E+03 0.  0.
   -5000001    1    1    2    0    0 -0.10827209521E+03  0.45989200662E+02 -0.57749398567E+03  0.61201483370E+03  0.16500000000E+03 0.  0.
<mgrwt>
<rscale>  0 0.41014812E+03</rscale>
<asrwt>0</asrwt>
<pdfrwt beam="1">  1        2 0.20077335E+00 0.41014812E+03</pdfrwt>
<pdfrwt beam="2">  1       -2 0.42748346E-02 0.41014812E+03</pdfrwt>
<totfact> 0.43501577E+03</totfact>
</mgrwt>
</event>
<event>
 4    1  0.1025337E-004  0.5637347E+03  0.7818608E-02  0.9983639E-01
         -2   -1    0    0    0  501 -0.00000000000E+00  0.00000000000E+00  0.37446637222E+03  0.37446637222E+03  0.25500000000E-02 0. -1.
          2   -1    0    0  501    0  0.00000000000E+00 -0.00000000000E+00 -0.21216649151E+03  0.21216649152E+03  0.25500000000E-02 0.  1.
    5000001    1    1    2    0    0 -0.15799210522E+03  0.16372664891E+03  0.58921208690E+02  0.28716655395E+03  0.16500000000E+03 0.  0.
   -5000001    1    1    2    0    0  0.15799210522E+03 -0.16372664891E+03  0.10337867202E+03  0.29946630980E+03  0.16500000000E+03 0.  0.
<mgrwt>
<rscale>  0 0.56373475E+03</rscale>
<asrwt>0</asrwt>
<pdfrwt beam="1">  1        2 0.30309499E-01 0.56373475E+03</pdfrwt>
<pdfrwt beam="2">  1       -2 0.53495195E-01 0.56373475E+03</pdfrwt>
<totfact> 0.58349311E+02</totfact>
</mgrwt>
</event>
<event>
 4    1  0.1025337E-004  0.4866004E+03  0.7818608E-02  0.1017337E+00
         -2   -1    0    0    0  501 -0.00000000000E+00  0.00000000000E+00  0.22499621985E+03  0.22499621986E+03  0.25500000000E-02 0. -1.
          2   -1    0    0  501    0  0.00000000000E+00 -0.00000000000E+00 -0.26309325771E+03  0.26309325772E+03  0.25500000000E-02 0.  1.
    5000001    1    1    2    0    0  0.10434268281E+03 -0.13606101851E+03 -0.69898744737E+02  0.24801377125E+03  0.16500000000E+03 0.  0.
   -5000001    1    1    2    0    0 -0.10434268281E+03  0.13606101851E+03  0.31801706875E+02  0.24007570634E+03  0.16500000000E+03 0.  0.
<mgrwt>
<rscale>  0 0.48660040E+03</rscale>
<asrwt>0</asrwt>
<pdfrwt beam="1">  1        2 0.37584751E-01 0.48660040E+03</pdfrwt>
<pdfrwt beam="2">  1       -2 0.32142317E-01 0.48660040E+03</pdfrwt>
<totfact> 0.12418024E+03</totfact>
</mgrwt>
</event>
<event>
 4    1  0.1025337E-004  0.5329341E+03  0.7818608E-02  0.1005523E+00
          2   -1    0    0  501    0  0.00000000000E+00  0.00000000000E+00  0.29082408740E+04  0.29082408741E+04  0.25500000000E-02 0.  1.
         -2   -1    0    0    0  501 -0.00000000000E+00 -0.00000000000E+00 -0.24414995576E+02  0.24414995709E+02  0.25500000000E-02 0. -1.
    5000001    1    1    2    0    0 -0.56796250547E+02 -0.17106717235E+03  0.85721363014E+03  0.89136412270E+03  0.16500000000E+03 0.  0.
   -5000001    1    1    2    0    0  0.56796250547E+02  0.17106717235E+03  0.20266122483E+04  0.20412917471E+04  0.16500000000E+03 0.  0.
<mgrwt>
<rscale>  0 0.53293410E+03</rscale>
<asrwt>0</asrwt>
<pdfrwt beam="1">  1        2 0.41546283E+00 0.53293410E+03</pdfrwt>
<pdfrwt beam="2">  1       -2 0.34878578E-02 0.53293410E+03</pdfrwt>
<totfact> 0.10158616E+03</totfact>
</mgrwt>
</event>
<event>
 4    1  0.1025337E-004  0.6844020E+03  0.7818608E-02  0.9744285E-01
         -2   -1    0    0    0  501 -0.00000000000E+00  0.00000000000E+00  0.54905733422E+02  0.54905733481E+02  0.25500000000E-02 0. -1.
          2   -1    0    0  501    0  0.00000000000E+00 -0.00000000000E+00 -0.21327741116E+04  0.21327741116E+04  0.25500000000E-02 0.  1.
    5000001    1    1    2    0    0  0.88069783462E+02 -0.28651464174E+03 -0.10563249981E+04  0.11103577930E+04  0.16500000000E+03 0.  0.
   -5000001    1    1    2    0    0 -0.88069783462E+02  0.28651464174E+03 -0.10215433800E+04  0.10773220521E+04  0.16500000000E+03 0.  0.
<mgrwt>
<rscale>  0 0.68440201E+03</rscale>
<asrwt>0</asrwt>
<pdfrwt beam="1">  1        2 0.30468196E+00 0.68440201E+03</pdfrwt>
<pdfrwt beam="2">  1       -2 0.78436775E-02 0.68440201E+03</pdfrwt>
<totfact> 0.71476381E+02</totfact>
</mgrwt>
</event>
<event>
 4    1  0.1025337E-004  0.3874570E+03  0.7818608E-02  0.1048212E+00
         -2   -1    0    0    0  501 -0.00000000000E+00  0.00000000000E+00  0.27495921373E+02  0.27495921491E+02  0.25500000000E-02 0. -1.
          2   -1    0    0  501    0  0.00000000000E+00 -0.00000000000E+00 -0.13649560711E+04  0.13649560711E+04  0.25500000000E-02 0.  1.
    5000001    1    1    2    0    0 -0.49613971682E+02 -0.36613275758E+02 -0.95855466534E+03  0.97460459910E+03  0.16500000000E+03 0.  0.
   -5000001    1    1    2    0    0  0.49613971682E+02  0.36613275758E+02 -0.37890548438E+03  0.41784739349E+03  0.16500000000E+03 0.  0.
<mgrwt>
<rscale>  0 0.38745696E+03</rscale>
<asrwt>0</asrwt>
<pdfrwt beam="1">  1        2 0.19499368E+00 0.38745696E+03</pdfrwt>
<pdfrwt beam="2">  1       -2 0.39279896E-02 0.38745696E+03</pdfrwt>
<totfact> 0.51937676E+03</totfact>
</mgrwt>
</event>
<event>
 4    1  0.1025337E-004  0.1039099E+04  0.7818608E-02  0.9266671E-01
          2   -1    0    0  501    0  0.00000000000E+00  0.00000000000E+00  0.30569650021E+03  0.30569650022E+03  0.25500000000E-02 0.  1.
         -2   -1    0    0    0  501 -0.00000000000E+00 -0.00000000000E+00 -0.88300621836E+03  0.88300621836E+03  0.25500000000E-02 0. -1.
    5000001    1    1    2    0    0 -0.47979410302E+03 -0.97092266786E+02 -0.35211831509E+03  0.62517325389E+03  0.16500000000E+03 0.  0.
   -5000001    1    1    2    0    0  0.47979410302E+03  0.97092266786E+02 -0.22519140306E+03  0.56352946469E+03  0.16500000000E+03 0.  0.
<mgrwt>
<rscale>  0 0.10390994E+04</rscale>
<asrwt>0</asrwt>
<pdfrwt beam="1">  1        2 0.43670929E-01 0.10390994E+04</pdfrwt>
<pdfrwt beam="2">  1       -2 0.12614374E+00 0.10390994E+04</pdfrwt>
<totfact> 0.54530776E+01</totfact>
</mgrwt>
</event>
<event>
 4    1  0.1025337E-004  0.3999157E+03  0.7818608E-02  0.1043809E+00
         -2   -1    0    0    0  501 -0.00000000000E+00  0.00000000000E+00  0.86543553570E+01  0.86543557327E+01  0.25500000000E-02 0. -1.
          2   -1    0    0  501    0  0.00000000000E+00 -0.00000000000E+00 -0.46200033385E+04  0.46200033385E+04  0.25500000000E-02 0.  1.
    5000001    1    1    2    0    0  0.43754046037E+02  0.10258327129E+03 -0.20984992565E+04  0.21079283369E+04  0.16500000000E+03 0.  0.
   -5000001    1    1    2    0    0 -0.43754046037E+02 -0.10258327129E+03 -0.25128497267E+04  0.25207293573E+04  0.16500000000E+03 0.  0.
<mgrwt>
<rscale>  0 0.39991575E+03</rscale>
<asrwt>0</asrwt>
<pdfrwt beam="1">  1        2 0.65999890E+00 0.39991575E+03</pdfrwt>
<pdfrwt beam="2">  1       -2 0.12363395E-02 0.39991575E+03</pdfrwt>
<totfact> 0.39491412E+02</totfact>
</mgrwt>
</event>
<event>
 4    1  0.1025337E-004  0.4088010E+03  0.7818608E-02  0.1040774E+00
          2   -1    0    0  501    0  0.00000000000E+00  0.00000000000E+00  0.18155773386E+04  0.18155773386E+04  0.25500000000E-02 0.  1.
         -2   -1    0    0    0  501 -0.00000000000E+00 -0.00000000000E+00 -0.23011723034E+02  0.23011723175E+02  0.25500000000E-02 0. -1.
    5000001    1    1    2    0    0 -0.66795920755E+02 -0.71352171725E+02  0.12143604131E+04  0.12294100376E+04  0.16500000000E+03 0.  0.
   -5000001    1    1    2    0    0  0.66795920755E+02  0.71352171725E+02  0.57820520242E+03  0.60917902422E+03  0.16500000000E+03 0.  0.
<mgrwt>
<rscale>  0 0.40880099E+03</rscale>
<asrwt>0</asrwt>
<pdfrwt beam="1">  1        2 0.25936825E+00 0.40880099E+03</pdfrwt>
<pdfrwt beam="2">  1       -2 0.32873883E-02 0.40880099E+03</pdfrwt>
<totfact> 0.40141025E+03</totfact>
</mgrwt>
</event>
<event>
 4    1  0.1025337E-004  0.4635034E+03  0.7818608E-02  0.1023770E+00
         -2   -1    0    0    0  501 -0.00000000000E+00  0.00000000000E+00  0.74592231100E+02  0.74592231143E+02  0.25500000000E-02 0. -1.
          2   -1    0    0  501    0  0.00000000000E+00 -0.00000000000E+00 -0.72003280878E+03  0.72003280879E+03  0.25500000000E-02 0.  1.
    5000001    1    1    2    0    0  0.49968171697E+01  0.59068006918E+02 -0.62890795855E+02  0.18626392519E+03  0.16500000000E+03 0.  0.
   -5000001    1    1    2    0    0 -0.49968171697E+01 -0.59068006918E+02 -0.58254978183E+03  0.60836111474E+03  0.16500000000E+03 0.  0.
<mgrwt>
<rscale>  0 0.46350341E+03</rscale>
<asrwt>0</asrwt>
<pdfrwt beam="1">  1        2 0.10286183E+00 0.46350341E+03</pdfrwt>
<pdfrwt beam="2">  1       -2 0.10656033E-01 0.46350341E+03</pdfrwt>
<totfact> 0.26747784E+03</totfact>
</mgrwt>
</event>
<event>
 4    1  0.1025337E-004  0.4756061E+03  0.7818608E-02  0.1020350E+00
          2   -1    0    0  501    0  0.00000000000E+00  0.00000000000E+00  0.26679814274E+04  0.26679814274E+04  0.25500000000E-02 0.  1.
         -2   -1    0    0    0  501 -0.00000000000E+00 -0.00000000000E+00 -0.21195906905E+02  0.21195907059E+02  0.25500000000E-02 0. -1.
    5000001    1    1    2    0    0  0.13717627514E+03 -0.80020804555E+02  0.96114236519E+03  0.98804873655E+03  0.16500000000E+03 0.  0.
   -5000001    1    1    2    0    0 -0.13717627514E+03  0.80020804555E+02  0.16856431553E+04  0.17011285979E+04  0.16500000000E+03 0.  0.
<mgrwt>
<rscale>  0 0.47560608E+03</rscale>
<asrwt>0</asrwt>
<pdfrwt beam="1">  1        2 0.38113963E+00 0.47560608E+03</pdfrwt>
<pdfrwt beam="2">  1       -2 0.30279913E-02 0.47560608E+03</pdfrwt>
<totfact> 0.16920908E+03</totfact>
</mgrwt>
</event>
<event>
 4    1  0.1025337E-004  0.3525317E+03  0.7818608E-02  0.1061581E+00
          2   -1    0    0  501    0  0.00000000000E+00  0.00000000000E+00  0.25201232663E+03  0.25201232665E+03  0.25500000000E-02 0.  1.
         -2   -1    0    0    0  501 -0.00000000000E+00 -0.00000000000E+00 -0.12328619790E+03  0.12328619792E+03  0.25500000000E-02 0. -1.
    5000001    1    1    2    0    0 -0.87667351723E+01  0.47409665042E+02  0.22856557045E+02  0.17341267020E+03  0.16500000000E+03 0.  0.
   -5000001    1    1    2    0    0  0.87667351723E+01 -0.47409665042E+02  0.10586957169E+03  0.20188585437E+03  0.16500000000E+03 0.  0.
<mgrwt>
<rscale>  0 0.35253165E+03</rscale>
<asrwt>0</asrwt>
<pdfrwt beam="1">  1        2 0.36001761E-01 0.35253165E+03</pdfrwt>
<pdfrwt beam="2">  1       -2 0.17612314E-01 0.35253165E+03</pdfrwt>
<totfact> 0.37621676E+03</totfact>
</mgrwt>
</event>
<event>
 4    1  0.1025337E-004  0.6518933E+03  0.7818608E-02  0.9803233E-01
         -2   -1    0    0    0  501 -0.00000000000E+00  0.00000000000E+00  0.11010065173E+03  0.11010065175E+03  0.25500000000E-02 0.  1.
          2   -1    0    0  501    0  0.00000000000E+00 -0.00000000000E+00 -0.96494642930E+03  0.96494642930E+03  0.25500000000E-02 0. -1.
    5000001    1    1    2    0    0 -0.19889354709E+03 -0.17581349839E+03 -0.27496043236E+03  0.41628988536E+03  0.16500000000E+03 0.  0.
   -5000001    1    1    2    0    0  0.19889354709E+03  0.17581349839E+03 -0.57988534522E+03  0.65875719570E+03  0.16500000000E+03 0.  0.
<mgrwt>
<rscale>  0 0.65189334E+03</rscale>
<asrwt>0</asrwt>
<pdfrwt beam="1">  1        2 0.13784949E+00 0.65189334E+03</pdfrwt>
<pdfrwt beam="2">  1       -2 0.15728665E-01 0.65189334E+03</pdfrwt>
<totfact> 0.95887447E+02</totfact>
</mgrwt>
</event>
<event>
 4    1  0.1025337E-004  0.5499180E+03  0.7818608E-02  0.1001513E+00
         -2   -1    0    0    0  501 -0.00000000000E+00  0.00000000000E+00  0.68003526747E+03  0.68003526747E+03  0.25500000000E-02 0. -1.
          2   -1    0    0  501    0  0.00000000000E+00 -0.00000000000E+00 -0.11117430035E+03  0.11117430038E+03  0.25500000000E-02 0.  1.
    5000001    1    1    2    0    0  0.13591631518E+03 -0.26280125095E+02  0.53034593744E+03  0.57241217935E+03  0.16500000000E+03 0.  0.
   -5000001    1    1    2    0    0 -0.13591631518E+03  0.26280125095E+02  0.38515029673E+02  0.21879738851E+03  0.16500000000E+03 0.  0.
<mgrwt>
<rscale>  0 0.54991798E+03</rscale>
<asrwt>0</asrwt>
<pdfrwt beam="1">  1        2 0.15882042E-01 0.54991798E+03</pdfrwt>
<pdfrwt beam="2">  1       -2 0.97147898E-01 0.54991798E+03</pdfrwt>
<totfact> 0.33460408E+02</totfact>
</mgrwt>
</event>
<event>
 4    1  0.1025337E-004  0.5268463E+03  0.7818608E-02  0.1007000E+00
          2   -1    0    0  501    0  0.00000000000E+00  0.00000000000E+00  0.52846183736E+03  0.52846183737E+03  0.25500000000E-02 0. -1.
         -2   -1    0    0    0  501 -0.00000000000E+00 -0.00000000000E+00 -0.13130891258E+03  0.13130891261E+03  0.25500000000E-02 0.  1.
    5000001    1    1    2    0    0 -0.47028887021E+02  0.18902641410E+03  0.11718599259E+03  0.28089189789E+03  0.16500000000E+03 0.  0.
   -5000001    1    1    2    0    0  0.47028887021E+02 -0.18902641410E+03  0.27996693219E+03  0.37887885209E+03  0.16500000000E+03 0.  0.
<mgrwt>
<rscale>  0 0.52684627E+03</rscale>
<asrwt>0</asrwt>
<pdfrwt beam="1">  1        2 0.75494549E-01 0.52684627E+03</pdfrwt>
<pdfrwt beam="2">  1       -2 0.18758416E-01 0.52684627E+03</pdfrwt>
<totfact> 0.15007313E+03</totfact>
</mgrwt>
</event>
<event>
 4    1  0.1025337E-004  0.4128517E+03  0.7818608E-02  0.1039418E+00
          2   -1    0    0  501    0  0.00000000000E+00  0.00000000000E+00  0.52390725363E+03  0.52390725364E+03  0.25500000000E-02 0.  1.
         -2   -1    0    0    0  501 -0.00000000000E+00 -0.00000000000E+00 -0.81334288779E+02  0.81334288819E+02  0.25500000000E-02 0. -1.
    5000001    1    1    2    0    0 -0.11964381766E+03  0.49168945223E+01  0.17383225500E+03  0.26792064466E+03  0.16500000000E+03 0.  0.
   -5000001    1    1    2    0    0  0.11964381766E+03 -0.49168945223E+01  0.26874070985E+03  0.33732089780E+03  0.16500000000E+03 0.  0.
<mgrwt>
<rscale>  0 0.41285166E+03</rscale>
<asrwt>0</asrwt>
<pdfrwt beam="1">  1        2 0.74843894E-01 0.41285166E+03</pdfrwt>
<pdfrwt beam="2">  1       -2 0.11619184E-01 0.41285166E+03</pdfrwt>
<totfact> 0.33695380E+03</totfact>
</mgrwt>
</event>
<event>
 4    1  0.1025337E-004  0.6845844E+03  0.7818608E-02  0.9743964E-01
         -2   -1    0    0    0  501 -0.00000000000E+00  0.00000000000E+00  0.36464523918E+03  0.36464523919E+03  0.25500000000E-02 0. -1.
          2   -1    0    0  501    0  0.00000000000E+00 -0.00000000000E+00 -0.32130939603E+03  0.32130939604E+03  0.25500000000E-02 0.  1.
    5000001    1    1    2    0    0 -0.29144626859E+03 -0.35061049822E+02 -0.39844995356E+02  0.33909117998E+03  0.16500000000E+03 0.  0.
   -5000001    1    1    2    0    0  0.29144626859E+03  0.35061049822E+02  0.83180838511E+02  0.34686345524E+03  0.16500000000E+03 0.  0.
<mgrwt>
<rscale>  0 0.68458437E+03</rscale>
<asrwt>0</asrwt>
<pdfrwt beam="1">  1        2 0.45901342E-01 0.68458437E+03</pdfrwt>
<pdfrwt beam="2">  1       -2 0.52092178E-01 0.68458437E+03</pdfrwt>
<totfact> 0.38758700E+02</totfact>
</mgrwt>
</event>
<event>
 4    1  0.1025337E-004  0.5701740E+03  0.7818608E-02  0.9969294E-01
         -2   -1    0    0    0  501 -0.00000000000E+00  0.00000000000E+00  0.32893183543E+02  0.32893183642E+02  0.25500000000E-02 0. -1.
          2   -1    0    0  501    0  0.00000000000E+00 -0.00000000000E+00 -0.24708642650E+04  0.24708642650E+04  0.25500000000E-02 0.  1.
    5000001    1    1    2    0    0  0.56571375722E+02 -0.22548218457E+03 -0.12073212635E+04  0.12405209266E+04  0.16500000000E+03 0.  0.
   -5000001    1    1    2    0    0 -0.56571375722E+02  0.22548218457E+03 -0.12306498180E+04  0.12632365220E+04  0.16500000000E+03 0.  0.
<mgrwt>
<rscale>  0 0.57017398E+03</rscale>
<asrwt>0</asrwt>
<pdfrwt beam="1">  1        2 0.35298049E+00 0.57017398E+03</pdfrwt>
<pdfrwt beam="2">  1       -2 0.46990278E-02 0.57017398E+03</pdfrwt>
<totfact> 0.10844138E+03</totfact>
</mgrwt>
</event>
<event>
 4    1  0.1025337E-004  0.5561701E+03  0.7818608E-02  0.1000076E+00
         -2   -1    0    0    0  501 -0.00000000000E+00  0.00000000000E+00  0.11574282786E+04  0.11574282786E+04  0.25500000000E-02 0. -1.
          2   -1    0    0  501    0  0.00000000000E+00 -0.00000000000E+00 -0.66813039056E+02  0.66813039105E+02  0.25500000000E-02 0.  1.
    5000001    1    1    2    0    0  0.87226703455E+02 -0.15889954712E+03  0.83440092118E+03  0.86965939375E+03  0.16500000000E+03 0.  0.
   -5000001    1    1    2    0    0 -0.87226703455E+02  0.15889954712E+03  0.25621431841E+03  0.35458192400E+03  0.16500000000E+03 0.  0.
<mgrwt>
<rscale>  0 0.55617012E+03</rscale>
<asrwt>0</asrwt>
<pdfrwt beam="1">  1        2 0.95447198E-02 0.55617012E+03</pdfrwt>
<pdfrwt beam="2">  1       -2 0.16534690E+00 0.55617012E+03</pdfrwt>
<totfact> 0.16553788E+02</totfact>
</mgrwt>
</event>
<event>
 4    1  0.1025337E-004  0.9839825E+03  0.7818608E-02  0.9326289E-01
         -2   -1    0    0    0  501 -0.00000000000E+00  0.00000000000E+00  0.36248784677E+03  0.36248784678E+03  0.25500000000E-02 0. -1.
          2   -1    0    0  501    0  0.00000000000E+00 -0.00000000000E+00 -0.66776135016E+03  0.66776135017E+03  0.25500000000E-02 0.  1.
    5000001    1    1    2    0    0  0.22352876291E+03 -0.25469063554E+03 -0.48373010691E+03  0.61323098749E+03  0.16500000000E+03 0.  0.
   -5000001    1    1    2    0    0 -0.22352876291E+03  0.25469063554E+03  0.17845660352E+03  0.41701820946E+03  0.16500000000E+03 0.  0.
<mgrwt>
<rscale>  0 0.98398247E+03</rscale>
<asrwt>0</asrwt>
<pdfrwt beam="1">  1        2 0.95394479E-01 0.98398247E+03</pdfrwt>
<pdfrwt beam="2">  1       -2 0.51783978E-01 0.98398247E+03</pdfrwt>
<totfact> 0.16782875E+02</totfact>
</mgrwt>
</event>
<event>
 4    1  0.1025337E-004  0.7532718E+03  0.7818608E-02  0.9630231E-01
          2   -1    0    0  501    0  0.00000000000E+00  0.00000000000E+00  0.16408509583E+04  0.16408509583E+04  0.25500000000E-02 0.  1.
         -2   -1    0    0    0  501 -0.00000000000E+00 -0.00000000000E+00 -0.86451858790E+02  0.86451858827E+02  0.25500000000E-02 0. -1.
    5000001    1    1    2    0    0 -0.17170956123E+03  0.28100064031E+03  0.95752389898E+03  0.10259252168E+04  0.16500000000E+03 0.  0.
   -5000001    1    1    2    0    0  0.17170956123E+03 -0.28100064031E+03  0.59687520049E+03  0.70137760032E+03  0.16500000000E+03 0.  0.
<mgrwt>
<rscale>  0 0.75327184E+03</rscale>
<asrwt>0</asrwt>
<pdfrwt beam="1">  1        2 0.23440726E+00 0.75327184E+03</pdfrwt>
<pdfrwt beam="2">  1       -2 0.12350266E-01 0.75327184E+03</pdfrwt>
<totfact> 0.60485971E+02</totfact>
</mgrwt>
</event>
<event>
 4    1  0.1025337E-004  0.3934374E+03  0.7818608E-02  0.1046076E+00
         -2   -1    0    0    0  501 -0.00000000000E+00  0.00000000000E+00  0.16262285717E+02  0.16262285917E+02  0.25500000000E-02 0. -1.
          2   -1    0    0  501    0  0.00000000000E+00 -0.00000000000E+00 -0.23796311811E+04  0.23796311811E+04  0.25500000000E-02 0.  1.
    5000001    1    1    2    0    0  0.93005649985E+02  0.31802979964E+01 -0.85869918134E+03  0.87934603499E+03  0.16500000000E+03 0.  0.
   -5000001    1    1    2    0    0 -0.93005649985E+02 -0.31802979964E+01 -0.15046697140E+04  0.15165474320E+04  0.16500000000E+03 0.  0.
<mgrwt>
<rscale>  0 0.39343738E+03</rscale>
<asrwt>0</asrwt>
<pdfrwt beam="1">  1        2 0.33994709E+00 0.39343738E+03</pdfrwt>
<pdfrwt beam="2">  1       -2 0.23231852E-02 0.39343738E+03</pdfrwt>
<totfact> 0.35483602E+03</totfact>
</mgrwt>
</event>
<event>
 4    1  0.1025337E-004  0.4836167E+03  0.7818608E-02  0.1018146E+00
          2   -1    0    0  501    0  0.00000000000E+00  0.00000000000E+00  0.12241860113E+04  0.12241860113E+04  0.25500000000E-02 0.  1.
         -2   -1    0    0    0  501 -0.00000000000E+00 -0.00000000000E+00 -0.47763394677E+02  0.47763394745E+02  0.25500000000E-02 0. -1.
    5000001    1    1    2    0    0 -0.13799782111E+03 -0.29498508795E+02  0.30822576850E+03  0.37701682326E+03  0.16500000000E+03 0.  0.
   -5000001    1    1    2    0    0  0.13799782111E+03  0.29498508795E+02  0.86819684817E+03  0.89493258283E+03  0.16500000000E+03 0.  0.
<mgrwt>
<rscale>  0 0.48361671E+03</rscale>
<asrwt>0</asrwt>
<pdfrwt beam="1">  1        2 0.17488372E+00 0.48361671E+03</pdfrwt>
<pdfrwt beam="2">  1       -2 0.68233420E-02 0.48361671E+03</pdfrwt>
<totfact> 0.26399685E+03</totfact>
</mgrwt>
</event>
<event>
 4    1  0.1025337E-004  0.4083370E+03  0.7818608E-02  0.1040930E+00
         -2   -1    0    0    0  501 -0.00000000000E+00  0.00000000000E+00  0.28295930808E+03  0.28295930809E+03  0.25500000000E-02 0. -1.
          2   -1    0    0  501    0  0.00000000000E+00 -0.00000000000E+00 -0.14731723638E+03  0.14731723640E+03  0.25500000000E-02 0.  1.
    5000001    1    1    2    0    0 -0.24395906318E+02 -0.10627857662E+03  0.12123467041E+03  0.23197659667E+03  0.16500000000E+03 0.  0.
   -5000001    1    1    2    0    0  0.24395906318E+02  0.10627857662E+03  0.14407401286E+02  0.19829994782E+03  0.16500000000E+03 0.  0.
<mgrwt>
<rscale>  0 0.40833703E+03</rscale>
<asrwt>0</asrwt>
<pdfrwt beam="1">  1        2 0.21045320E-01 0.40833703E+03</pdfrwt>
<pdfrwt beam="2">  1       -2 0.40422758E-01 0.40833703E+03</pdfrwt>
<totfact> 0.15410066E+03</totfact>
</mgrwt>
</event>
<event>
 4    1  0.1025337E-004  0.7896702E+03  0.7818608E-02  0.9575091E-01
          2   -1    0    0  501    0  0.00000000000E+00  0.00000000000E+00  0.37069675739E+03  0.37069675739E+03  0.25500000000E-02 0.  1.
         -2   -1    0    0    0  501 -0.00000000000E+00 -0.00000000000E+00 -0.42054518680E+03  0.42054518681E+03  0.25500000000E-02 0. -1.
    5000001    1    1    2    0    0 -0.29136378532E+02  0.35551273655E+03 -0.62834727828E+02  0.39800934339E+03  0.16500000000E+03 0.  0.
   -5000001    1    1    2    0    0  0.29136378532E+02 -0.35551273655E+03  0.12986298408E+02  0.39323260082E+03  0.16500000000E+03 0.  0.
<mgrwt>
<rscale>  0 0.78967015E+03</rscale>
<asrwt>0</asrwt>
<pdfrwt beam="1">  1        2 0.52956680E-01 0.78967015E+03</pdfrwt>
<pdfrwt beam="2">  1       -2 0.60077883E-01 0.78967015E+03</pdfrwt>
<totfact> 0.24502819E+02</totfact>
</mgrwt>
</event>
<event>
 4    1  0.1025337E-004  0.5073777E+03  0.7818608E-02  0.1011871E+00
         -2   -1    0    0    0  501 -0.00000000000E+00  0.00000000000E+00  0.37203610698E+02  0.37203610785E+02  0.25500000000E-02 0. -1.
          2   -1    0    0  501    0  0.00000000000E+00 -0.00000000000E+00 -0.17298865902E+04  0.17298865902E+04  0.25500000000E-02 0.  1.
    5000001    1    1    2    0    0  0.11320022024E+03  0.14100281907E+03 -0.10783314874E+04  0.11057666488E+04  0.16500000000E+03 0.  0.
   -5000001    1    1    2    0    0 -0.11320022024E+03 -0.14100281907E+03 -0.61435149205E+03  0.66132355215E+03  0.16500000000E+03 0.  0.
<mgrwt>
<rscale>  0 0.50737768E+03</rscale>
<asrwt>0</asrwt>
<pdfrwt beam="1">  1        2 0.24712661E+00 0.50737768E+03</pdfrwt>
<pdfrwt beam="2">  1       -2 0.53148026E-02 0.50737768E+03</pdfrwt>
<totfact> 0.21208272E+03</totfact>
</mgrwt>
</event>
<event>
 4    1  0.1025337E-004  0.6542128E+03  0.7818608E-02  0.9798906E-01
          2   -1    0    0  501    0  0.00000000000E+00  0.00000000000E+00  0.11100511665E+04  0.11100511665E+04  0.25500000000E-02 0.  1.
         -2   -1    0    0    0  501 -0.00000000000E+00 -0.00000000000E+00 -0.96390697824E+02  0.96390697858E+02  0.25500000000E-02 0. -1.
    5000001    1    1    2    0    0  0.23459285813E+03 -0.21157612252E+02  0.21940801017E+03  0.36172687012E+03  0.16500000000E+03 0.  0.
   -5000001    1    1    2    0    0 -0.23459285813E+03  0.21157612252E+02  0.79425245847E+03  0.84471499420E+03  0.16500000000E+03 0.  0.
<mgrwt>
<rscale>  0 0.65421283E+03</rscale>
<asrwt>0</asrwt>
<pdfrwt beam="1">  1        2 0.15857874E+00 0.65421283E+03</pdfrwt>
<pdfrwt beam="2">  1       -2 0.13770100E-01 0.65421283E+03</pdfrwt>
<totfact> 0.98125159E+02</totfact>
</mgrwt>
</event>
<event>
 4    1  0.1025337E-004  0.5981836E+03  0.7818608E-02  0.9909182E-01
         -2   -1    0    0    0  501 -0.00000000000E+00  0.00000000000E+00  0.36351897145E+02  0.36351897235E+02  0.25500000000E-02 0. -1.
          2   -1    0    0  501    0  0.00000000000E+00 -0.00000000000E+00 -0.24608318096E+04  0.24608318096E+04  0.25500000000E-02 0.  1.
    5000001    1    1    2    0    0 -0.19331398240E+03 -0.67257533575E+02 -0.61690718402E+03  0.67059178739E+03  0.16500000000E+03 0.  0.
   -5000001    1    1    2    0    0  0.19331398240E+03  0.67257533575E+02 -0.18075727284E+04  0.18265919195E+04  0.16500000000E+03 0.  0.
<mgrwt>
<rscale>  0 0.59818360E+03</rscale>
<asrwt>0</asrwt>
<pdfrwt beam="1">  1        2 0.35154730E+00 0.59818360E+03</pdfrwt>
<pdfrwt beam="2">  1       -2 0.51931297E-02 0.59818360E+03</pdfrwt>
<totfact> 0.93789083E+02</totfact>
</mgrwt>
</event>
<event>
 4    1  0.1025337E-004  0.4266389E+03  0.7818608E-02  0.1034927E+00
         -2   -1    0    0    0  501 -0.00000000000E+00  0.00000000000E+00  0.37238589169E+02  0.37238589256E+02  0.25500000000E-02 0. -1.
          2   -1    0    0  501    0  0.00000000000E+00 -0.00000000000E+00 -0.12219903521E+04  0.12219903521E+04  0.25500000000E-02 0.  1.
    5000001    1    1    2    0    0  0.50673806828E+02 -0.76405131536E+02 -0.29908108828E+03  0.35366661730E+03  0.16500000000E+03 0.  0.
   -5000001    1    1    2    0    0 -0.50673806828E+02  0.76405131536E+02 -0.88567067460E+03  0.90556232401E+03  0.16500000000E+03 0.  0.
<mgrwt>
<rscale>  0 0.42663894E+03</rscale>
<asrwt>0</asrwt>
<pdfrwt beam="1">  1        2 0.17457002E+00 0.42663894E+03</pdfrwt>
<pdfrwt beam="2">  1       -2 0.53197993E-02 0.42663894E+03</pdfrwt>
<totfact> 0.38990290E+03</totfact>
</mgrwt>
</event>
<event>
 4    1  0.1025337E-004  0.5076722E+03  0.7818608E-02  0.1011796E+00
         -2   -1    0    0    0  501 -0.00000000000E+00  0.00000000000E+00  0.57664451974E+02  0.57664452031E+02  0.25500000000E-02 0. -1.
          2   -1    0    0  501    0  0.00000000000E+00 -0.00000000000E+00 -0.11173739927E+04  0.11173739927E+04  0.25500000000E-02 0.  1.
    5000001    1    1    2    0    0  0.11797266722E+02 -0.15786926549E+03 -0.78493874905E+03  0.81756695154E+03  0.16500000000E+03 0.  0.
   -5000001    1    1    2    0    0 -0.11797266722E+02  0.15786926549E+03 -0.27477079166E+03  0.35747149318E+03  0.16500000000E+03 0.  0.
<mgrwt>
<rscale>  0 0.50767217E+03</rscale>
<asrwt>0</asrwt>
<pdfrwt beam="1">  1        2 0.15962484E+00 0.50767217E+03</pdfrwt>
<pdfrwt beam="2">  1       -2 0.82377795E-02 0.50767217E+03</pdfrwt>
<totfact> 0.22506441E+03</totfact>
</mgrwt>
</event>
<event>
 4    1  0.1025337E-004  0.6650409E+03  0.7818608E-02  0.9778958E-01
         -2   -1    0    0    0  501 -0.00000000000E+00  0.00000000000E+00  0.54123139917E+03  0.54123139918E+03  0.25500000000E-02 0. -1.
          2   -1    0    0  501    0  0.00000000000E+00 -0.00000000000E+00 -0.20429309215E+03  0.20429309217E+03  0.25500000000E-02 0.  1.
    5000001    1    1    2    0    0 -0.24413781006E+03  0.14523745163E+03  0.22615160994E+03  0.39883171682E+03  0.16500000000E+03 0.  0.
   -5000001    1    1    2    0    0  0.24413781006E+03 -0.14523745163E+03  0.11078669708E+03  0.34669277453E+03  0.16500000000E+03 0.  0.
<mgrwt>
<rscale>  0 0.66504086E+03</rscale>
<asrwt>0</asrwt>
<pdfrwt beam="1">  1        2 0.29184728E-01 0.66504086E+03</pdfrwt>
<pdfrwt beam="2">  1       -2 0.77318769E-01 0.66504086E+03</pdfrwt>
<totfact> 0.27667543E+02</totfact>
</mgrwt>
</event>
<event>
 4    1  0.1025337E-004  0.4843129E+03  0.7818608E-02  0.1017957E+00
         -2   -1    0    0    0  501 -0.00000000000E+00  0.00000000000E+00  0.31229699819E+02  0.31229699923E+02  0.25500000000E-02 0. -1.
          2   -1    0    0  501    0  0.00000000000E+00 -0.00000000000E+00 -0.18776913228E+04  0.18776913228E+04  0.25500000000E-02 0.  1.
    5000001    1    1    2    0    0  0.90673115943E+01 -0.13267676674E+03 -0.46139492707E+03  0.50773577705E+03  0.16500000000E+03 0.  0.
   -5000001    1    1    2    0    0 -0.90673115943E+01  0.13267676674E+03 -0.13850666959E+04  0.14011852457E+04  0.16500000000E+03 0.  0.
<mgrwt>
<rscale>  0 0.48431286E+03</rscale>
<asrwt>0</asrwt>
<pdfrwt beam="1">  1        2 0.26824155E+00 0.48431286E+03</pdfrwt>
<pdfrwt beam="2">  1       -2 0.44613869E-02 0.48431286E+03</pdfrwt>
<totfact> 0.23440216E+03</totfact>
</mgrwt>
</event>
<event>
 4    1  0.1025337E-004  0.4483345E+03  0.7818608E-02  0.1028220E+00
          2   -1    0    0  501    0  0.00000000000E+00  0.00000000000E+00  0.70673110331E+03  0.70673110331E+03  0.25500000000E-02 0. -1.
         -2   -1    0    0    0  501 -0.00000000000E+00 -0.00000000000E+00 -0.71103344976E+02  0.71103345022E+02  0.25500000000E-02 0.  1.
    5000001    1    1    2    0    0 -0.14555000575E+03 -0.17884374160E+02  0.25014466578E+03  0.33361955703E+03  0.16500000000E+03 0.  0.
   -5000001    1    1    2    0    0  0.14555000575E+03  0.17884374160E+02  0.38548309256E+03  0.44421489131E+03  0.16500000000E+03 0.  0.
<mgrwt>
<rscale>  0 0.44833445E+03</rscale>
<asrwt>0</asrwt>
<pdfrwt beam="1">  1        2 0.10096158E+00 0.44833445E+03</pdfrwt>
<pdfrwt beam="2">  1       -2 0.10157621E-01 0.44833445E+03</pdfrwt>
<totfact> 0.29555801E+03</totfact>
</mgrwt>
</event>
<event>
 4    1  0.1025337E-004  0.5267921E+03  0.7818608E-02  0.1007013E+00
          2   -1    0    0  501    0  0.00000000000E+00  0.00000000000E+00  0.17406194557E+04  0.17406194557E+04  0.25500000000E-02 0.  1.
         -2   -1    0    0    0  501 -0.00000000000E+00 -0.00000000000E+00 -0.39857925595E+02  0.39857925676E+02  0.25500000000E-02 0. -1.
    5000001    1    1    2    0    0 -0.14441344875E+03 -0.11709766562E+03  0.11447454343E+04  0.11714240124E+04  0.16500000000E+03 0.  0.
   -5000001    1    1    2    0    0  0.14441344875E+03  0.11709766562E+03  0.55601609585E+03  0.60905336902E+03  0.16500000000E+03 0.  0.
<mgrwt>
<rscale>  0 0.52679211E+03</rscale>
<asrwt>0</asrwt>
<pdfrwt beam="1">  1        2 0.24865985E+00 0.52679211E+03</pdfrwt>
<pdfrwt beam="2">  1       -2 0.56939911E-02 0.52679211E+03</pdfrwt>
<totfact> 0.18807077E+03</totfact>
</mgrwt>
</event>
<event>
 4    1  0.1025337E-004  0.4427599E+03  0.7818608E-02  0.1029903E+00
         -2   -1    0    0    0  501 -0.00000000000E+00  0.00000000000E+00  0.10032073898E+03  0.10032073901E+03  0.25500000000E-02 0. -1.
          2   -1    0    0  501    0  0.00000000000E+00 -0.00000000000E+00 -0.48852383468E+03  0.48852383469E+03  0.25500000000E-02 0.  1.
    5000001    1    1    2    0    0 -0.98986183232E+02  0.10198145984E+03 -0.24705909006E+03  0.32933520402E+03  0.16500000000E+03 0.  0.
   -5000001    1    1    2    0    0  0.98986183232E+02 -0.10198145984E+03 -0.14114400565E+03  0.25950936968E+03  0.16500000000E+03 0.  0.
<mgrwt>
<rscale>  0 0.44275985E+03</rscale>
<asrwt>0</asrwt>
<pdfrwt beam="1">  1        2 0.69789118E-01 0.44275985E+03</pdfrwt>
<pdfrwt beam="2">  1       -2 0.14331534E-01 0.44275985E+03</pdfrwt>
<totfact> 0.25841123E+03</totfact>
</mgrwt>
</event>
<event>
 4    1  0.1025337E-004  0.4041519E+03  0.7818608E-02  0.1042351E+00
          2   -1    0    0  501    0  0.00000000000E+00  0.00000000000E+00  0.87160695600E+03  0.87160695601E+03  0.25500000000E-02 0.  1.
         -2   -1    0    0    0  501 -0.00000000000E+00 -0.00000000000E+00 -0.46849885833E+02  0.46849885903E+02  0.25500000000E-02 0. -1.
    5000001    1    1    2    0    0 -0.10841252119E+03 -0.24434488000E+02  0.49302593670E+03  0.53164827961E+03  0.16500000000E+03 0.  0.
   -5000001    1    1    2    0    0  0.10841252119E+03  0.24434488000E+02  0.33173113347E+03  0.38680856230E+03  0.16500000000E+03 0.  0.
<mgrwt>
<rscale>  0 0.40415188E+03</rscale>
<asrwt>0</asrwt>
<pdfrwt beam="1">  1        2 0.12451527E+00 0.40415188E+03</pdfrwt>
<pdfrwt beam="2">  1       -2 0.66928412E-02 0.40415188E+03</pdfrwt>
<totfact> 0.43959042E+03</totfact>
</mgrwt>
</event>
<event>
 4    1  0.1025337E-004  0.4035014E+03  0.7818608E-02  0.1042574E+00
          2   -1    0    0  501    0  0.00000000000E+00  0.00000000000E+00  0.21201777362E+03  0.21201777363E+03  0.25500000000E-02 0.  1.
         -2   -1    0    0    0  501 -0.00000000000E+00 -0.00000000000E+00 -0.19198077211E+03  0.19198077213E+03  0.25500000000E-02 0. -1.
    5000001    1    1    2    0    0 -0.11587537772E+03 -0.58182693515E+01  0.14192626605E+02  0.20220629582E+03  0.16500000000E+03 0.  0.
   -5000001    1    1    2    0    0  0.11587537772E+03  0.58182693515E+01  0.58443748982E+01  0.20179224994E+03  0.16500000000E+03 0.  0.
<mgrwt>
<rscale>  0 0.40350136E+03</rscale>
<asrwt>0</asrwt>
<pdfrwt beam="1">  1        2 0.30288254E-01 0.40350136E+03</pdfrwt>
<pdfrwt beam="2">  1       -2 0.27425824E-01 0.40350136E+03</pdfrwt>
<totfact> 0.21051795E+03</totfact>
</mgrwt>
</event>
<event>
 4    1  0.1025337E-004  0.3770360E+03  0.7818608E-02  0.1052035E+00
          2   -1    0    0  501    0  0.00000000000E+00  0.00000000000E+00  0.27822019065E+04  0.27822019065E+04  0.25500000000E-02 0.  1.
         -2   -1    0    0    0  501 -0.00000000000E+00 -0.00000000000E+00 -0.12773711437E+02  0.12773711692E+02  0.25500000000E-02 0. -1.
    5000001    1    1    2    0    0  0.82800330472E+02 -0.32710748318E+02  0.15307631698E+04  0.15422019225E+04  0.16500000000E+03 0.  0.
   -5000001    1    1    2    0    0 -0.82800330472E+02  0.32710748318E+02  0.12386650253E+04  0.12527736957E+04  0.16500000000E+03 0.  0.
<mgrwt>
<rscale>  0 0.37703604E+03</rscale>
<asrwt>0</asrwt>
<pdfrwt beam="1">  1        2 0.39745789E+00 0.37703604E+03</pdfrwt>
<pdfrwt beam="2">  1       -2 0.18248138E-02 0.37703604E+03</pdfrwt>
<totfact> 0.31708475E+03</totfact>
</mgrwt>
</event>
<event>
 4    1  0.1025337E-004  0.5429989E+03  0.7818608E-02  0.1003128E+00
          2   -1    0    0  501    0  0.00000000000E+00  0.00000000000E+00  0.22422886914E+03  0.22422886916E+03  0.25500000000E-02 0.  1.
         -2   -1    0    0    0  501 -0.00000000000E+00 -0.00000000000E+00 -0.32873537901E+03  0.32873537902E+03  0.25500000000E-02 0. -1.
    5000001    1    1    2    0    0  0.10805158417E+03  0.15693952372E+03 -0.15501001990E+03  0.29590245896E+03  0.16500000000E+03 0.  0.
   -5000001    1    1    2    0    0 -0.10805158417E+03 -0.15693952372E+03  0.50503510030E+02  0.25706178921E+03  0.16500000000E+03 0.  0.
<mgrwt>
<rscale>  0 0.54299894E+03</rscale>
<asrwt>0</asrwt>
<pdfrwt beam="1">  1        2 0.32032696E-01 0.54299894E+03</pdfrwt>
<pdfrwt beam="2">  1       -2 0.46962197E-01 0.54299894E+03</pdfrwt>
<totfact> 0.71412648E+02</totfact>
</mgrwt>
</event>
<event>
 4    1  0.1025337E-004  0.4203766E+03  0.7818608E-02  0.1036944E+00
          2   -1    0    0  501    0  0.00000000000E+00  0.00000000000E+00  0.80950095144E+03  0.80950095144E+03  0.25500000000E-02 0.  1.
         -2   -1    0    0    0  501 -0.00000000000E+00 -0.00000000000E+00 -0.54575746455E+02  0.54575746515E+02  0.25500000000E-02 0. -1.
    5000001    1    1    2    0    0 -0.95629802418E+02  0.66924481629E+02  0.49607967314E+03  0.53567152944E+03  0.16500000000E+03 0.  0.
   -5000001    1    1    2    0    0  0.95629802418E+02 -0.66924481629E+02  0.25884553184E+03  0.32840516851E+03  0.16500000000E+03 0.  0.
<mgrwt>
<rscale>  0 0.42037659E+03</rscale>
<asrwt>0</asrwt>
<pdfrwt beam="1">  1        2 0.11564299E+00 0.42037659E+03</pdfrwt>
<pdfrwt beam="2">  1       -2 0.77965354E-02 0.42037659E+03</pdfrwt>
<totfact> 0.38057629E+03</totfact>
</mgrwt>
</event>
<event>
 4    1  0.1025337E-004  0.3821007E+03  0.7818608E-02  0.1050160E+00
          2   -1    0    0  501    0  0.00000000000E+00  0.00000000000E+00  0.63665534611E+02  0.63665534662E+02  0.25500000000E-02 0.  1.
         -2   -1    0    0    0  501 -0.00000000000E+00 -0.00000000000E+00 -0.57331245757E+03  0.57331245758E+03  0.25500000000E-02 0. -1.
    5000001    1    1    2    0    0 -0.43429745037E+02 -0.51255477376E+02 -0.36986116753E+03  0.41053081487E+03  0.16500000000E+03 0.  0.
   -5000001    1    1    2    0    0  0.43429745037E+02  0.51255477376E+02 -0.13978575543E+03  0.22644717737E+03  0.16500000000E+03 0.  0.
<mgrwt>
<rscale>  0 0.38210074E+03</rscale>
<asrwt>0</asrwt>
<pdfrwt beam="1">  1        2 0.90950767E-02 0.38210074E+03</pdfrwt>
<pdfrwt beam="2">  1       -2 0.81901777E-01 0.38210074E+03</pdfrwt>
<totfact> 0.98335101E+02</totfact>
</mgrwt>
</event>
<event>
 4    1  0.1025337E-004  0.6877448E+03  0.7818608E-02  0.9738423E-01
          2   -1    0    0  501    0  0.00000000000E+00  0.00000000000E+00  0.76772447421E+03  0.76772447421E+03  0.25500000000E-02 0.  1.
         -2   -1    0    0    0  501 -0.00000000000E+00 -0.00000000000E+00 -0.15402430659E+03  0.15402430661E+03  0.25500000000E-02 0. -1.
    5000001    1    1    2    0    0 -0.10497675912E+03  0.28244948910E+03  0.32697148948E+03  0.47427121859E+03  0.16500000000E+03 0.  0.
   -5000001    1    1    2    0    0  0.10497675912E+03 -0.28244948910E+03  0.28672867814E+03  0.44747756224E+03  0.16500000000E+03 0.  0.
<mgrwt>
<rscale>  0 0.68774481E+03</rscale>
<asrwt>0</asrwt>
<pdfrwt beam="1">  1        2 0.10967492E+00 0.68774481E+03</pdfrwt>
<pdfrwt beam="2">  1       -2 0.22003473E-01 0.68774481E+03</pdfrwt>
<totfact> 0.72483061E+02</totfact>
</mgrwt>
</event>
<event>
 4    1  0.1025337E-004  0.5136527E+03  0.7818608E-02  0.1010276E+00
         -2   -1    0    0    0  501 -0.00000000000E+00  0.00000000000E+00  0.21381774990E+03  0.21381774992E+03  0.25500000000E-02 0. -1.
          2   -1    0    0  501    0  0.00000000000E+00 -0.00000000000E+00 -0.30848592928E+03  0.30848592929E+03  0.25500000000E-02 0.  1.
    5000001    1    1    2    0    0 -0.64717502848E+02 -0.16112126370E+03  0.46889107829E+02  0.24407377005E+03  0.16500000000E+03 0.  0.
   -5000001    1    1    2    0    0  0.64717502848E+02  0.16112126370E+03 -0.14155728721E+03  0.27822990917E+03  0.16500000000E+03 0.  0.
<mgrwt>
<rscale>  0 0.51365267E+03</rscale>
<asrwt>0</asrwt>
<pdfrwt beam="1">  1        2 0.44069419E-01 0.51365267E+03</pdfrwt>
<pdfrwt beam="2">  1       -2 0.30545393E-01 0.51365267E+03</pdfrwt>
<totfact> 0.11458160E+03</totfact>
</mgrwt>
</event>
<event>
 4    1  0.1025337E-004  0.4745642E+03  0.7818608E-02  0.1020640E+00
          2   -1    0    0  501    0  0.00000000000E+00  0.00000000000E+00  0.10661336442E+03  0.10661336445E+03  0.25500000000E-02 0.  1.
         -2   -1    0    0    0  501 -0.00000000000E+00 -0.00000000000E+00 -0.52810268667E+03  0.52810268668E+03  0.25500000000E-02 0. -1.
    5000001    1    1    2    0    0 -0.15317883836E+03 -0.67419830397E+02 -0.25446614892E+03  0.34639170169E+03  0.16500000000E+03 0.  0.
   -5000001    1    1    2    0    0  0.15317883836E+03  0.67419830397E+02 -0.16702317333E+03  0.28832434944E+03  0.16500000000E+03 0.  0.
<mgrwt>
<rscale>  0 0.47456424E+03</rscale>
<asrwt>0</asrwt>
<pdfrwt beam="1">  1        2 0.15230481E-01 0.47456424E+03</pdfrwt>
<pdfrwt beam="2">  1       -2 0.75443239E-01 0.47456424E+03</pdfrwt>
<totfact> 0.62458370E+02</totfact>
</mgrwt>
</event>
<event>
 4    1  0.1025337E-004  0.4542486E+03  0.7818608E-02  0.1026463E+00
          2   -1    0    0  501    0  0.00000000000E+00  0.00000000000E+00  0.22229477925E+02  0.22229478071E+02  0.25500000000E-02 0.  1.
         -2   -1    0    0    0  501 -0.00000000000E+00 -0.00000000000E+00 -0.23205871170E+04  0.23205871170E+04  0.25500000000E-02 0. -1.
    5000001    1    1    2    0    0 -0.10837210278E+03  0.11146527896E+03 -0.10778216755E+04  0.11014052775E+04  0.16500000000E+03 0.  0.
   -5000001    1    1    2    0    0  0.10837210278E+03 -0.11146527896E+03 -0.12205359636E+04  0.12414113176E+04  0.16500000000E+03 0.  0.
<mgrwt>
<rscale>  0 0.45424857E+03</rscale>
<asrwt>0</asrwt>
<pdfrwt beam="1">  1        2 0.31756412E-02 0.45424857E+03</pdfrwt>
<pdfrwt beam="2">  1       -2 0.33151229E+00 0.45424857E+03</pdfrwt>
<totfact> 0.67669832E+01</totfact>
</mgrwt>
</event>
<event>
 4    1  0.1025337E-004  0.5605336E+03  0.7818608E-02  0.9990848E-01
          2   -1    0    0  501    0  0.00000000000E+00  0.00000000000E+00  0.24489321080E+03  0.24489321081E+03  0.25500000000E-02 0.  1.
         -2   -1    0    0    0  501 -0.00000000000E+00 -0.00000000000E+00 -0.32074998070E+03  0.32074998071E+03  0.25500000000E-02 0. -1.
    5000001    1    1    2    0    0 -0.22530530913E+03  0.12731342507E+02 -0.58108758409E+02  0.28552792719E+03  0.16500000000E+03 0.  0.
   -5000001    1    1    2    0    0  0.22530530913E+03 -0.12731342507E+02 -0.17748011491E+02  0.28011526434E+03  0.16500000000E+03 0.  0.
<mgrwt>
<rscale>  0 0.56053365E+03</rscale>
<asrwt>0</asrwt>
<pdfrwt beam="1">  1        2 0.34984745E-01 0.56053365E+03</pdfrwt>
<pdfrwt beam="2">  1       -2 0.45821426E-01 0.56053365E+03</pdfrwt>
<totfact> 0.67980613E+02</totfact>
</mgrwt>
</event>
<event>
 4    1  0.1025337E-004  0.1103950E+04  0.7818608E-02  0.9201351E-01
         -2   -1    0    0    0  501 -0.00000000000E+00  0.00000000000E+00  0.27160859782E+03  0.27160859783E+03  0.25500000000E-02 0. -1.
          2   -1    0    0  501    0  0.00000000000E+00 -0.00000000000E+00 -0.11217476542E+04  0.11217476542E+04  0.25500000000E-02 0.  1.
    5000001    1    1    2    0    0 -0.38112561608E+03  0.99098815718E+02 -0.86659666985E+03  0.96607044189E+03  0.16500000000E+03 0.  0.
   -5000001    1    1    2    0    0  0.38112561608E+03 -0.99098815718E+02  0.16457613463E+02  0.42728581014E+03  0.16500000000E+03 0.  0.
<mgrwt>
<rscale>  0 0.11039498E+04</rscale>
<asrwt>0</asrwt>
<pdfrwt beam="1">  1        2 0.16024966E+00 0.11039498E+04</pdfrwt>
<pdfrwt beam="2">  1       -2 0.38801229E-01 0.11039498E+04</pdfrwt>
<totfact> 0.14759841E+02</totfact>
</mgrwt>
</event>
<event>
 4    1  0.1025337E-004  0.4191872E+03  0.7818608E-02  0.1037331E+00
          2   -1    0    0  501    0  0.00000000000E+00  0.00000000000E+00  0.31207801005E+04  0.31207801005E+04  0.25500000000E-02 0.  1.
         -2   -1    0    0    0  501 -0.00000000000E+00 -0.00000000000E+00 -0.14076442982E+02  0.14076443213E+02  0.25500000000E-02 0. -1.
    5000001    1    1    2    0    0  0.75345611374E+02  0.93592109860E+02  0.19095034435E+04  0.19203814322E+04  0.16500000000E+03 0.  0.
   -5000001    1    1    2    0    0 -0.75345611374E+02 -0.93592109860E+02  0.11972002140E+04  0.12144751116E+04  0.16500000000E+03 0.  0.
<mgrwt>
<rscale>  0 0.41918723E+03</rscale>
<asrwt>0</asrwt>
<pdfrwt beam="1">  1        2 0.44582632E+00 0.41918723E+03</pdfrwt>
<pdfrwt beam="2">  1       -2 0.20109178E-02 0.41918723E+03</pdfrwt>
<totfact> 0.18049285E+03</totfact>
</mgrwt>
</event>
<event>
 4    1  0.1025337E-004  0.7666607E+03  0.7818608E-02  0.9609569E-01
         -2   -1    0    0    0  501 -0.00000000000E+00  0.00000000000E+00  0.11788545385E+03  0.11788545387E+03  0.25500000000E-02 0. -1.
          2   -1    0    0  501    0  0.00000000000E+00 -0.00000000000E+00 -0.12464826743E+04  0.12464826743E+04  0.25500000000E-02 0.  1.
    5000001    1    1    2    0    0 -0.13732547556E+03  0.30052484145E+03 -0.74703500276E+03  0.83334252377E+03  0.16500000000E+03 0.  0.
   -5000001    1    1    2    0    0  0.13732547556E+03 -0.30052484145E+03 -0.38156221770E+03  0.53102560442E+03  0.16500000000E+03 0.  0.
<mgrwt>
<rscale>  0 0.76666075E+03</rscale>
<asrwt>0</asrwt>
<pdfrwt beam="1">  1        2 0.17806895E+00 0.76666075E+03</pdfrwt>
<pdfrwt beam="2">  1       -2 0.16840780E-01 0.76666075E+03</pdfrwt>
<totfact> 0.58146715E+02</totfact>
</mgrwt>
</event>
<event>
 4    1  0.1025337E-004  0.4608751E+03  0.7818608E-02  0.1024528E+00
         -2   -1    0    0    0  501 -0.00000000000E+00  0.00000000000E+00  0.10216329573E+04  0.10216329573E+04  0.25500000000E-02 0. -1.
          2   -1    0    0  501    0  0.00000000000E+00 -0.00000000000E+00 -0.51977037784E+02  0.51977037847E+02  0.25500000000E-02 0.  1.
    5000001    1    1    2    0    0 -0.71541437579E+02  0.21319430459E+02  0.81676183041E+03  0.83659881844E+03  0.16500000000E+03 0.  0.
   -5000001    1    1    2    0    0  0.71541437579E+02 -0.21319430459E+02  0.15289408914E+03  0.23701117674E+03  0.16500000000E+03 0.  0.
<mgrwt>
<rscale>  0 0.46087506E+03</rscale>
<asrwt>0</asrwt>
<pdfrwt beam="1">  1        2 0.74252918E-02 0.46087506E+03</pdfrwt>
<pdfrwt beam="2">  1       -2 0.14594755E+00 0.46087506E+03</pdfrwt>
<totfact> 0.31938996E+02</totfact>
</mgrwt>
</event>
<event>
 4    1  0.1025337E-004  0.6237948E+03  0.7818608E-02  0.9857233E-01
         -2   -1    0    0    0  501 -0.00000000000E+00  0.00000000000E+00  0.73335739016E+02  0.73335739060E+02  0.25500000000E-02 0. -1.
          2   -1    0    0  501    0  0.00000000000E+00 -0.00000000000E+00 -0.13265017056E+04  0.13265017056E+04  0.25500000000E-02 0.  1.
    5000001    1    1    2    0    0  0.23318597481E+03  0.15673680244E+02 -0.34779774965E+03  0.45034391054E+03  0.16500000000E+03 0.  0.
   -5000001    1    1    2    0    0 -0.23318597481E+03 -0.15673680244E+02 -0.90536821691E+03  0.94949353410E+03  0.16500000000E+03 0.  0.
<mgrwt>
<rscale>  0 0.62379478E+03</rscale>
<asrwt>0</asrwt>
<pdfrwt beam="1">  1        2 0.18950023E+00 0.62379478E+03</pdfrwt>
<pdfrwt beam="2">  1       -2 0.10476535E-01 0.62379478E+03</pdfrwt>
<totfact> 0.11666044E+03</totfact>
</mgrwt>
</event>
<event>
 4    1  0.1025337E-004  0.4484053E+03  0.7818608E-02  0.1028199E+00
         -2   -1    0    0    0  501 -0.00000000000E+00  0.00000000000E+00  0.65951910708E+02  0.65951910758E+02  0.25500000000E-02 0.  1.
          2   -1    0    0  501    0  0.00000000000E+00 -0.00000000000E+00 -0.76217405200E+03  0.76217405200E+03  0.25500000000E-02 0. -1.
    5000001    1    1    2    0    0 -0.96278217412E+02  0.73611431293E+02 -0.51690817628E+03  0.55597410072E+03  0.16500000000E+03 0.  0.
   -5000001    1    1    2    0    0  0.96278217412E+02 -0.73611431293E+02 -0.17931396501E+03  0.27215186204E+03  0.16500000000E+03 0.  0.
<mgrwt>
<rscale>  0 0.44840533E+03</rscale>
<asrwt>0</asrwt>
<pdfrwt beam="1">  1        2 0.10888200E+00 0.44840533E+03</pdfrwt>
<pdfrwt beam="2">  1       -2 0.94217020E-02 0.44840533E+03</pdfrwt>
<totfact> 0.30398048E+03</totfact>
</mgrwt>
</event>
<event>
 4    1  0.1025337E-004  0.4396324E+03  0.7818608E-02  0.1030860E+00
         -2   -1    0    0    0  501 -0.00000000000E+00  0.00000000000E+00  0.89435894154E+02  0.89435894190E+02  0.25500000000E-02 0. -1.
          2   -1    0    0  501    0  0.00000000000E+00 -0.00000000000E+00 -0.54026577765E+03  0.54026577765E+03  0.25500000000E-02 0.  1.
    5000001    1    1    2    0    0 -0.14520918735E+03 -0.19924716071E+01 -0.22844489629E+03  0.31702010768E+03  0.16500000000E+03 0.  0.
   -5000001    1    1    2    0    0  0.14520918735E+03  0.19924716071E+01 -0.22238498720E+03  0.31268156416E+03  0.16500000000E+03 0.  0.
<mgrwt>
<rscale>  0 0.43963236E+03</rscale>
<asrwt>0</asrwt>
<pdfrwt beam="1">  1        2 0.77180823E-01 0.43963236E+03</pdfrwt>
<pdfrwt beam="2">  1       -2 0.12776557E-01 0.43963236E+03</pdfrwt>
<totfact> 0.27882125E+03</totfact>
</mgrwt>
</event>
<event>
 4    1  0.1025337E-004  0.8340730E+03  0.7818608E-02  0.9511966E-01
         -2   -1    0    0    0  501 -0.00000000000E+00  0.00000000000E+00  0.64437604001E+02  0.64437604052E+02  0.25500000000E-02 0. -1.
          2   -1    0    0  501    0  0.00000000000E+00 -0.00000000000E+00 -0.26990366608E+04  0.26990366608E+04  0.25500000000E-02 0.  1.
    5000001    1    1    2    0    0  0.41498240328E+02  0.34452467837E+03 -0.78023865408E+03  0.86972220581E+03  0.16500000000E+03 0.  0.
   -5000001    1    1    2    0    0 -0.41498240328E+02 -0.34452467837E+03 -0.18543604027E+04  0.18937520590E+04  0.16500000000E+03 0.  0.
<mgrwt>
<rscale>  0 0.83407303E+03</rscale>
<asrwt>0</asrwt>
<pdfrwt beam="1">  1        2 0.38557659E+00 0.83407303E+03</pdfrwt>
<pdfrwt beam="2">  1       -2 0.92053737E-02 0.83407303E+03</pdfrwt>
<totfact> 0.27927290E+02</totfact>
</mgrwt>
</event>
<event>
 4    1  0.1025337E-004  0.5036151E+03  0.7818608E-02  0.1012840E+00
         -2   -1    0    0    0  501 -0.00000000000E+00  0.00000000000E+00  0.11892193957E+03  0.11892193960E+03  0.25500000000E-02 0. -1.
          2   -1    0    0  501    0  0.00000000000E+00 -0.00000000000E+00 -0.53318214260E+03  0.53318214261E+03  0.25500000000E-02 0.  1.
    5000001    1    1    2    0    0  0.36435348433E+02  0.17617930612E+03 -0.28711105545E+03  0.37686130165E+03  0.16500000000E+03 0.  0.
   -5000001    1    1    2    0    0 -0.36435348433E+02 -0.17617930612E+03 -0.12714914758E+03  0.27524278056E+03  0.16500000000E+03 0.  0.
<mgrwt>
<rscale>  0 0.50361515E+03</rscale>
<asrwt>0</asrwt>
<pdfrwt beam="1">  1        2 0.76168877E-01 0.50361515E+03</pdfrwt>
<pdfrwt beam="2">  1       -2 0.16988849E-01 0.50361515E+03</pdfrwt>
<totfact> 0.17598839E+03</totfact>
</mgrwt>
</event>
<event>
 4    1  0.1025337E-004  0.5381107E+03  0.7818608E-02  0.1004284E+00
          2   -1    0    0  501    0  0.00000000000E+00  0.00000000000E+00  0.23327172906E+04  0.23327172906E+04  0.25500000000E-02 0.  1.
         -2   -1    0    0    0  501 -0.00000000000E+00 -0.00000000000E+00 -0.31032814424E+02  0.31032814529E+02  0.25500000000E-02 0. -1.
    5000001    1    1    2    0    0  0.17334861737E+03  0.12332984780E+02  0.16881868123E+04  0.17051104242E+04  0.16500000000E+03 0.  0.
   -5000001    1    1    2    0    0 -0.17334861737E+03 -0.12332984780E+02  0.61349766394E+03  0.65863968095E+03  0.16500000000E+03 0.  0.
<mgrwt>
<rscale>  0 0.53811071E+03</rscale>
<asrwt>0</asrwt>
<pdfrwt beam="1">  1        2 0.33324523E+00 0.53811071E+03</pdfrwt>
<pdfrwt beam="2">  1       -2 0.44332605E-02 0.53811071E+03</pdfrwt>
<totfact> 0.13973257E+03</totfact>
</mgrwt>
</event>
<event>
 4    1  0.1025337E-004  0.7623483E+03  0.7818608E-02  0.9616174E-01
          2   -1    0    0  501    0  0.00000000000E+00  0.00000000000E+00  0.11444907759E+04  0.11444907759E+04  0.25500000000E-02 0.  1.
         -2   -1    0    0    0  501 -0.00000000000E+00 -0.00000000000E+00 -0.12695056062E+03  0.12695056064E+03  0.25500000000E-02 0. -1.
    5000001    1    1    2    0    0  0.41155115298E+02  0.34101791238E+03  0.49368733425E+03  0.62364985695E+03  0.16500000000E+03 0.  0.
   -5000001    1    1    2    0    0 -0.41155115298E+02 -0.34101791238E+03  0.52385288107E+03  0.64779147963E+03  0.16500000000E+03 0.  0.
<mgrwt>
<rscale>  0 0.76234833E+03</rscale>
<asrwt>0</asrwt>
<pdfrwt beam="1">  1        2 0.16349868E+00 0.76234833E+03</pdfrwt>
<pdfrwt beam="2">  1       -2 0.18135794E-01 0.76234833E+03</pdfrwt>
<totfact> 0.58480214E+02</totfact>
</mgrwt>
</event>
<event>
 4    1  0.1025337E-004  0.5089824E+03  0.7818608E-02  0.1011461E+00
          2   -1    0    0  501    0  0.00000000000E+00  0.00000000000E+00  0.61879125304E+03  0.61879125304E+03  0.25500000000E-02 0.  1.
         -2   -1    0    0    0  501 -0.00000000000E+00 -0.00000000000E+00 -0.10466498843E+03  0.10466498847E+03  0.25500000000E-02 0. -1.
    5000001    1    1    2    0    0  0.10289324772E+03 -0.15949669897E+03  0.31237941593E+03  0.40103879725E+03  0.16500000000E+03 0.  0.
   -5000001    1    1    2    0    0 -0.10289324772E+03  0.15949669897E+03  0.20174684867E+03  0.32241744425E+03  0.16500000000E+03 0.  0.
<mgrwt>
<rscale>  0 0.50898243E+03</rscale>
<asrwt>0</asrwt>
<pdfrwt beam="1">  1        2 0.88398750E-01 0.50898243E+03</pdfrwt>
<pdfrwt beam="2">  1       -2 0.14952141E-01 0.50898243E+03</pdfrwt>
<totfact> 0.18371001E+03</totfact>
</mgrwt>
</event>
<event>
 4    1  0.1025337E-004  0.3699342E+03  0.7818608E-02  0.1054718E+00
          2   -1    0    0  501    0  0.00000000000E+00  0.00000000000E+00  0.83537844098E+03  0.83537844099E+03  0.25500000000E-02 0.  1.
         -2   -1    0    0    0  501 -0.00000000000E+00 -0.00000000000E+00 -0.40954891397E+02  0.40954891476E+02  0.25500000000E-02 0. -1.
    5000001    1    1    2    0    0  0.65128692391E+02 -0.41800870811E+02  0.47207670533E+03  0.50603406515E+03  0.16500000000E+03 0.  0.
   -5000001    1    1    2    0    0 -0.65128692391E+02  0.41800870811E+02  0.32234684425E+03  0.37029926731E+03  0.16500000000E+03 0.  0.
<mgrwt>
<rscale>  0 0.36993423E+03</rscale>
<asrwt>0</asrwt>
<pdfrwt beam="1">  1        2 0.11933977E+00 0.36993423E+03</pdfrwt>
<pdfrwt beam="2">  1       -2 0.58506993E-02 0.36993423E+03</pdfrwt>
<totfact> 0.57120156E+03</totfact>
</mgrwt>
</event>
<event>
 4    1  0.1025337E-004  0.4354542E+03  0.7818608E-02  0.1032151E+00
          2   -1    0    0  501    0  0.00000000000E+00  0.00000000000E+00  0.86299690396E+03  0.86299690397E+03  0.25500000000E-02 0.  1.
         -2   -1    0    0    0  501 -0.00000000000E+00 -0.00000000000E+00 -0.54930773672E+02  0.54930773732E+02  0.25500000000E-02 0. -1.
    5000001    1    1    2    0    0  0.12520118285E+03 -0.49276717491E+02  0.50009202407E+03  0.54352604686E+03  0.16500000000E+03 0.  0.
   -5000001    1    1    2    0    0 -0.12520118285E+03  0.49276717491E+02  0.30797410622E+03  0.37440163084E+03  0.16500000000E+03 0.  0.
<mgrwt>
<rscale>  0 0.43545419E+03</rscale>
<asrwt>0</asrwt>
<pdfrwt beam="1">  1        2 0.12328527E+00 0.43545419E+03</pdfrwt>
<pdfrwt beam="2">  1       -2 0.78472537E-02 0.43545419E+03</pdfrwt>
<totfact> 0.34715605E+03</totfact>
</mgrwt>
</event>
<event>
 4    1  0.1025337E-004  0.6551901E+03  0.7818608E-02  0.9797089E-01
         -2   -1    0    0    0  501 -0.00000000000E+00  0.00000000000E+00  0.24884954883E+04  0.24884954883E+04  0.25500000000E-02 0. -1.
          2   -1    0    0  501    0  0.00000000000E+00 -0.00000000000E+00 -0.43125865363E+02  0.43125865438E+02  0.25500000000E-02 0.  1.
    5000001    1    1    2    0    0  0.22640828470E+03 -0.19981176900E+02  0.18742337683E+04  0.18951615174E+04  0.16500000000E+03 0.  0.
   -5000001    1    1    2    0    0 -0.22640828470E+03  0.19981176900E+02  0.57113585461E+03  0.63645983631E+03  0.16500000000E+03 0.  0.
<mgrwt>
<rscale>  0 0.65519011E+03</rscale>
<asrwt>0</asrwt>
<pdfrwt beam="1">  1        2 0.61608388E-02 0.65519011E+03</pdfrwt>
<pdfrwt beam="2">  1       -2 0.35549930E+00 0.65519011E+03</pdfrwt>
<totfact> 0.19176381E+01</totfact>
</mgrwt>
</event>
<event>
 4    1  0.1025337E-004  0.6122543E+03  0.7818608E-02  0.9880303E-01
          2   -1    0    0  501    0  0.00000000000E+00  0.00000000000E+00  0.23817781053E+03  0.23817781055E+03  0.25500000000E-02 0.  1.
         -2   -1    0    0    0  501 -0.00000000000E+00 -0.00000000000E+00 -0.39346162604E+03  0.39346162605E+03  0.25500000000E-02 0. -1.
    5000001    1    1    2    0    0  0.14122852075E+03  0.77407742987E+02 -0.28539150617E+03  0.36689339806E+03  0.16500000000E+03 0.  0.
   -5000001    1    1    2    0    0 -0.14122852075E+03 -0.77407742987E+02  0.13010769067E+03  0.26474603853E+03  0.16500000000E+03 0.  0.
<mgrwt>
<rscale>  0 0.61225429E+03</rscale>
<asrwt>0</asrwt>
<pdfrwt beam="1">  1        2 0.34025402E-01 0.61225429E+03</pdfrwt>
<pdfrwt beam="2">  1       -2 0.56208803E-01 0.61225429E+03</pdfrwt>
<totfact> 0.46261298E+02</totfact>
</mgrwt>
</event>
<event>
 4    1  0.1025337E-004  0.4022198E+03  0.7818608E-02  0.1043014E+00
         -2   -1    0    0    0  501 -0.00000000000E+00  0.00000000000E+00  0.32103966950E+02  0.32103967051E+02  0.25500000000E-02 0. -1.
          2   -1    0    0  501    0  0.00000000000E+00 -0.00000000000E+00 -0.12598194369E+04  0.12598194369E+04  0.25500000000E-02 0.  1.
    5000001    1    1    2    0    0 -0.70079365304E+01  0.90087901547E+02 -0.38548458844E+03  0.42893858430E+03  0.16500000000E+03 0.  0.
   -5000001    1    1    2    0    0  0.70079365304E+01 -0.90087901547E+02 -0.84223088156E+03  0.86298481970E+03  0.16500000000E+03 0.  0.
<mgrwt>
<rscale>  0 0.40221985E+03</rscale>
<asrwt>0</asrwt>
<pdfrwt beam="1">  1        2 0.17997417E+00 0.40221985E+03</pdfrwt>
<pdfrwt beam="2">  1       -2 0.45862818E-02 0.40221985E+03</pdfrwt>
<totfact> 0.46683382E+03</totfact>
</mgrwt>
</event>
<event>
 4    1  0.1025337E-004  0.3878515E+03  0.7818608E-02  0.1048069E+00
         -2   -1    0    0    0  501 -0.00000000000E+00  0.00000000000E+00  0.24414439825E+02  0.24414439958E+02  0.25500000000E-02 0. -1.
          2   -1    0    0  501    0  0.00000000000E+00 -0.00000000000E+00 -0.15403672779E+04  0.15403672779E+04  0.25500000000E-02 0.  1.
    5000001    1    1    2    0    0 -0.90343757751E+02 -0.10159385744E+02 -0.94360648847E+03  0.96222835791E+03  0.16500000000E+03 0.  0.
   -5000001    1    1    2    0    0  0.90343757751E+02  0.10159385744E+02 -0.57234634964E+03  0.60255335999E+03  0.16500000000E+03 0.  0.
<mgrwt>
<rscale>  0 0.38785154E+03</rscale>
<asrwt>0</asrwt>
<pdfrwt beam="1">  1        2 0.22005241E+00 0.38785154E+03</pdfrwt>
<pdfrwt beam="2">  1       -2 0.34877781E-02 0.38785154E+03</pdfrwt>
<totfact> 0.50464452E+03</totfact>
</mgrwt>
</event>
<event>
 4    1  0.1025337E-004  0.1053243E+04  0.7818608E-02  0.9252002E-01
          2   -1    0    0  501    0  0.00000000000E+00  0.00000000000E+00  0.10045530973E+04  0.10045530973E+04  0.25500000000E-02 0.  1.
         -2   -1    0    0    0  501 -0.00000000000E+00 -0.00000000000E+00 -0.27607319148E+03  0.27607319150E+03  0.25500000000E-02 0. -1.
    5000001    1    1    2    0    0 -0.60540621115E+02  0.48944752169E+03  0.26337879931E+03  0.58293862046E+03  0.16500000000E+03 0.  0.
   -5000001    1    1    2    0    0  0.60540621115E+02 -0.48944752169E+03  0.46510110653E+03  0.69768766836E+03  0.16500000000E+03 0.  0.
<mgrwt>
<rscale>  0 0.10532430E+04</rscale>
<asrwt>0</asrwt>
<pdfrwt beam="1">  1        2 0.14350758E+00 0.10532430E+04</pdfrwt>
<pdfrwt beam="2">  1       -2 0.39439029E-01 0.10532430E+04</pdfrwt>
<totfact> 0.16865162E+02</totfact>
</mgrwt>
</event>
<event>
 4    1  0.1025337E-004  0.6742906E+03  0.7818608E-02  0.9762238E-01
         -2   -1    0    0    0  501 -0.00000000000E+00  0.00000000000E+00  0.14176572741E+03  0.14176572744E+03  0.25500000000E-02 0. -1.
          2   -1    0    0  501    0  0.00000000000E+00 -0.00000000000E+00 -0.80179427880E+03  0.80179427881E+03  0.25500000000E-02 0.  1.
    5000001    1    1    2    0    0  0.17954805540E+03 -0.21807717382E+03 -0.44409924941E+03  0.55158344905E+03  0.16500000000E+03 0.  0.
   -5000001    1    1    2    0    0 -0.17954805540E+03  0.21807717382E+03 -0.21592930198E+03  0.39197655720E+03  0.16500000000E+03 0.  0.
<mgrwt>
<rscale>  0 0.67429059E+03</rscale>
<asrwt>0</asrwt>
<pdfrwt beam="1">  1        2 0.11454204E+00 0.67429059E+03</pdfrwt>
<pdfrwt beam="2">  1       -2 0.20252247E-01 0.67429059E+03</pdfrwt>
<totfact> 0.79375560E+02</totfact>
</mgrwt>
</event>
<event>
 4    1  0.1025337E-004  0.4053795E+03  0.7818608E-02  0.1041933E+00
         -2   -1    0    0    0  501 -0.00000000000E+00  0.00000000000E+00  0.66578901020E+02  0.66578901069E+02  0.25500000000E-02 0. -1.
          2   -1    0    0  501    0  0.00000000000E+00 -0.00000000000E+00 -0.61705929856E+03  0.61705929857E+03  0.25500000000E-02 0.  1.
    5000001    1    1    2    0    0 -0.85641057211E+02 -0.40350265617E+02 -0.39323620872E+03  0.43683206208E+03  0.16500000000E+03 0.  0.
   -5000001    1    1    2    0    0  0.85641057211E+02  0.40350265617E+02 -0.15724418882E+03  0.24680613755E+03  0.16500000000E+03 0.  0.
<mgrwt>
<rscale>  0 0.40537948E+03</rscale>
<asrwt>0</asrwt>
<pdfrwt beam="1">  1        2 0.88151325E-01 0.40537948E+03</pdfrwt>
<pdfrwt beam="2">  1       -2 0.95112719E-02 0.40537948E+03</pdfrwt>
<totfact> 0.38551237E+03</totfact>
</mgrwt>
</event>
<event>
 4    1  0.1025337E-004  0.3635175E+03  0.7818608E-02  0.1057200E+00
         -2   -1    0    0    0  501 -0.00000000000E+00  0.00000000000E+00  0.11731007531E+02  0.11731007808E+02  0.25500000000E-02 0. -1.
          2   -1    0    0  501    0  0.00000000000E+00 -0.00000000000E+00 -0.28161473185E+04  0.28161473185E+04  0.25500000000E-02 0.  1.
    5000001    1    1    2    0    0  0.71060567690E+02  0.20797074010E+02 -0.15433366296E+04  0.15538967387E+04  0.16500000000E+03 0.  0.
   -5000001    1    1    2    0    0 -0.71060567690E+02 -0.20797074010E+02 -0.12610796815E+04  0.12739815876E+04  0.16500000000E+03 0.  0.
<mgrwt>
<rscale>  0 0.36351751E+03</rscale>
<asrwt>0</asrwt>
<pdfrwt beam="1">  1        2 0.40230633E+00 0.36351751E+03</pdfrwt>
<pdfrwt beam="2">  1       -2 0.16758600E-02 0.36351751E+03</pdfrwt>
<totfact> 0.34559417E+03</totfact>
</mgrwt>
</event>
<event>
 4    1  0.1025337E-004  0.6350040E+03  0.7818608E-02  0.9835332E-01
         -2   -1    0    0    0  501 -0.00000000000E+00  0.00000000000E+00  0.25562951361E+03  0.25562951363E+03  0.25500000000E-02 0. -1.
          2   -1    0    0  501    0  0.00000000000E+00 -0.00000000000E+00 -0.39435005172E+03  0.39435005173E+03  0.25500000000E-02 0.  1.
    5000001    1    1    2    0    0  0.26174780439E+03  0.65696376772E+02 -0.97477808584E+02  0.33099071012E+03  0.16500000000E+03 0.  0.
   -5000001    1    1    2    0    0 -0.26174780439E+03 -0.65696376772E+02 -0.41242729522E+02  0.31898885523E+03  0.16500000000E+03 0.  0.
<mgrwt>
<rscale>  0 0.63500397E+03</rscale>
<asrwt>0</asrwt>
<pdfrwt beam="1">  1        2 0.56335722E-01 0.63500397E+03</pdfrwt>
<pdfrwt beam="2">  1       -2 0.36518502E-01 0.63500397E+03</pdfrwt>
<totfact> 0.62392888E+02</totfact>
</mgrwt>
</event>
<event>
 4    1  0.1025337E-004  0.6151280E+03  0.7818608E-02  0.9874508E-01
          2   -1    0    0  501    0  0.00000000000E+00  0.00000000000E+00  0.47429453341E+03  0.47429453341E+03  0.25500000000E-02 0.  1.
         -2   -1    0    0    0  501 -0.00000000000E+00 -0.00000000000E+00 -0.19944487045E+03  0.19944487047E+03  0.25500000000E-02 0. -1.
    5000001    1    1    2    0    0 -0.73174994929E+02  0.21042812290E+03 -0.84413956965E+01  0.27736407833E+03  0.16500000000E+03 0.  0.
   -5000001    1    1    2    0    0  0.73174994929E+02 -0.21042812290E+03  0.28329105865E+03  0.39637532555E+03  0.16500000000E+03 0.  0.
<mgrwt>
<rscale>  0 0.61512799E+03</rscale>
<asrwt>0</asrwt>
<pdfrwt beam="1">  1        2 0.67756362E-01 0.61512799E+03</pdfrwt>
<pdfrwt beam="2">  1       -2 0.28492124E-01 0.61512799E+03</pdfrwt>
<totfact> 0.80755382E+02</totfact>
</mgrwt>
</event>
<event>
 4    1  0.1025337E-004  0.3720233E+03  0.7818608E-02  0.1053922E+00
         -2   -1    0    0    0  501 -0.00000000000E+00  0.00000000000E+00  0.27822177079E+02  0.27822177196E+02  0.25500000000E-02 0. -1.
          2   -1    0    0  501    0  0.00000000000E+00 -0.00000000000E+00 -0.12436243075E+04  0.12436243075E+04  0.25500000000E-02 0.  1.
    5000001    1    1    2    0    0  0.61971320901E+02  0.58842338960E+02 -0.57880675961E+03  0.60790223757E+03  0.16500000000E+03 0.  0.
   -5000001    1    1    2    0    0 -0.61971320901E+02 -0.58842338960E+02 -0.63699537086E+03  0.66354424718E+03  0.16500000000E+03 0.  0.
<mgrwt>
<rscale>  0 0.37202331E+03</rscale>
<asrwt>0</asrwt>
<pdfrwt beam="1">  1        2 0.17766058E+00 0.37202331E+03</pdfrwt>
<pdfrwt beam="2">  1       -2 0.39745975E-02 0.37202331E+03</pdfrwt>
<totfact> 0.59193113E+03</totfact>
</mgrwt>
</event>
<event>
 4    1  0.1025337E-004  0.4759233E+03  0.7818608E-02  0.1020262E+00
         -2   -1    0    0    0  501 -0.00000000000E+00  0.00000000000E+00  0.33439684820E+02  0.33439684918E+02  0.25500000000E-02 0. -1.
          2   -1    0    0  501    0  0.00000000000E+00 -0.00000000000E+00 -0.16933699030E+04  0.16933699030E+04  0.25500000000E-02 0.  1.
    5000001    1    1    2    0    0  0.28341370278E+02 -0.16640546712E+03 -0.93922219056E+03  0.96843034649E+03  0.16500000000E+03 0.  0.
   -5000001    1    1    2    0    0 -0.28341370278E+02  0.16640546712E+03 -0.72070802758E+03  0.75837924139E+03  0.16500000000E+03 0.  0.
<mgrwt>
<rscale>  0 0.47592334E+03</rscale>
<asrwt>0</asrwt>
<pdfrwt beam="1">  1        2 0.24190993E+00 0.47592334E+03</pdfrwt>
<pdfrwt beam="2">  1       -2 0.47770989E-02 0.47592334E+03</pdfrwt>
<totfact> 0.26113019E+03</totfact>
</mgrwt>
</event>
<event>
 4    1  0.1025337E-004  0.6550961E+03  0.7818608E-02  0.9797264E-01
          2   -1    0    0  501    0  0.00000000000E+00  0.00000000000E+00  0.92394876232E+02  0.92394876267E+02  0.25500000000E-02 0.  1.
         -2   -1    0    0    0  501 -0.00000000000E+00 -0.00000000000E+00 -0.11611867938E+04  0.11611867938E+04  0.25500000000E-02 0. -1.
    5000001    1    1    2    0    0 -0.39120568367E+02 -0.25035456238E+03 -0.77534721162E+03  0.83222360237E+03  0.16500000000E+03 0.  0.
   -5000001    1    1    2    0    0  0.39120568367E+02  0.25035456238E+03 -0.29344470596E+03  0.42135806772E+03  0.16500000000E+03 0.  0.
<mgrwt>
<rscale>  0 0.65509605E+03</rscale>
<asrwt>0</asrwt>
<pdfrwt beam="1">  1        2 0.13199269E-01 0.65509605E+03</pdfrwt>
<pdfrwt beam="2">  1       -2 0.16588382E+00 0.65509605E+03</pdfrwt>
<totfact> 0.10883109E+02</totfact>
</mgrwt>
</event>
<event>
 4    1  0.1025337E-004  0.3558790E+03  0.7818608E-02  0.1060228E+00
         -2   -1    0    0    0  501 -0.00000000000E+00  0.00000000000E+00  0.34812207841E+02  0.34812207935E+02  0.25500000000E-02 0. -1.
          2   -1    0    0  501    0  0.00000000000E+00 -0.00000000000E+00 -0.90952167250E+03  0.90952167251E+03  0.25500000000E-02 0.  1.
    5000001    1    1    2    0    0 -0.43410767477E+02 -0.78340276681E+00 -0.57141290721E+03  0.59634119343E+03  0.16500000000E+03 0.  0.
   -5000001    1    1    2    0    0  0.43410767477E+02  0.78340276681E+00 -0.30329655746E+03  0.34799268702E+03  0.16500000000E+03 0.  0.
<mgrwt>
<rscale>  0 0.35587895E+03</rscale>
<asrwt>0</asrwt>
<pdfrwt beam="1">  1        2 0.12993165E+00 0.35587895E+03</pdfrwt>
<pdfrwt beam="2">  1       -2 0.49731731E-02 0.35587895E+03</pdfrwt>
<totfact> 0.65633609E+03</totfact>
</mgrwt>
</event>
<event>
 4    1  0.1025337E-004  0.5336102E+03  0.7818608E-02  0.1005360E+00
         -2   -1    0    0    0  501 -0.00000000000E+00  0.00000000000E+00  0.73276006584E+02  0.73276006629E+02  0.25500000000E-02 0. -1.
          2   -1    0    0  501    0  0.00000000000E+00 -0.00000000000E+00 -0.97146331111E+03  0.97146331111E+03  0.25500000000E-02 0.  1.
    5000001    1    1    2    0    0  0.90655866372E+02  0.13003715774E+03 -0.18041707795E+03  0.29138200102E+03  0.16500000000E+03 0.  0.
   -5000001    1    1    2    0    0 -0.90655866372E+02 -0.13003715774E+03 -0.71777022657E+03  0.75335731672E+03  0.16500000000E+03 0.  0.
<mgrwt>
<rscale>  0 0.53361016E+03</rscale>
<asrwt>0</asrwt>
<pdfrwt beam="1">  1        2 0.13878046E+00 0.53361016E+03</pdfrwt>
<pdfrwt beam="2">  1       -2 0.10468002E-01 0.53361016E+03</pdfrwt>
<totfact> 0.18693291E+03</totfact>
</mgrwt>
</event>
<event>
 4    1  0.1025337E-004  0.4613716E+03  0.7818608E-02  0.1024384E+00
          2   -1    0    0  501    0  0.00000000000E+00  0.00000000000E+00  0.42144573805E+03  0.42144573805E+03  0.25500000000E-02 0.  1.
         -2   -1    0    0    0  501 -0.00000000000E+00 -0.00000000000E+00 -0.12626999028E+03  0.12626999031E+03  0.25500000000E-02 0. -1.
    5000001    1    1    2    0    0  0.14238217042E+03  0.95730587913E+01  0.58539040935E+02  0.22586753910E+03  0.16500000000E+03 0.  0.
   -5000001    1    1    2    0    0 -0.14238217042E+03 -0.95730587913E+01  0.23663670683E+03  0.32184818926E+03  0.16500000000E+03 0.  0.
<mgrwt>
<rscale>  0 0.46137165E+03</rscale>
<asrwt>0</asrwt>
<pdfrwt beam="1">  1        2 0.60206534E-01 0.46137165E+03</pdfrwt>
<pdfrwt beam="2">  1       -2 0.18038570E-01 0.46137165E+03</pdfrwt>
<totfact> 0.20678146E+03</totfact>
</mgrwt>
</event>
<event>
 4    1  0.1025337E-004  0.3695070E+03  0.7818608E-02  0.1054882E+00
         -2   -1    0    0    0  501 -0.00000000000E+00  0.00000000000E+00  0.19469666275E+02  0.19469666442E+02  0.25500000000E-02 0. -1.
          2   -1    0    0  501    0  0.00000000000E+00 -0.00000000000E+00 -0.17531809310E+04  0.17531809310E+04  0.25500000000E-02 0.  1.
    5000001    1    1    2    0    0 -0.50576870398E+02  0.40817745862E+02 -0.61828397602E+03  0.64321394823E+03  0.16500000000E+03 0.  0.
   -5000001    1    1    2    0    0  0.50576870398E+02 -0.40817745862E+02 -0.11154272887E+04  0.11294366492E+04  0.16500000000E+03 0.  0.
<mgrwt>
<rscale>  0 0.36950696E+03</rscale>
<asrwt>0</asrwt>
<pdfrwt beam="1">  1        2 0.25045432E+00 0.36950696E+03</pdfrwt>
<pdfrwt beam="2">  1       -2 0.27813820E-02 0.36950696E+03</pdfrwt>
<totfact> 0.55438328E+03</totfact>
</mgrwt>
</event>
<event>
 4    1  0.1025337E-004  0.5406267E+03  0.7818608E-02  0.1003687E+00
          2   -1    0    0  501    0  0.00000000000E+00  0.00000000000E+00  0.13392510219E+03  0.13392510222E+03  0.25500000000E-02 0.  1.
         -2   -1    0    0    0  501 -0.00000000000E+00 -0.00000000000E+00 -0.54559833397E+03  0.54559833398E+03  0.25500000000E-02 0. -1.
    5000001    1    1    2    0    0  0.19594900806E+03  0.57288380816E+01 -0.97599416481E+02  0.27418876607E+03  0.16500000000E+03 0.  0.
   -5000001    1    1    2    0    0 -0.19594900806E+03 -0.57288380816E+01 -0.31407381530E+03  0.40533467012E+03  0.16500000000E+03 0.  0.
<mgrwt>
<rscale>  0 0.54062672E+03</rscale>
<asrwt>0</asrwt>
<pdfrwt beam="1">  1        2 0.19132158E-01 0.54062672E+03</pdfrwt>
<pdfrwt beam="2">  1       -2 0.77942618E-01 0.54062672E+03</pdfrwt>
<totfact> 0.44294422E+02</totfact>
</mgrwt>
</event>
<event>
 4    1  0.1025337E-004  0.5509686E+03  0.7818608E-02  0.1001270E+00
         -2   -1    0    0    0  501 -0.00000000000E+00  0.00000000000E+00  0.46638231813E+02  0.46638231882E+02  0.25500000000E-02 0. -1.
          2   -1    0    0  501    0  0.00000000000E+00 -0.00000000000E+00 -0.16272399238E+04  0.16272399238E+04  0.25500000000E-02 0.  1.
    5000001    1    1    2    0    0  0.64705968410E+02 -0.20970474871E+03 -0.72212022681E+03  0.77255780751E+03  0.16500000000E+03 0.  0.
   -5000001    1    1    2    0    0 -0.64705968410E+02  0.20970474871E+03 -0.85848146520E+03  0.90132034820E+03  0.16500000000E+03 0.  0.
<mgrwt>
<rscale>  0 0.55096858E+03</rscale>
<asrwt>0</asrwt>
<pdfrwt beam="1">  1        2 0.23246281E+00 0.55096858E+03</pdfrwt>
<pdfrwt beam="2">  1       -2 0.66626056E-02 0.55096858E+03</pdfrwt>
<totfact> 0.16778250E+03</totfact>
</mgrwt>
</event>
<event>
 4    1  0.1025337E-004  0.7013378E+03  0.7818608E-02  0.9714947E-01
          2   -1    0    0  501    0  0.00000000000E+00  0.00000000000E+00  0.10036862391E+03  0.10036862394E+03  0.25500000000E-02 0.  1.
         -2   -1    0    0    0  501 -0.00000000000E+00 -0.00000000000E+00 -0.12251706150E+04  0.12251706150E+04  0.25500000000E-02 0. -1.
    5000001    1    1    2    0    0 -0.18038078870E+03  0.38933766846E+02 -0.92966613512E+02  0.26442552517E+03  0.16500000000E+03 0.  0.
   -5000001    1    1    2    0    0  0.18038078870E+03 -0.38933766846E+02 -0.10318353776E+04  0.10611137138E+04  0.16500000000E+03 0.  0.
<mgrwt>
<rscale>  0 0.70133783E+03</rscale>
<asrwt>0</asrwt>
<pdfrwt beam="1">  1        2 0.14338376E-01 0.70133783E+03</pdfrwt>
<pdfrwt beam="2">  1       -2 0.17502437E+00 0.70133783E+03</pdfrwt>
<totfact> 0.84572939E+01</totfact>
</mgrwt>
</event>
<event>
 4    1  0.1025337E-004  0.1047802E+04  0.7818608E-02  0.9257616E-01
         -2   -1    0    0    0  501 -0.00000000000E+00  0.00000000000E+00  0.81708183405E+03  0.81708183405E+03  0.25500000000E-02 0. -1.
          2   -1    0    0  501    0  0.00000000000E+00 -0.00000000000E+00 -0.33591793906E+03  0.33591793907E+03  0.25500000000E-02 0.  1.
    5000001    1    1    2    0    0  0.26716482906E+02  0.47219709598E+03  0.71666072669E+02  0.50600878834E+03  0.16500000000E+03 0.  0.
   -5000001    1    1    2    0    0 -0.26716482906E+02 -0.47219709598E+03  0.40949782232E+03  0.64699098478E+03  0.16500000000E+03 0.  0.
<mgrwt>
<rscale>  0 0.10478024E+04</rscale>
<asrwt>0</asrwt>
<pdfrwt beam="1">  1        2 0.47988277E-01 0.10478024E+04</pdfrwt>
<pdfrwt beam="2">  1       -2 0.11672598E+00 0.10478024E+04</pdfrwt>
<totfact> 0.59543466E+01</totfact>
</mgrwt>
</event>
<event>
 4    1  0.1025337E-004  0.4887832E+03  0.7818608E-02  0.1016749E+00
         -2   -1    0    0    0  501 -0.00000000000E+00  0.00000000000E+00  0.14084243100E+03  0.14084243102E+03  0.25500000000E-02 0. -1.
          2   -1    0    0  501    0  0.00000000000E+00 -0.00000000000E+00 -0.42407151902E+03  0.42407151903E+03  0.25500000000E-02 0.  1.
    5000001    1    1    2    0    0  0.14457663739E+03 -0.89156273291E+02 -0.21144952390E+03  0.31746991401E+03  0.16500000000E+03 0.  0.
   -5000001    1    1    2    0    0 -0.14457663739E+03  0.89156273291E+02 -0.71779564132E+02  0.24744403604E+03  0.16500000000E+03 0.  0.
<mgrwt>
<rscale>  0 0.48878324E+03</rscale>
<asrwt>0</asrwt>
<pdfrwt beam="1">  1        2 0.60581645E-01 0.48878324E+03</pdfrwt>
<pdfrwt beam="2">  1       -2 0.20120347E-01 0.48878324E+03</pdfrwt>
<totfact> 0.17022870E+03</totfact>
</mgrwt>
</event>
<event>
 4    1  0.1025337E-004  0.5592931E+03  0.7818608E-02  0.9993655E-01
         -2   -1    0    0    0  501 -0.00000000000E+00  0.00000000000E+00  0.93129223198E+02  0.93129223233E+02  0.25500000000E-02 0. -1.
          2   -1    0    0  501    0  0.00000000000E+00 -0.00000000000E+00 -0.83971703370E+03  0.83971703370E+03  0.25500000000E-02 0.  1.
    5000001    1    1    2    0    0  0.15138009866E+03  0.11905190948E+03 -0.56985110361E+03  0.62373437592E+03  0.16500000000E+03 0.  0.
   -5000001    1    1    2    0    0 -0.15138009866E+03 -0.11905190948E+03 -0.17673670688E+03  0.30911188101E+03  0.16500000000E+03 0.  0.
<mgrwt>
<rscale>  0 0.55929311E+03</rscale>
<asrwt>0</asrwt>
<pdfrwt beam="1">  1        2 0.11995957E+00 0.55929311E+03</pdfrwt>
<pdfrwt beam="2">  1       -2 0.13304175E-01 0.55929311E+03</pdfrwt>
<totfact> 0.15321973E+03</totfact>
</mgrwt>
</event>
<event>
 4    1  0.1025337E-004  0.6361955E+03  0.7818608E-02  0.9833033E-01
          2   -1    0    0  501    0  0.00000000000E+00  0.00000000000E+00  0.13362888907E+04  0.13362888907E+04  0.25500000000E-02 0.  1.
         -2   -1    0    0    0  501 -0.00000000000E+00 -0.00000000000E+00 -0.75721780468E+02  0.75721780510E+02  0.25500000000E-02 0. -1.
    5000001    1    1    2    0    0  0.21928572711E+03  0.75655078425E+02  0.94534729514E+03  0.98727728093E+03  0.16500000000E+03 0.  0.
   -5000001    1    1    2    0    0 -0.21928572711E+03 -0.75655078425E+02  0.31521981513E+03  0.42473339033E+03  0.16500000000E+03 0.  0.
<mgrwt>
<rscale>  0 0.63619549E+03</rscale>
<asrwt>0</asrwt>
<pdfrwt beam="1">  1        2 0.19089839E+00 0.63619549E+03</pdfrwt>
<pdfrwt beam="2">  1       -2 0.10817398E-01 0.63619549E+03</pdfrwt>
<totfact> 0.10933857E+03</totfact>
</mgrwt>
</event>
<event>
 4    1  0.1025337E-004  0.4390209E+03  0.7818608E-02  0.1031048E+00
          2   -1    0    0  501    0  0.00000000000E+00  0.00000000000E+00  0.88194772081E+03  0.88194772082E+03  0.25500000000E-02 0.  1.
         -2   -1    0    0    0  501 -0.00000000000E+00 -0.00000000000E+00 -0.54634574543E+02  0.54634574603E+02  0.25500000000E-02 0. -1.
    5000001    1    1    2    0    0  0.12668544665E+03 -0.91688792159E+01  0.56186740651E+03  0.59921052497E+03  0.16500000000E+03 0.  0.
   -5000001    1    1    2    0    0 -0.12668544665E+03  0.91688792159E+01  0.26544573976E+03  0.33737177045E+03  0.16500000000E+03 0.  0.
<mgrwt>
<rscale>  0 0.43902090E+03</rscale>
<asrwt>0</asrwt>
<pdfrwt beam="1">  1        2 0.12599252E+00 0.43902090E+03</pdfrwt>
<pdfrwt beam="2">  1       -2 0.78049397E-02 0.43902090E+03</pdfrwt>
<totfact> 0.34037297E+03</totfact>
</mgrwt>
</event>
<event>
 4    1  0.1025337E-004  0.4756574E+03  0.7818608E-02  0.1020336E+00
          2   -1    0    0  501    0  0.00000000000E+00  0.00000000000E+00  0.95586160960E+03  0.95586160960E+03  0.25500000000E-02 0.  1.
         -2   -1    0    0    0  501 -0.00000000000E+00 -0.00000000000E+00 -0.59174353092E+02  0.59174353147E+02  0.25500000000E-02 0. -1.
    5000001    1    1    2    0    0 -0.89338951563E+02  0.10806987707E+03  0.23842241891E+03  0.32207265707E+03  0.16500000000E+03 0.  0.
   -5000001    1    1    2    0    0  0.89338951563E+02 -0.10806987707E+03  0.65826483760E+03  0.69296330568E+03  0.16500000000E+03 0.  0.
<mgrwt>
<rscale>  0 0.47565741E+03</rscale>
<asrwt>0</asrwt>
<pdfrwt beam="1">  1        2 0.13655165E+00 0.47565741E+03</pdfrwt>
<pdfrwt beam="2">  1       -2 0.84534796E-02 0.47565741E+03</pdfrwt>
<totfact> 0.26947569E+03</totfact>
</mgrwt>
</event>
<event>
 4    1  0.1025337E-004  0.5348831E+03  0.7818608E-02  0.1005055E+00
          2   -1    0    0  501    0  0.00000000000E+00  0.00000000000E+00  0.14334107178E+04  0.14334107178E+04  0.25500000000E-02 0.  1.
         -2   -1    0    0    0  501 -0.00000000000E+00 -0.00000000000E+00 -0.49898458333E+02  0.49898458398E+02  0.25500000000E-02 0. -1.
    5000001    1    1    2    0    0  0.19535690800E+03 -0.70816716959E+02  0.59892171928E+03  0.65506606898E+03  0.16500000000E+03 0.  0.
   -5000001    1    1    2    0    0 -0.19535690800E+03  0.70816716959E+02  0.78459054017E+03  0.82824310720E+03  0.16500000000E+03 0.  0.
<mgrwt>
<rscale>  0 0.53488311E+03</rscale>
<asrwt>0</asrwt>
<pdfrwt beam="1">  1        2 0.20477295E+00 0.53488311E+03</pdfrwt>
<pdfrwt beam="2">  1       -2 0.71283514E-02 0.53488311E+03</pdfrwt>
<totfact> 0.19010035E+03</totfact>
</mgrwt>
</event>
<event>
 4    1  0.1025337E-004  0.6840179E+03  0.7818608E-02  0.9744961E-01
         -2   -1    0    0    0  501 -0.00000000000E+00  0.00000000000E+00  0.69474709429E+02  0.69474709476E+02  0.25500000000E-02 0. -1.
          2   -1    0    0  501    0  0.00000000000E+00 -0.00000000000E+00 -0.16836361438E+04  0.16836361438E+04  0.25500000000E-02 0.  1.
    5000001    1    1    2    0    0 -0.14515674242E+02  0.26919015139E+03 -0.11419478416E+04  0.11848813929E+04  0.16500000000E+03 0.  0.
   -5000001    1    1    2    0    0  0.14515674242E+02 -0.26919015139E+03 -0.47221359281E+03  0.56822946038E+03  0.16500000000E+03 0.  0.
<mgrwt>
<rscale>  0 0.68401793E+03</rscale>
<asrwt>0</asrwt>
<pdfrwt beam="1">  1        2 0.24051942E+00 0.68401793E+03</pdfrwt>
<pdfrwt beam="2">  1       -2 0.99249596E-02 0.68401793E+03</pdfrwt>
<totfact> 0.82602233E+02</totfact>
</mgrwt>
</event>
<event>
 4    1  0.1025337E-004  0.7866802E+03  0.7818608E-02  0.9579500E-01
         -2   -1    0    0    0  501 -0.00000000000E+00  0.00000000000E+00  0.19735100496E+03  0.19735100497E+03  0.25500000000E-02 0. -1.
          2   -1    0    0  501    0  0.00000000000E+00 -0.00000000000E+00 -0.78396573145E+03  0.78396573146E+03  0.25500000000E-02 0.  1.
    5000001    1    1    2    0    0 -0.23953214106E+03 -0.25680279769E+03 -0.37384152460E+03  0.53880034244E+03  0.16500000000E+03 0.  0.
   -5000001    1    1    2    0    0  0.23953214106E+03  0.25680279769E+03 -0.21277320189E+03  0.44251639399E+03  0.16500000000E+03 0.  0.
<mgrwt>
<rscale>  0 0.78668018E+03</rscale>
<asrwt>0</asrwt>
<pdfrwt beam="1">  1        2 0.11199510E+00 0.78668018E+03</pdfrwt>
<pdfrwt beam="2">  1       -2 0.28193001E-01 0.78668018E+03</pdfrwt>
<totfact> 0.45016107E+02</totfact>
</mgrwt>
</event>
<event>
 4    1  0.1025337E-004  0.6804539E+03  0.7818608E-02  0.9751255E-01
         -2   -1    0    0    0  501 -0.00000000000E+00  0.00000000000E+00  0.80089910289E+03  0.80089910289E+03  0.25500000000E-02 0. -1.
          2   -1    0    0  501    0  0.00000000000E+00 -0.00000000000E+00 -0.14453051922E+03  0.14453051924E+03  0.25500000000E-02 0.  1.
    5000001    1    1    2    0    0  0.68337642220E+02  0.26674476060E+03  0.17156524955E+03  0.36398136698E+03  0.16500000000E+03 0.  0.
   -5000001    1    1    2    0    0 -0.68337642220E+02 -0.26674476060E+03  0.48480333412E+03  0.58144825515E+03  0.16500000000E+03 0.  0.
<mgrwt>
<rscale>  0 0.68045386E+03</rscale>
<asrwt>0</asrwt>
<pdfrwt beam="1">  1        2 0.20647216E-01 0.68045386E+03</pdfrwt>
<pdfrwt beam="2">  1       -2 0.11441416E+00 0.68045386E+03</pdfrwt>
<totfact> 0.16524710E+02</totfact>
</mgrwt>
</event>
<event>
 4    1  0.1025337E-004  0.4006690E+03  0.7818608E-02  0.1043548E+00
         -2   -1    0    0    0  501 -0.00000000000E+00  0.00000000000E+00  0.40999023670E+02  0.40999023749E+02  0.25500000000E-02 0. -1.
          2   -1    0    0  501    0  0.00000000000E+00 -0.00000000000E+00 -0.97889924051E+03  0.97889924051E+03  0.25500000000E-02 0.  1.
    5000001    1    1    2    0    0 -0.72699795093E+02 -0.66880523540E+02 -0.32607022627E+03  0.37855654412E+03  0.16500000000E+03 0.  0.
   -5000001    1    1    2    0    0  0.72699795093E+02  0.66880523540E+02 -0.61182999057E+03  0.64134172014E+03  0.16500000000E+03 0.  0.
<mgrwt>
<rscale>  0 0.40066901E+03</rscale>
<asrwt>0</asrwt>
<pdfrwt beam="1">  1        2 0.13984273E+00 0.40066901E+03</pdfrwt>
<pdfrwt beam="2">  1       -2 0.58570040E-02 0.40066901E+03</pdfrwt>
<totfact> 0.46330117E+03</totfact>
</mgrwt>
</event>
<event>
 4    1  0.1025337E-004  0.5579844E+03  0.7818608E-02  0.9996626E-01
         -2   -1    0    0    0  501 -0.00000000000E+00  0.00000000000E+00  0.79641645147E+02  0.79641645187E+02  0.25500000000E-02 0. -1.
          2   -1    0    0  501    0  0.00000000000E+00 -0.00000000000E+00 -0.97733586700E+03  0.97733586701E+03  0.25500000000E-02 0.  1.
    5000001    1    1    2    0    0  0.91439973381E+02 -0.95564430396E+02 -0.79357348311E+03  0.82126591442E+03  0.16500000000E+03 0.  0.
   -5000001    1    1    2    0    0 -0.91439973381E+02  0.95564430396E+02 -0.10412073875E+03  0.23571159778E+03  0.16500000000E+03 0.  0.
<mgrwt>
<rscale>  0 0.55798436E+03</rscale>
<asrwt>0</asrwt>
<pdfrwt beam="1">  1        2 0.13961940E+00 0.55798436E+03</pdfrwt>
<pdfrwt beam="2">  1       -2 0.11377378E-01 0.55798436E+03</pdfrwt>
<totfact> 0.16181318E+03</totfact>
</mgrwt>
</event>
<event>
 4    1  0.1025337E-004  0.4755137E+03  0.7818608E-02  0.1020375E+00
          2   -1    0    0  501    0  0.00000000000E+00  0.00000000000E+00  0.43249005121E+02  0.43249005196E+02  0.25500000000E-02 0.  1.
         -2   -1    0    0    0  501 -0.00000000000E+00 -0.00000000000E+00 -0.13070431778E+04  0.13070431778E+04  0.25500000000E-02 0. -1.
    5000001    1    1    2    0    0  0.86156412664E+02 -0.71026529504E+02 -0.10003477220E+04  0.10199942452E+04  0.16500000000E+03 0.  0.
   -5000001    1    1    2    0    0 -0.86156412664E+02  0.71026529504E+02 -0.26344645067E+03  0.33029793779E+03  0.16500000000E+03 0.  0.
<mgrwt>
<rscale>  0 0.47551369E+03</rscale>
<asrwt>0</asrwt>
<pdfrwt beam="1">  1        2 0.61784301E-02 0.47551369E+03</pdfrwt>
<pdfrwt beam="2">  1       -2 0.18672043E+00 0.47551369E+03</pdfrwt>
<totfact> 0.20812548E+02</totfact>
</mgrwt>
</event>
<event>
 4    1  0.1025337E-004  0.5521768E+03  0.7818608E-02  0.1000991E+00
          2   -1    0    0  501    0  0.00000000000E+00  0.00000000000E+00  0.14757646702E+04  0.14757646702E+04  0.25500000000E-02 0.  1.
         -2   -1    0    0    0  501 -0.00000000000E+00 -0.00000000000E+00 -0.51651057414E+02  0.51651057477E+02  0.25500000000E-02 0. -1.
    5000001    1    1    2    0    0  0.24557461875E+02 -0.69557209182E+02  0.12893756249E+04  0.13019814808E+04  0.16500000000E+03 0.  0.
   -5000001    1    1    2    0    0 -0.24557461875E+02  0.69557209182E+02  0.13473798789E+03  0.22543424687E+03  0.16500000000E+03 0.  0.
<mgrwt>
<rscale>  0 0.55217680E+03</rscale>
<asrwt>0</asrwt>
<pdfrwt beam="1">  1        2 0.21082351E+00 0.55217680E+03</pdfrwt>
<pdfrwt beam="2">  1       -2 0.73787229E-02 0.55217680E+03</pdfrwt>
<totfact> 0.17097035E+03</totfact>
</mgrwt>
</event>
<event>
 4    1  0.1025337E-004  0.4914458E+03  0.7818608E-02  0.1016036E+00
          2   -1    0    0  501    0  0.00000000000E+00  0.00000000000E+00  0.37552939286E+03  0.37552939287E+03  0.25500000000E-02 0.  1.
         -2   -1    0    0    0  501 -0.00000000000E+00 -0.00000000000E+00 -0.16078564472E+03  0.16078564474E+03  0.25500000000E-02 0. -1.
    5000001    1    1    2    0    0  0.15281179536E+03 -0.98708832018E+02  0.98928759467E+02  0.26477684523E+03  0.16500000000E+03 0.  0.
   -5000001    1    1    2    0    0 -0.15281179536E+03  0.98708832018E+02  0.11581498868E+03  0.27153819238E+03  0.16500000000E+03 0.  0.
<mgrwt>
<rscale>  0 0.49144577E+03</rscale>
<asrwt>0</asrwt>
<pdfrwt beam="1">  1        2 0.53647057E-01 0.49144577E+03</pdfrwt>
<pdfrwt beam="2">  1       -2 0.22969377E-01 0.49144577E+03</pdfrwt>
<totfact> 0.15441379E+03</totfact>
</mgrwt>
</event>
<event>
 4    1  0.1025337E-004  0.6082722E+03  0.7818608E-02  0.9888391E-01
         -2   -1    0    0    0  501 -0.00000000000E+00  0.00000000000E+00  0.44915733036E+02  0.44915733108E+02  0.25500000000E-02 0. -1.
          2   -1    0    0  501    0  0.00000000000E+00 -0.00000000000E+00 -0.20593845947E+04  0.20593845947E+04  0.25500000000E-02 0.  1.
    5000001    1    1    2    0    0  0.45482066009E+02  0.24785015585E+03 -0.11530030554E+04  0.11916960032E+04  0.16500000000E+03 0.  0.
   -5000001    1    1    2    0    0 -0.45482066009E+02 -0.24785015585E+03 -0.86146580626E+03  0.91260432469E+03  0.16500000000E+03 0.  0.
<mgrwt>
<rscale>  0 0.60827220E+03</rscale>
<asrwt>0</asrwt>
<pdfrwt beam="1">  1        2 0.29419774E+00 0.60827220E+03</pdfrwt>
<pdfrwt beam="2">  1       -2 0.64165346E-02 0.60827220E+03</pdfrwt>
<totfact> 0.10747617E+03</totfact>
</mgrwt>
</event>
<event>
 4    1  0.1025337E-004  0.5868472E+03  0.7818608E-02  0.9933076E-01
         -2   -1    0    0    0  501 -0.00000000000E+00  0.00000000000E+00  0.39363648407E+03  0.39363648408E+03  0.25500000000E-02 0. -1.
          2   -1    0    0  501    0  0.00000000000E+00 -0.00000000000E+00 -0.21872314807E+03  0.21872314808E+03  0.25500000000E-02 0.  1.
    5000001    1    1    2    0    0  0.68132912916E+02  0.18678100135E+03  0.23258272270E+03  0.34763336892E+03  0.16500000000E+03 0.  0.
   -5000001    1    1    2    0    0 -0.68132912916E+02 -0.18678100135E+03 -0.57669386700E+02  0.26472626324E+03  0.16500000000E+03 0.  0.
<mgrwt>
<rscale>  0 0.58684721E+03</rscale>
<asrwt>0</asrwt>
<pdfrwt beam="1">  1        2 0.31246165E-01 0.58684721E+03</pdfrwt>
<pdfrwt beam="2">  1       -2 0.56233782E-01 0.58684721E+03</pdfrwt>
<totfact> 0.50858015E+02</totfact>
</mgrwt>
</event>
<event>
 4    1  0.1025337E-004  0.4483374E+03  0.7818608E-02  0.1028219E+00
         -2   -1    0    0    0  501 -0.00000000000E+00  0.00000000000E+00  0.47500678484E+02  0.47500678552E+02  0.25500000000E-02 0.  1.
          2   -1    0    0  501    0  0.00000000000E+00 -0.00000000000E+00 -0.10579133227E+04  0.10579133227E+04  0.25500000000E-02 0. -1.
    5000001    1    1    2    0    0 -0.89623999212E+02 -0.85483450928E+02 -0.28903876292E+03  0.35511728779E+03  0.16500000000E+03 0.  0.
   -5000001    1    1    2    0    0  0.89623999212E+02  0.85483450928E+02 -0.72137388127E+03  0.75029671344E+03  0.16500000000E+03 0.  0.
<mgrwt>
<rscale>  0 0.44833738E+03</rscale>
<asrwt>0</asrwt>
<pdfrwt beam="1">  1        2 0.15113046E+00 0.44833738E+03</pdfrwt>
<pdfrwt beam="2">  1       -2 0.67858118E-02 0.44833738E+03</pdfrwt>
<totfact> 0.33087590E+03</totfact>
</mgrwt>
</event>
<event>
 4    1  0.1025337E-004  0.5456177E+03  0.7818608E-02  0.1002513E+00
          2   -1    0    0  501    0  0.00000000000E+00  0.00000000000E+00  0.11188167184E+04  0.11188167184E+04  0.25500000000E-02 0.  1.
         -2   -1    0    0    0  501 -0.00000000000E+00 -0.00000000000E+00 -0.66520869492E+02  0.66520869541E+02  0.25500000000E-02 0. -1.
    5000001    1    1    2    0    0  0.91606553067E+02 -0.13062515731E+03  0.84650404175E+03  0.87706828981E+03  0.16500000000E+03 0.  0.
   -5000001    1    1    2    0    0 -0.91606553067E+02  0.13062515731E+03  0.20579180718E+03  0.30826929816E+03  0.16500000000E+03 0.  0.
<mgrwt>
<rscale>  0 0.54561767E+03</rscale>
<asrwt>0</asrwt>
<pdfrwt beam="1">  1        2 0.15983095E+00 0.54561767E+03</pdfrwt>
<pdfrwt beam="2">  1       -2 0.95029817E-02 0.54561767E+03</pdfrwt>
<totfact> 0.17862940E+03</totfact>
</mgrwt>
</event>
<event>
 4    1  0.1025337E-004  0.7031089E+03  0.7818608E-02  0.9711930E-01
          2   -1    0    0  501    0  0.00000000000E+00  0.00000000000E+00  0.14231278725E+04  0.14231278725E+04  0.25500000000E-02 0.  1.
         -2   -1    0    0    0  501 -0.00000000000E+00 -0.00000000000E+00 -0.86844280502E+02  0.86844280539E+02  0.25500000000E-02 0. -1.
    5000001    1    1    2    0    0 -0.12642672465E+03  0.12792510931E+03  0.12115096137E+04  0.12358515665E+04  0.16500000000E+03 0.  0.
   -5000001    1    1    2    0    0  0.12642672465E+03 -0.12792510931E+03  0.12477397825E+03  0.27412058651E+03  0.16500000000E+03 0.  0.
<mgrwt>
<rscale>  0 0.70310886E+03</rscale>
<asrwt>0</asrwt>
<pdfrwt beam="1">  1        2 0.20330397E+00 0.70310886E+03</pdfrwt>
<pdfrwt beam="2">  1       -2 0.12406327E-01 0.70310886E+03</pdfrwt>
<totfact> 0.78204508E+02</totfact>
</mgrwt>
</event>
<event>
 4    1  0.1025337E-004  0.3927258E+03  0.7818608E-02  0.1046328E+00
          2   -1    0    0  501    0  0.00000000000E+00  0.00000000000E+00  0.70325798903E+03  0.70325798903E+03  0.25500000000E-02 0.  1.
         -2   -1    0    0    0  501 -0.00000000000E+00 -0.00000000000E+00 -0.54828214440E+02  0.54828214500E+02  0.25500000000E-02 0. -1.
    5000001    1    1    2    0    0  0.24093189562E+02 -0.98576159071E+02  0.38633516562E+03  0.43217774251E+03  0.16500000000E+03 0.  0.
   -5000001    1    1    2    0    0 -0.24093189562E+02  0.98576159071E+02  0.26209460897E+03  0.32590846103E+03  0.16500000000E+03 0.  0.
<mgrwt>
<rscale>  0 0.39272576E+03</rscale>
<asrwt>0</asrwt>
<pdfrwt beam="1">  1        2 0.10046542E+00 0.39272576E+03</pdfrwt>
<pdfrwt beam="2">  1       -2 0.78326025E-02 0.39272576E+03</pdfrwt>
<totfact> 0.44902898E+03</totfact>
</mgrwt>
</event>
<event>
 4    1  0.1025337E-004  0.6781009E+03  0.7818608E-02  0.9755433E-01
         -2   -1    0    0    0  501 -0.00000000000E+00  0.00000000000E+00  0.47500281235E+02  0.47500281303E+02  0.25500000000E-02 0. -1.
          2   -1    0    0  501    0  0.00000000000E+00 -0.00000000000E+00 -0.24200949712E+04  0.24200949712E+04  0.25500000000E-02 0.  1.
    5000001    1    1    2    0    0 -0.20125501194E+03  0.75450950991E+02 -0.19279153942E+04  0.19468639380E+04  0.16500000000E+03 0.  0.
   -5000001    1    1    2    0    0  0.20125501194E+03 -0.75450950991E+02 -0.44467929575E+03  0.52073131451E+03  0.16500000000E+03 0.  0.
<mgrwt>
<rscale>  0 0.67810085E+03</rscale>
<asrwt>0</asrwt>
<pdfrwt beam="1">  1        2 0.34572778E+00 0.67810085E+03</pdfrwt>
<pdfrwt beam="2">  1       -2 0.67857560E-02 0.67810085E+03</pdfrwt>
<totfact> 0.64326815E+02</totfact>
</mgrwt>
</event>
<event>
 4    1  0.1025337E-004  0.6242389E+03  0.7818608E-02  0.9856356E-01
          2   -1    0    0  501    0  0.00000000000E+00  0.00000000000E+00  0.56992878700E+03  0.56992878701E+03  0.25500000000E-02 0.  1.
         -2   -1    0    0    0  501 -0.00000000000E+00 -0.00000000000E+00 -0.17093110349E+03  0.17093110351E+03  0.25500000000E-02 0. -1.
    5000001    1    1    2    0    0 -0.43584222536E+01 -0.26471461932E+03  0.18758733451E+03  0.36401488101E+03  0.16500000000E+03 0.  0.
   -5000001    1    1    2    0    0  0.43584222536E+01  0.26471461932E+03  0.21141034900E+03  0.37684500951E+03  0.16500000000E+03 0.  0.
<mgrwt>
<rscale>  0 0.62423892E+03</rscale>
<asrwt>0</asrwt>
<pdfrwt beam="1">  1        2 0.81418397E-01 0.62423892E+03</pdfrwt>
<pdfrwt beam="2">  1       -2 0.24418729E-01 0.62423892E+03</pdfrwt>
<totfact> 0.86492858E+02</totfact>
</mgrwt>
</event>
<event>
 4    1  0.1025337E-004  0.4110746E+03  0.7818608E-02  0.1040011E+00
          2   -1    0    0  501    0  0.00000000000E+00  0.00000000000E+00  0.18542718764E+04  0.18542718764E+04  0.25500000000E-02 0.  1.
         -2   -1    0    0    0  501 -0.00000000000E+00 -0.00000000000E+00 -0.22782841588E+02  0.22782841730E+02  0.25500000000E-02 0. -1.
    5000001    1    1    2    0    0 -0.11761850524E+03 -0.34409643512E+02  0.90860278752E+03  0.93155899536E+03  0.16500000000E+03 0.  0.
   -5000001    1    1    2    0    0  0.11761850524E+03  0.34409643512E+02  0.92288624726E+03  0.94549572275E+03  0.16500000000E+03 0.  0.
<mgrwt>
<rscale>  0 0.41107460E+03</rscale>
<asrwt>0</asrwt>
<pdfrwt beam="1">  1        2 0.26489595E+00 0.41107460E+03</pdfrwt>
<pdfrwt beam="2">  1       -2 0.32546921E-02 0.41107460E+03</pdfrwt>
<totfact> 0.38985185E+03</totfact>
</mgrwt>
</event>
<event>
 4    1  0.1025337E-004  0.4644054E+03  0.7818608E-02  0.1023511E+00
         -2   -1    0    0    0  501 -0.00000000000E+00  0.00000000000E+00  0.74565000366E+02  0.74565000410E+02  0.25500000000E-02 0. -1.
          2   -1    0    0  501    0  0.00000000000E+00 -0.00000000000E+00 -0.72310184034E+03  0.72310184034E+03  0.25500000000E-02 0.  1.
    5000001    1    1    2    0    0 -0.50502924349E+02 -0.86520683325E+02 -0.54594457235E+03  0.57906549724E+03  0.16500000000E+03 0.  0.
   -5000001    1    1    2    0    0  0.50502924349E+02  0.86520683325E+02 -0.10259226762E+03  0.21860134351E+03  0.16500000000E+03 0.  0.
<mgrwt>
<rscale>  0 0.46440538E+03</rscale>
<asrwt>0</asrwt>
<pdfrwt beam="1">  1        2 0.10330026E+00 0.46440538E+03</pdfrwt>
<pdfrwt beam="2">  1       -2 0.10652143E-01 0.46440538E+03</pdfrwt>
<totfact> 0.26625096E+03</totfact>
</mgrwt>
</event>
<event>
 4    1  0.1025337E-004  0.5644706E+03  0.7818608E-02  0.9981990E-01
          2   -1    0    0  501    0  0.00000000000E+00  0.00000000000E+00  0.15363755340E+04  0.15363755340E+04  0.25500000000E-02 0.  1.
         -2   -1    0    0    0  501 -0.00000000000E+00 -0.00000000000E+00 -0.51847187593E+02  0.51847187656E+02  0.25500000000E-02 0. -1.
    5000001    1    1    2    0    0  0.17065704906E+03  0.10613787208E+03  0.10510316766E+04  0.10827195674E+04  0.16500000000E+03 0.  0.
   -5000001    1    1    2    0    0 -0.17065704906E+03 -0.10613787208E+03  0.43349666973E+03  0.50550315424E+03  0.16500000000E+03 0.  0.
<mgrwt>
<rscale>  0 0.56447055E+03</rscale>
<asrwt>0</asrwt>
<pdfrwt beam="1">  1        2 0.21948226E+00 0.56447055E+03</pdfrwt>
<pdfrwt beam="2">  1       -2 0.74067398E-02 0.56447055E+03</pdfrwt>
<totfact> 0.15800469E+03</totfact>
</mgrwt>
</event>
<event>
 4    1  0.1025337E-004  0.6870890E+03  0.7818608E-02  0.9739570E-01
         -2   -1    0    0    0  501 -0.00000000000E+00  0.00000000000E+00  0.63660598640E+02  0.63660598691E+02  0.25500000000E-02 0. -1.
          2   -1    0    0  501    0  0.00000000000E+00 -0.00000000000E+00 -0.18539384991E+04  0.18539384991E+04  0.25500000000E-02 0.  1.
    5000001    1    1    2    0    0 -0.17555647065E+03 -0.20434141474E+03 -0.51839442370E+03  0.60706940846E+03  0.16500000000E+03 0.  0.
   -5000001    1    1    2    0    0  0.17555647065E+03  0.20434141474E+03 -0.12718834767E+04  0.13105296893E+04  0.16500000000E+03 0.  0.
<mgrwt>
<rscale>  0 0.68708903E+03</rscale>
<asrwt>0</asrwt>
<pdfrwt beam="1">  1        2 0.26484832E+00 0.68708903E+03</pdfrwt>
<pdfrwt beam="2">  1       -2 0.90943724E-02 0.68708903E+03</pdfrwt>
<totfact> 0.77940020E+02</totfact>
</mgrwt>
</event>
<event>
 4    1  0.1025337E-004  0.4906486E+03  0.7818608E-02  0.1016249E+00
         -2   -1    0    0    0  501 -0.00000000000E+00  0.00000000000E+00  0.14793396319E+03  0.14793396321E+03  0.25500000000E-02 0. -1.
          2   -1    0    0  501    0  0.00000000000E+00 -0.00000000000E+00 -0.40683020065E+03  0.40683020066E+03  0.25500000000E-02 0.  1.
    5000001    1    1    2    0    0 -0.15911538105E+02  0.16862617602E+03 -0.20334135142E+03  0.31186642891E+03  0.16500000000E+03 0.  0.
   -5000001    1    1    2    0    0  0.15911538105E+02 -0.16862617602E+03 -0.55554886037E+02  0.24289773496E+03  0.16500000000E+03 0.  0.
<mgrwt>
<rscale>  0 0.49064857E+03</rscale>
<asrwt>0</asrwt>
<pdfrwt beam="1">  1        2 0.58118600E-01 0.49064857E+03</pdfrwt>
<pdfrwt beam="2">  1       -2 0.21133423E-01 0.49064857E+03</pdfrwt>
<totfact> 0.16362627E+03</totfact>
</mgrwt>
</event>
<event>
 4    1  0.1025337E-004  0.4691411E+03  0.7818608E-02  0.1022163E+00
         -2   -1    0    0    0  501 -0.00000000000E+00  0.00000000000E+00  0.29576819337E+03  0.29576819338E+03  0.25500000000E-02 0. -1.
          2   -1    0    0  501    0  0.00000000000E+00 -0.00000000000E+00 -0.18603535926E+03  0.18603535927E+03  0.25500000000E-02 0.  1.
    5000001    1    1    2    0    0 -0.55893591787E+00 -0.13245277822E+03  0.15886306558E+03  0.26458746091E+03  0.16500000000E+03 0.  0.
   -5000001    1    1    2    0    0  0.55893591787E+00  0.13245277822E+03 -0.49130231467E+02  0.21721609174E+03  0.16500000000E+03 0.  0.
<mgrwt>
<rscale>  0 0.46914110E+03</rscale>
<asrwt>0</asrwt>
<pdfrwt beam="1">  1        2 0.26576480E-01 0.46914110E+03</pdfrwt>
<pdfrwt beam="2">  1       -2 0.42252599E-01 0.46914110E+03</pdfrwt>
<totfact> 0.10848210E+03</totfact>
</mgrwt>
</event>
<event>
 4    1  0.1025337E-004  0.5925338E+03  0.7818608E-02  0.9921018E-01
          2   -1    0    0  501    0  0.00000000000E+00  0.00000000000E+00  0.26696759524E+04  0.26696759524E+04  0.25500000000E-02 0.  1.
         -2   -1    0    0    0  501 -0.00000000000E+00 -0.00000000000E+00 -0.32878170530E+02  0.32878170628E+02  0.25500000000E-02 0. -1.
    5000001    1    1    2    0    0 -0.11994115122E+03  0.10629176828E+03  0.21700420202E+04  0.21821987053E+04  0.16500000000E+03 0.  0.
   -5000001    1    1    2    0    0  0.11994115122E+03 -0.10629176828E+03  0.46675576169E+03  0.52035541779E+03  0.16500000000E+03 0.  0.
<mgrwt>
<rscale>  0 0.59253375E+03</rscale>
<asrwt>0</asrwt>
<pdfrwt beam="1">  1        2 0.38138237E+00 0.59253375E+03</pdfrwt>
<pdfrwt beam="2">  1       -2 0.46968804E-02 0.59253375E+03</pdfrwt>
<totfact> 0.85539778E+02</totfact>
</mgrwt>
</event>
<event>
 4    1  0.1025337E-004  0.3751970E+03  0.7818608E-02  0.1052723E+00
          2   -1    0    0  501    0  0.00000000000E+00  0.00000000000E+00  0.66499423522E+03  0.66499423522E+03  0.25500000000E-02 0.  1.
         -2   -1    0    0    0  501 -0.00000000000E+00 -0.00000000000E+00 -0.52922553516E+02  0.52922553577E+02  0.25500000000E-02 0. -1.
    5000001    1    1    2    0    0  0.75810819897E+02 -0.61912964654E+01  0.39542809928E+03  0.43517122408E+03  0.16500000000E+03 0.  0.
   -5000001    1    1    2    0    0 -0.75810819897E+02  0.61912964654E+01  0.21664358242E+03  0.28274556472E+03  0.16500000000E+03 0.  0.
<mgrwt>
<rscale>  0 0.37519698E+03</rscale>
<asrwt>0</asrwt>
<pdfrwt beam="1">  1        2 0.94999172E-01 0.37519698E+03</pdfrwt>
<pdfrwt beam="2">  1       -2 0.75603652E-02 0.37519698E+03</pdfrwt>
<totfact> 0.50709278E+03</totfact>
</mgrwt>
</event>
<event>
 4    1  0.1025337E-004  0.4218267E+03  0.7818608E-02  0.1036473E+00
          2   -1    0    0  501    0  0.00000000000E+00  0.00000000000E+00  0.37158296878E+03  0.37158296879E+03  0.25500000000E-02 0.  1.
         -2   -1    0    0    0  501 -0.00000000000E+00 -0.00000000000E+00 -0.11971604238E+03  0.11971604241E+03  0.25500000000E-02 0. -1.
    5000001    1    1    2    0    0  0.12526187398E+03 -0.85226601706E+01  0.17098574071E+03  0.26874578385E+03  0.16500000000E+03 0.  0.
   -5000001    1    1    2    0    0 -0.12526187398E+03  0.85226601706E+01  0.80881185687E+02  0.22255322736E+03  0.16500000000E+03 0.  0.
<mgrwt>
<rscale>  0 0.42182671E+03</rscale>
<asrwt>0</asrwt>
<pdfrwt beam="1">  1        2 0.53083280E-01 0.42182671E+03</pdfrwt>
<pdfrwt beam="2">  1       -2 0.17102292E-01 0.42182671E+03</pdfrwt>
<totfact> 0.25980131E+03</totfact>
</mgrwt>
</event>
<event>
 4    1  0.1025337E-004  0.4279960E+03  0.7818608E-02  0.1034495E+00
         -2   -1    0    0    0  501 -0.00000000000E+00  0.00000000000E+00  0.16687428258E+02  0.16687428453E+02  0.25500000000E-02 0. -1.
          2   -1    0    0  501    0  0.00000000000E+00 -0.00000000000E+00 -0.27442895033E+04  0.27442895033E+04  0.25500000000E-02 0.  1.
    5000001    1    1    2    0    0  0.79381808536E+02 -0.21343681025E+02 -0.20649418399E+04  0.20731538357E+04  0.16500000000E+03 0.  0.
   -5000001    1    1    2    0    0 -0.79381808536E+02  0.21343681025E+02 -0.66266023513E+03  0.68782309606E+03  0.16500000000E+03 0.  0.
<mgrwt>
<rscale>  0 0.42799596E+03</rscale>
<asrwt>0</asrwt>
<pdfrwt beam="1">  1        2 0.39204107E+00 0.42799596E+03</pdfrwt>
<pdfrwt beam="2">  1       -2 0.23839201E-02 0.42799596E+03</pdfrwt>
<totfact> 0.22210560E+03</totfact>
</mgrwt>
</event>
<event>
 4    1  0.1025337E-004  0.1042259E+04  0.7818608E-02  0.9263372E-01
          2   -1    0    0  501    0  0.00000000000E+00  0.00000000000E+00  0.29257758730E+04  0.29257758730E+04  0.25500000000E-02 0.  1.
         -2   -1    0    0    0  501 -0.00000000000E+00 -0.00000000000E+00 -0.92821923295E+02  0.92821923330E+02  0.25500000000E-02 0. -1.
    5000001    1    1    2    0    0 -0.45305964557E+03 -0.15373538188E+03  0.17765108353E+04  0.18471906664E+04  0.16500000000E+03 0.  0.
   -5000001    1    1    2    0    0  0.45305964557E+03  0.15373538188E+03  0.10564431144E+04  0.11714071300E+04  0.16500000000E+03 0.  0.
<mgrwt>
<rscale>  0 0.10422594E+04</rscale>
<asrwt>0</asrwt>
<pdfrwt beam="1">  1        2 0.41796788E+00 0.10422594E+04</pdfrwt>
<pdfrwt beam="2">  1       -2 0.13260278E-01 0.10422594E+04</pdfrwt>
<totfact> 0.11351923E+02</totfact>
</mgrwt>
</event>
<event>
 4    1  0.1025337E-004  0.5252551E+03  0.7818608E-02  0.1007389E+00
         -2   -1    0    0    0  501 -0.00000000000E+00  0.00000000000E+00  0.34740935180E+03  0.34740935181E+03  0.25500000000E-02 0. -1.
          2   -1    0    0  501    0  0.00000000000E+00 -0.00000000000E+00 -0.19853590572E+03  0.19853590573E+03  0.25500000000E-02 0.  1.
    5000001    1    1    2    0    0 -0.17044464911E+03 -0.95306019946E+02  0.11955470472E+02  0.25593465792E+03  0.16500000000E+03 0.  0.
   -5000001    1    1    2    0    0  0.17044464911E+03  0.95306019946E+02  0.13691797561E+03  0.29001059962E+03  0.16500000000E+03 0.  0.
<mgrwt>
<rscale>  0 0.52525510E+03</rscale>
<asrwt>0</asrwt>
<pdfrwt beam="1">  1        2 0.28362272E-01 0.52525510E+03</pdfrwt>
<pdfrwt beam="2">  1       -2 0.49629908E-01 0.52525510E+03</pdfrwt>
<totfact> 0.73257366E+02</totfact>
</mgrwt>
</event>
<event>
 4    1  0.1025337E-004  0.6138002E+03  0.7818608E-02  0.9877181E-01
         -2   -1    0    0    0  501 -0.00000000000E+00  0.00000000000E+00  0.62620437597E+02  0.62620437649E+02  0.25500000000E-02 0. -1.
          2   -1    0    0  501    0  0.00000000000E+00 -0.00000000000E+00 -0.15041044746E+04  0.15041044746E+04  0.25500000000E-02 0.  1.
    5000001    1    1    2    0    0  0.24101458804E+03 -0.91806891193E+02 -0.77465619759E+03  0.83296684291E+03  0.16500000000E+03 0.  0.
   -5000001    1    1    2    0    0 -0.24101458804E+03  0.91806891193E+02 -0.66682783945E+03  0.73375806938E+03  0.16500000000E+03 0.  0.
<mgrwt>
<rscale>  0 0.61380023E+03</rscale>
<asrwt>0</asrwt>
<pdfrwt beam="1">  1        2 0.21487205E+00 0.61380023E+03</pdfrwt>
<pdfrwt beam="2">  1       -2 0.89457777E-02 0.61380023E+03</pdfrwt>
<totfact> 0.12130344E+03</totfact>
</mgrwt>
</event>
<event>
 4    1  0.1025337E-004  0.4160083E+03  0.7818608E-02  0.1038373E+00
          2   -1    0    0  501    0  0.00000000000E+00  0.00000000000E+00  0.78818797551E+03  0.78818797551E+03  0.25500000000E-02 0.  1.
         -2   -1    0    0    0  501 -0.00000000000E+00 -0.00000000000E+00 -0.54892656983E+02  0.54892657042E+02  0.25500000000E-02 0. -1.
    5000001    1    1    2    0    0  0.12179685460E+03  0.17320637489E+02  0.30563892153E+03  0.36847608963E+03  0.16500000000E+03 0.  0.
   -5000001    1    1    2    0    0 -0.12179685460E+03 -0.17320637489E+02  0.42765639699E+03  0.47460454292E+03  0.16500000000E+03 0.  0.
<mgrwt>
<rscale>  0 0.41600833E+03</rscale>
<asrwt>0</asrwt>
<pdfrwt beam="1">  1        2 0.11259828E+00 0.41600833E+03</pdfrwt>
<pdfrwt beam="2">  1       -2 0.78418084E-02 0.41600833E+03</pdfrwt>
<totfact> 0.38995499E+03</totfact>
</mgrwt>
</event>
<event>
 4    1  0.1025337E-004  0.6880811E+03  0.7818608E-02  0.9737835E-01
         -2   -1    0    0    0  501 -0.00000000000E+00  0.00000000000E+00  0.12440450929E+04  0.12440450929E+04  0.25500000000E-02 0. -1.
          2   -1    0    0  501    0  0.00000000000E+00 -0.00000000000E+00 -0.95144373351E+02  0.95144373385E+02  0.25500000000E-02 0.  1.
    5000001    1    1    2    0    0 -0.64488195582E+02  0.28818046858E+03  0.69649512631E+03  0.77429785666E+03  0.16500000000E+03 0.  0.
   -5000001    1    1    2    0    0  0.64488195582E+02 -0.28818046858E+03  0.45240559324E+03  0.56489160964E+03  0.16500000000E+03 0.  0.
<mgrwt>
<rscale>  0 0.68808107E+03</rscale>
<asrwt>0</asrwt>
<pdfrwt beam="1">  1        2 0.13592053E-01 0.68808107E+03</pdfrwt>
<pdfrwt beam="2">  1       -2 0.17772073E+00 0.68808107E+03</pdfrwt>
<totfact> 0.86558534E+01</totfact>
</mgrwt>
</event>
<event>
 4    1  0.1025337E-004  0.5759262E+03  0.7818608E-02  0.9956650E-01
         -2   -1    0    0    0  501 -0.00000000000E+00  0.00000000000E+00  0.74493465326E+02  0.74493465369E+02  0.25500000000E-02 0. -1.
          2   -1    0    0  501    0  0.00000000000E+00 -0.00000000000E+00 -0.11131548089E+04  0.11131548089E+04  0.25500000000E-02 0.  1.
    5000001    1    1    2    0    0 -0.20945602550E+03 -0.32817706773E+01 -0.74348174606E+03  0.78985612827E+03  0.16500000000E+03 0.  0.
   -5000001    1    1    2    0    0  0.20945602550E+03  0.32817706773E+01 -0.29517959752E+03  0.39779214601E+03  0.16500000000E+03 0.  0.
<mgrwt>
<rscale>  0 0.57592624E+03</rscale>
<asrwt>0</asrwt>
<pdfrwt beam="1">  1        2 0.15902211E+00 0.57592624E+03</pdfrwt>
<pdfrwt beam="2">  1       -2 0.10641924E-01 0.57592624E+03</pdfrwt>
<totfact> 0.14975551E+03</totfact>
</mgrwt>
</event>
<event>
 4    1  0.1025337E-004  0.4476197E+03  0.7818608E-02  0.1028434E+00
         -2   -1    0    0    0  501 -0.00000000000E+00  0.00000000000E+00  0.74916020433E+02  0.74916020476E+02  0.25500000000E-02 0. -1.
          2   -1    0    0  501    0  0.00000000000E+00 -0.00000000000E+00 -0.66862675289E+03  0.66862675290E+03  0.25500000000E-02 0.  1.
    5000001    1    1    2    0    0 -0.10431129701E+02  0.11127118350E+03 -0.12765280967E+03  0.23666500493E+03  0.16500000000E+03 0.  0.
   -5000001    1    1    2    0    0  0.10431129701E+02 -0.11127118350E+03 -0.46605792279E+03  0.50687776844E+03  0.16500000000E+03 0.  0.
<mgrwt>
<rscale>  0 0.44761973E+03</rscale>
<asrwt>0</asrwt>
<pdfrwt beam="1">  1        2 0.95518104E-01 0.44761973E+03</pdfrwt>
<pdfrwt beam="2">  1       -2 0.10702289E-01 0.44761973E+03</pdfrwt>
<totfact> 0.29039579E+03</totfact>
</mgrwt>
</event>
<event>
 4    1  0.1025337E-004  0.1129305E+04  0.7818608E-02  0.9177091E-01
         -2   -1    0    0    0  501 -0.00000000000E+00  0.00000000000E+00  0.87350786586E+03  0.87350786587E+03  0.25500000000E-02 0. -1.
          2   -1    0    0  501    0  0.00000000000E+00 -0.00000000000E+00 -0.36500216978E+03  0.36500216979E+03  0.25500000000E-02 0.  1.
    5000001    1    1    2    0    0 -0.29864670786E+03  0.44696410966E+03  0.31060766847E+03  0.64239310017E+03  0.16500000000E+03 0.  0.
   -5000001    1    1    2    0    0  0.29864670786E+03 -0.44696410966E+03  0.19789802761E+03  0.59611693548E+03  0.16500000000E+03 0.  0.
<mgrwt>
<rscale>  0 0.11293047E+04</rscale>
<asrwt>0</asrwt>
<pdfrwt beam="1">  1        2 0.52143168E-01 0.11293047E+04</pdfrwt>
<pdfrwt beam="2">  1       -2 0.12478683E+00 0.11293047E+04</pdfrwt>
<totfact> 0.45750638E+01</totfact>
</mgrwt>
</event>
<event>
 4    1  0.1025337E-004  0.4805334E+03  0.7818608E-02  0.1018989E+00
         -2   -1    0    0    0  501 -0.00000000000E+00  0.00000000000E+00  0.95221894843E+02  0.95221894878E+02  0.25500000000E-02 0. -1.
          2   -1    0    0  501    0  0.00000000000E+00 -0.00000000000E+00 -0.60624815618E+03  0.60624815619E+03  0.25500000000E-02 0.  1.
    5000001    1    1    2    0    0 -0.16039383830E+03  0.54146671884E+02 -0.19280990161E+03  0.30505524680E+03  0.16500000000E+03 0.  0.
   -5000001    1    1    2    0    0  0.16039383830E+03 -0.54146671884E+02 -0.31821635973E+03  0.39641480427E+03  0.16500000000E+03 0.  0.
<mgrwt>
<rscale>  0 0.48053345E+03</rscale>
<asrwt>0</asrwt>
<pdfrwt beam="1">  1        2 0.86606877E-01 0.48053345E+03</pdfrwt>
<pdfrwt beam="2">  1       -2 0.13603128E-01 0.48053345E+03</pdfrwt>
<totfact> 0.22026410E+03</totfact>
</mgrwt>
</event>
<event>
 4    1  0.1025337E-004  0.3442701E+03  0.7818608E-02  0.1064992E+00
          2   -1    0    0  501    0  0.00000000000E+00  0.00000000000E+00  0.21985334357E+04  0.21985334358E+04  0.25500000000E-02 0.  1.
         -2   -1    0    0    0  501 -0.00000000000E+00 -0.00000000000E+00 -0.13477382739E+02  0.13477382980E+02  0.25500000000E-02 0. -1.
    5000001    1    1    2    0    0 -0.32827055279E+00 -0.44151828545E+02  0.95532513427E+03  0.97047442208E+03  0.16500000000E+03 0.  0.
   -5000001    1    1    2    0    0  0.32827055279E+00  0.44151828545E+02  0.12297309187E+04  0.12415363967E+04  0.16500000000E+03 0.  0.
<mgrwt>
<rscale>  0 0.34427011E+03</rscale>
<asrwt>0</asrwt>
<pdfrwt beam="1">  1        2 0.31407608E+00 0.34427011E+03</pdfrwt>
<pdfrwt beam="2">  1       -2 0.19253412E-02 0.34427011E+03</pdfrwt>
<totfact> 0.57782795E+03</totfact>
</mgrwt>
</event>
<event>
 4    1  0.1025337E-004  0.5172534E+03  0.7818608E-02  0.1009371E+00
         -2   -1    0    0    0  501 -0.00000000000E+00  0.00000000000E+00  0.37883366952E+02  0.37883367038E+02  0.25500000000E-02 0. -1.
          2   -1    0    0  501    0  0.00000000000E+00 -0.00000000000E+00 -0.17656236673E+04  0.17656236673E+04  0.25500000000E-02 0.  1.
    5000001    1    1    2    0    0  0.84631375753E+02 -0.76083200187E+02 -0.29401455636E+03  0.35583800031E+03  0.16500000000E+03 0.  0.
   -5000001    1    1    2    0    0 -0.84631375753E+02  0.76083200187E+02 -0.14337257440E+04  0.14476690340E+04  0.16500000000E+03 0.  0.
<mgrwt>
<rscale>  0 0.51725340E+03</rscale>
<asrwt>0</asrwt>
<pdfrwt beam="1">  1        2 0.25223190E+00 0.51725340E+03</pdfrwt>
<pdfrwt beam="2">  1       -2 0.54119107E-02 0.51725340E+03</pdfrwt>
<totfact> 0.19777160E+03</totfact>
</mgrwt>
</event>
<event>
 4    1  0.1025337E-004  0.1146227E+04  0.7818608E-02  0.9161272E-01
          2   -1    0    0  501    0  0.00000000000E+00  0.00000000000E+00  0.19038250899E+04  0.19038250899E+04  0.25500000000E-02 0.  1.
         -2   -1    0    0    0  501 -0.00000000000E+00 -0.00000000000E+00 -0.17252573240E+03  0.17252573242E+03  0.25500000000E-02 0. -1.
    5000001    1    1    2    0    0 -0.15094985467E+03  0.52765999073E+03  0.87431704351E+03  0.10454024187E+04  0.16500000000E+03 0.  0.
   -5000001    1    1    2    0    0  0.15094985467E+03 -0.52765999073E+03  0.85698231396E+03  0.10309484036E+04  0.16500000000E+03 0.  0.
<mgrwt>
<rscale>  0 0.11462265E+04</rscale>
<asrwt>0</asrwt>
<pdfrwt beam="1">  1        2 0.27197500E+00 0.11462265E+04</pdfrwt>
<pdfrwt beam="2">  1       -2 0.24646535E-01 0.11462265E+04</pdfrwt>
<totfact> 0.13108985E+02</totfact>
</mgrwt>
</event>
<event>
 4    1  0.1025337E-004  0.5128643E+03  0.7818608E-02  0.1010475E+00
         -2   -1    0    0    0  501 -0.00000000000E+00  0.00000000000E+00  0.14137838947E+03  0.14137838950E+03  0.25500000000E-02 0. -1.
          2   -1    0    0  501    0  0.00000000000E+00 -0.00000000000E+00 -0.46511665596E+03  0.46511665597E+03  0.25500000000E-02 0.  1.
    5000001    1    1    2    0    0 -0.79231308259E+02  0.11521998958E+03 -0.32478512769E+03  0.39020971974E+03  0.16500000000E+03 0.  0.
   -5000001    1    1    2    0    0  0.79231308259E+02 -0.11521998958E+03  0.10468611999E+01  0.21628532573E+03  0.16500000000E+03 0.  0.
<mgrwt>
<rscale>  0 0.51286429E+03</rscale>
<asrwt>0</asrwt>
<pdfrwt beam="1">  1        2 0.66445236E-01 0.51286429E+03</pdfrwt>
<pdfrwt beam="2">  1       -2 0.20196913E-01 0.51286429E+03</pdfrwt>
<totfact> 0.15258554E+03</totfact>
</mgrwt>
</event>
<event>
 4    1  0.1025337E-004  0.1085680E+04  0.7818608E-02  0.9219262E-01
          2   -1    0    0  501    0  0.00000000000E+00  0.00000000000E+00  0.19989079277E+04  0.19989079277E+04  0.25500000000E-02 0.  1.
         -2   -1    0    0    0  501 -0.00000000000E+00 -0.00000000000E+00 -0.14741819687E+03  0.14741819689E+03  0.25500000000E-02 0. -1.
    5000001    1    1    2    0    0 -0.47539416201E+03  0.51900188386E+02  0.53654761223E+03  0.73742903321E+03  0.16500000000E+03 0.  0.
   -5000001    1    1    2    0    0  0.47539416201E+03 -0.51900188386E+02  0.13149421186E+04  0.14088970914E+04  0.16500000000E+03 0.  0.
<mgrwt>
<rscale>  0 0.10856803E+04</rscale>
<asrwt>0</asrwt>
<pdfrwt beam="1">  1        2 0.28555829E+00 0.10856803E+04</pdfrwt>
<pdfrwt beam="2">  1       -2 0.21059741E-01 0.10856803E+04</pdfrwt>
<totfact> 0.15589788E+02</totfact>
</mgrwt>
</event>
<event>
 4    1  0.1025337E-004  0.4326307E+03  0.7818608E-02  0.1033032E+00
         -2   -1    0    0    0  501 -0.00000000000E+00  0.00000000000E+00  0.32166786224E+03  0.32166786225E+03  0.25500000000E-02 0. -1.
          2   -1    0    0  501    0  0.00000000000E+00 -0.00000000000E+00 -0.14546784622E+03  0.14546784624E+03  0.25500000000E-02 0.  1.
    5000001    1    1    2    0    0 -0.12935879287E+03 -0.46945614580E+02  0.61003867210E+02  0.22334739720E+03  0.16500000000E+03 0.  0.
   -5000001    1    1    2    0    0  0.12935879287E+03  0.46945614580E+02  0.11519614881E+03  0.24378831129E+03  0.16500000000E+03 0.  0.
<mgrwt>
<rscale>  0 0.43263070E+03</rscale>
<asrwt>0</asrwt>
<pdfrwt beam="1">  1        2 0.20781121E-01 0.43263070E+03</pdfrwt>
<pdfrwt beam="2">  1       -2 0.45952552E-01 0.43263070E+03</pdfrwt>
<totfact> 0.12175656E+03</totfact>
</mgrwt>
</event>
<event>
 4    1  0.1025337E-004  0.4965138E+03  0.7818608E-02  0.1014693E+00
          2   -1    0    0  501    0  0.00000000000E+00  0.00000000000E+00  0.11461562849E+04  0.11461562849E+04  0.25500000000E-02 0.  1.
         -2   -1    0    0    0  501 -0.00000000000E+00 -0.00000000000E+00 -0.53772327976E+02  0.53772328036E+02  0.25500000000E-02 0. -1.
    5000001    1    1    2    0    0 -0.79027644797E+02  0.16728606340E+03  0.57829837559E+03  0.62919313955E+03  0.16500000000E+03 0.  0.
   -5000001    1    1    2    0    0  0.79027644797E+02 -0.16728606340E+03  0.51408558136E+03  0.57073547341E+03  0.16500000000E+03 0.  0.
<mgrwt>
<rscale>  0 0.49651381E+03</rscale>
<asrwt>0</asrwt>
<pdfrwt beam="1">  1        2 0.16373660E+00 0.49651381E+03</pdfrwt>
<pdfrwt beam="2">  1       -2 0.76817616E-02 0.49651381E+03</pdfrwt>
<totfact> 0.24214665E+03</totfact>
</mgrwt>
</event>
<event>
 4    1  0.1025337E-004  0.4470155E+03  0.7818608E-02  0.1028616E+00
         -2   -1    0    0    0  501 -0.00000000000E+00  0.00000000000E+00  0.16104950031E+02  0.16104950232E+02  0.25500000000E-02 0. -1.
          2   -1    0    0  501    0  0.00000000000E+00 -0.00000000000E+00 -0.31018851812E+04  0.31018851812E+04  0.25500000000E-02 0.  1.
    5000001    1    1    2    0    0  0.66471769619E+02 -0.13427562781E+03 -0.16600776202E+04  0.16749719834E+04  0.16500000000E+03 0.  0.
   -5000001    1    1    2    0    0 -0.66471769619E+02  0.13427562781E+03 -0.14257026111E+04  0.14430181480E+04  0.16500000000E+03 0.  0.
<mgrwt>
<rscale>  0 0.44701546E+03</rscale>
<asrwt>0</asrwt>
<pdfrwt beam="1">  1        2 0.44312607E+00 0.44701546E+03</pdfrwt>
<pdfrwt beam="2">  1       -2 0.23007091E-02 0.44701546E+03</pdfrwt>
<totfact> 0.15079153E+03</totfact>
</mgrwt>
</event>
<event>
 4    1  0.1025337E-004  0.4489387E+03  0.7818608E-02  0.1028039E+00
          2   -1    0    0  501    0  0.00000000000E+00  0.00000000000E+00  0.56316451068E+03  0.56316451068E+03  0.25500000000E-02 0.  1.
         -2   -1    0    0    0  501 -0.00000000000E+00 -0.00000000000E+00 -0.89470269067E+02  0.89470269103E+02  0.25500000000E-02 0. -1.
    5000001    1    1    2    0    0 -0.49031762021E+02 -0.14208370772E+03  0.27154181785E+03  0.35149943460E+03  0.16500000000E+03 0.  0.
   -5000001    1    1    2    0    0  0.49031762021E+02  0.14208370772E+03  0.20215242376E+03  0.30113534519E+03  0.16500000000E+03 0.  0.
<mgrwt>
<rscale>  0 0.44893866E+03</rscale>
<asrwt>0</asrwt>
<pdfrwt beam="1">  1        2 0.80452070E-01 0.44893866E+03</pdfrwt>
<pdfrwt beam="2">  1       -2 0.12781467E-01 0.44893866E+03</pdfrwt>
<totfact> 0.26577298E+03</totfact>
</mgrwt>
</event>
<event>
 4    1  0.1025337E-004  0.4503111E+03  0.7818608E-02  0.1027629E+00
         -2   -1    0    0    0  501 -0.00000000000E+00  0.00000000000E+00  0.17703655786E+03  0.17703655788E+03  0.25500000000E-02 0. -1.
          2   -1    0    0  501    0  0.00000000000E+00 -0.00000000000E+00 -0.28635341821E+03  0.28635341822E+03  0.25500000000E-02 0.  1.
    5000001    1    1    2    0    0  0.58083600275E+02  0.10659854372E+03  0.41506657000E+02  0.20900898717E+03  0.16500000000E+03 0.  0.
   -5000001    1    1    2    0    0 -0.58083600275E+02 -0.10659854372E+03 -0.15082351735E+03  0.25438098893E+03  0.16500000000E+03 0.  0.
<mgrwt>
<rscale>  0 0.45031111E+03</rscale>
<asrwt>0</asrwt>
<pdfrwt beam="1">  1        2 0.40907631E-01 0.45031111E+03</pdfrwt>
<pdfrwt beam="2">  1       -2 0.25290937E-01 0.45031111E+03</pdfrwt>
<totfact> 0.17507310E+03</totfact>
</mgrwt>
</event>
<event>
 4    1  0.1025337E-004  0.4270116E+03  0.7818608E-02  0.1034808E+00
         -2   -1    0    0    0  501 -0.00000000000E+00  0.00000000000E+00  0.97196815647E+03  0.97196815648E+03  0.25500000000E-02 0. -1.
          2   -1    0    0  501    0  0.00000000000E+00 -0.00000000000E+00 -0.46899395214E+02  0.46899395283E+02  0.25500000000E-02 0.  1.
    5000001    1    1    2    0    0 -0.28117175388E+02 -0.13197466602E+03  0.43313366379E+03  0.48273974224E+03  0.16500000000E+03 0.  0.
   -5000001    1    1    2    0    0  0.28117175388E+02  0.13197466602E+03  0.49193509747E+03  0.53612780952E+03  0.16500000000E+03 0.  0.
<mgrwt>
<rscale>  0 0.42701156E+03</rscale>
<asrwt>0</asrwt>
<pdfrwt beam="1">  1        2 0.66999133E-02 0.42701156E+03</pdfrwt>
<pdfrwt beam="2">  1       -2 0.13885260E+00 0.42701156E+03</pdfrwt>
<totfact> 0.41536613E+02</totfact>
</mgrwt>
</event>
<event>
 4    1  0.1025337E-004  0.6221202E+03  0.7818608E-02  0.9860547E-01
         -2   -1    0    0    0  501 -0.00000000000E+00  0.00000000000E+00  0.29966402285E+02  0.29966402393E+02  0.25500000000E-02 0. -1.
          2   -1    0    0  501    0  0.00000000000E+00 -0.00000000000E+00 -0.32288955297E+04  0.32288955297E+04  0.25500000000E-02 0.  1.
    5000001    1    1    2    0    0 -0.12544089684E+02  0.25578105576E+03 -0.19287742633E+04  0.19526844245E+04  0.16500000000E+03 0.  0.
   -5000001    1    1    2    0    0  0.12544089684E+02 -0.25578105576E+03 -0.12701548641E+04  0.13061775077E+04  0.16500000000E+03 0.  0.
<mgrwt>
<rscale>  0 0.62212019E+03</rscale>
<asrwt>0</asrwt>
<pdfrwt beam="1">  1        2 0.46127057E+00 0.62212019E+03</pdfrwt>
<pdfrwt beam="2">  1       -2 0.42809167E-02 0.62212019E+03</pdfrwt>
<totfact> 0.49035053E+02</totfact>
</mgrwt>
</event>
<event>
 4    1  0.1025337E-004  0.5523098E+03  0.7818608E-02  0.1000961E+00
         -2   -1    0    0    0  501 -0.00000000000E+00  0.00000000000E+00  0.15157324983E+03  0.15157324985E+03  0.25500000000E-02 0. -1.
          2   -1    0    0  501    0  0.00000000000E+00 -0.00000000000E+00 -0.50313323292E+03  0.50313323292E+03  0.25500000000E-02 0.  1.
    5000001    1    1    2    0    0 -0.17615178043E+03 -0.12122432910E+03 -0.10756297315E+03  0.29072251531E+03  0.16500000000E+03 0.  0.
   -5000001    1    1    2    0    0  0.17615178043E+03  0.12122432910E+03 -0.24399700993E+03  0.36398396746E+03  0.16500000000E+03 0.  0.
<mgrwt>
<rscale>  0 0.55230984E+03</rscale>
<asrwt>0</asrwt>
<pdfrwt beam="1">  1        2 0.71876175E-01 0.55230984E+03</pdfrwt>
<pdfrwt beam="2">  1       -2 0.21653322E-01 0.55230984E+03</pdfrwt>
<totfact> 0.12364102E+03</totfact>
</mgrwt>
</event>
<event>
 4    1  0.1025337E-004  0.4879521E+03  0.7818608E-02  0.1016972E+00
          2   -1    0    0  501    0  0.00000000000E+00  0.00000000000E+00  0.10989560924E+04  0.10989560924E+04  0.25500000000E-02 0.  1.
         -2   -1    0    0    0  501 -0.00000000000E+00 -0.00000000000E+00 -0.54164404746E+02  0.54164404806E+02  0.25500000000E-02 0. -1.
    5000001    1    1    2    0    0  0.16333054571E+03 -0.71539789461E+02  0.57547518610E+03  0.62465310250E+03  0.16500000000E+03 0.  0.
   -5000001    1    1    2    0    0 -0.16333054571E+03  0.71539789461E+02  0.46931650151E+03  0.52846739467E+03  0.16500000000E+03 0.  0.
<mgrwt>
<rscale>  0 0.48795206E+03</rscale>
<asrwt>0</asrwt>
<pdfrwt beam="1">  1        2 0.15699371E+00 0.48795206E+03</pdfrwt>
<pdfrwt beam="2">  1       -2 0.77377730E-02 0.48795206E+03</pdfrwt>
<totfact> 0.25474604E+03</totfact>
</mgrwt>
</event>
<event>
 4    1  0.1025337E-004  0.7912606E+03  0.7818608E-02  0.9572754E-01
         -2   -1    0    0    0  501 -0.00000000000E+00  0.00000000000E+00  0.82744170815E+02  0.82744170854E+02  0.25500000000E-02 0. -1.
          2   -1    0    0  501    0  0.00000000000E+00 -0.00000000000E+00 -0.18916537778E+04  0.18916537778E+04  0.25500000000E-02 0.  1.
    5000001    1    1    2    0    0  0.30306086303E+03  0.11883395774E+03 -0.52331775722E+03  0.63800773603E+03  0.16500000000E+03 0.  0.
   -5000001    1    1    2    0    0 -0.30306086303E+03 -0.11883395774E+03 -0.12855918497E+04  0.13363902126E+04  0.16500000000E+03 0.  0.
<mgrwt>
<rscale>  0 0.79126057E+03</rscale>
<asrwt>0</asrwt>
<pdfrwt beam="1">  1        2 0.27023623E+00 0.79126057E+03</pdfrwt>
<pdfrwt beam="2">  1       -2 0.11820597E-01 0.79126057E+03</pdfrwt>
<totfact> 0.48317687E+02</totfact>
</mgrwt>
</event>
<event>
 4    1  0.1025337E-004  0.6213088E+03  0.7818608E-02  0.9862157E-01
         -2   -1    0    0    0  501 -0.00000000000E+00  0.00000000000E+00  0.64158611642E+02  0.64158611692E+02  0.25500000000E-02 0. -1.
          2   -1    0    0  501    0  0.00000000000E+00 -0.00000000000E+00 -0.15041807628E+04  0.15041807628E+04  0.25500000000E-02 0.  1.
    5000001    1    1    2    0    0  0.73083334820E+02  0.12970051712E+03 -0.17208138399E+03  0.28107009924E+03  0.16500000000E+03 0.  0.
   -5000001    1    1    2    0    0 -0.73083334820E+02 -0.12970051712E+03 -0.12679407672E+04  0.12872692753E+04  0.16500000000E+03 0.  0.
<mgrwt>
<rscale>  0 0.62130878E+03</rscale>
<asrwt>0</asrwt>
<pdfrwt beam="1">  1        2 0.21488294E+00 0.62130878E+03</pdfrwt>
<pdfrwt beam="2">  1       -2 0.91655169E-02 0.62130878E+03</pdfrwt>
<totfact> 0.11661277E+03</totfact>
</mgrwt>
</event>
<event>
 4    1  0.1025337E-004  0.4810075E+03  0.7818608E-02  0.1018859E+00
          2   -1    0    0  501    0  0.00000000000E+00  0.00000000000E+00  0.98604461735E+03  0.98604461735E+03  0.25500000000E-02 0.  1.
         -2   -1    0    0    0  501 -0.00000000000E+00 -0.00000000000E+00 -0.58660693530E+02  0.58660693586E+02  0.25500000000E-02 0. -1.
    5000001    1    1    2    0    0  0.18251186765E+01  0.16870380075E+03  0.36292004926E+03  0.43289752321E+03  0.16500000000E+03 0.  0.
   -5000001    1    1    2    0    0 -0.18251186765E+01 -0.16870380075E+03  0.56446387456E+03  0.61180778773E+03  0.16500000000E+03 0.  0.
<mgrwt>
<rscale>  0 0.48100753E+03</rscale>
<asrwt>0</asrwt>
<pdfrwt beam="1">  1        2 0.14086351E+00 0.48100753E+03</pdfrwt>
<pdfrwt beam="2">  1       -2 0.83800993E-02 0.48100753E+03</pdfrwt>
<totfact> 0.26183882E+03</totfact>
</mgrwt>
</event>
<event>
 4    1  0.1025337E-004  0.6178146E+03  0.7818608E-02  0.9869120E-01
          2   -1    0    0  501    0  0.00000000000E+00  0.00000000000E+00  0.31805114112E+04  0.31805114112E+04  0.25500000000E-02 0.  1.
         -2   -1    0    0    0  501 -0.00000000000E+00 -0.00000000000E+00 -0.30002638520E+02  0.30002638628E+02  0.25500000000E-02 0. -1.
    5000001    1    1    2    0    0  0.25406665100E+03  0.59904290105E+02  0.16156231140E+04  0.16448712514E+04  0.16500000000E+03 0.  0.
   -5000001    1    1    2    0    0 -0.25406665100E+03 -0.59904290105E+02  0.15348856587E+04  0.15656427985E+04  0.16500000000E+03 0.  0.
<mgrwt>
<rscale>  0 0.61781465E+03</rscale>
<asrwt>0</asrwt>
<pdfrwt beam="1">  1        2 0.45435872E+00 0.61781465E+03</pdfrwt>
<pdfrwt beam="2">  1       -2 0.42860917E-02 0.61781465E+03</pdfrwt>
<totfact> 0.52132356E+02</totfact>
</mgrwt>
</event>
<event>
 4    1  0.1025337E-004  0.6289520E+03  0.7818608E-02  0.9847096E-01
         -2   -1    0    0    0  501 -0.00000000000E+00  0.00000000000E+00  0.86519442862E+02  0.86519442899E+02  0.25500000000E-02 0. -1.
          2   -1    0    0  501    0  0.00000000000E+00 -0.00000000000E+00 -0.11430395519E+04  0.11430395519E+04  0.25500000000E-02 0.  1.
    5000001    1    1    2    0    0  0.66498248094E+02  0.25879880499E+03 -0.56046052331E+03  0.64244831438E+03  0.16500000000E+03 0.  0.
   -5000001    1    1    2    0    0 -0.66498248094E+02 -0.25879880499E+03 -0.49605958568E+03  0.58711068037E+03  0.16500000000E+03 0.  0.
<mgrwt>
<rscale>  0 0.62895197E+03</rscale>
<asrwt>0</asrwt>
<pdfrwt beam="1">  1        2 0.16329136E+00 0.62895197E+03</pdfrwt>
<pdfrwt beam="2">  1       -2 0.12359921E-01 0.62895197E+03</pdfrwt>
<totfact> 0.11247298E+03</totfact>
</mgrwt>
</event>
<event>
 4    1  0.1025337E-004  0.5629037E+03  0.7818608E-02  0.9985506E-01
          2   -1    0    0  501    0  0.00000000000E+00  0.00000000000E+00  0.55942724961E+03  0.55942724962E+03  0.25500000000E-02 0.  1.
         -2   -1    0    0    0  501 -0.00000000000E+00 -0.00000000000E+00 -0.14160046359E+03  0.14160046362E+03  0.25500000000E-02 0. -1.
    5000001    1    1    2    0    0  0.21372653939E+03 -0.37942268097E+02  0.29583600734E+03  0.40232150401E+03  0.16500000000E+03 0.  0.
   -5000001    1    1    2    0    0 -0.21372653939E+03  0.37942268097E+02  0.12199077869E+03  0.29870620923E+03  0.16500000000E+03 0.  0.
<mgrwt>
<rscale>  0 0.56290375E+03</rscale>
<asrwt>0</asrwt>
<pdfrwt beam="1">  1        2 0.79918178E-01 0.56290375E+03</pdfrwt>
<pdfrwt beam="2">  1       -2 0.20228638E-01 0.56290375E+03</pdfrwt>
<totfact> 0.12332273E+03</totfact>
</mgrwt>
</event>
<event>
 4    1  0.1025337E-004  0.5045101E+03  0.7818608E-02  0.1012608E+00
          2   -1    0    0  501    0  0.00000000000E+00  0.00000000000E+00  0.11803742456E+04  0.11803742456E+04  0.25500000000E-02 0.  1.
         -2   -1    0    0    0  501 -0.00000000000E+00 -0.00000000000E+00 -0.53908837622E+02  0.53908837682E+02  0.25500000000E-02 0. -1.
    5000001    1    1    2    0    0 -0.93157518038E+02 -0.23214492956E+02  0.15981730204E+03  0.24896547127E+03  0.16500000000E+03 0.  0.
   -5000001    1    1    2    0    0  0.93157518038E+02  0.23214492956E+02  0.96664810596E+03  0.98531761204E+03  0.16500000000E+03 0.  0.
<mgrwt>
<rscale>  0 0.50451007E+03</rscale>
<asrwt>0</asrwt>
<pdfrwt beam="1">  1        2 0.16862489E+00 0.50451007E+03</pdfrwt>
<pdfrwt beam="2">  1       -2 0.77012628E-02 0.50451007E+03</pdfrwt>
<totfact> 0.23068234E+03</totfact>
</mgrwt>
</event>
<event>
 4    1  0.1025337E-004  0.5578488E+03  0.7818608E-02  0.9996934E-01
          2   -1    0    0  501    0  0.00000000000E+00  0.00000000000E+00  0.17145590421E+04  0.17145590421E+04  0.25500000000E-02 0.  1.
         -2   -1    0    0    0  501 -0.00000000000E+00 -0.00000000000E+00 -0.45375406101E+02  0.45375406173E+02  0.25500000000E-02 0. -1.
    5000001    1    1    2    0    0 -0.76275216701E+02 -0.14297665923E+03  0.13265231207E+04  0.13465321472E+04  0.16500000000E+03 0.  0.
   -5000001    1    1    2    0    0  0.76275216701E+02  0.14297665923E+03  0.34266051530E+03  0.41340230105E+03  0.16500000000E+03 0.  0.
<mgrwt>
<rscale>  0 0.55784877E+03</rscale>
<asrwt>0</asrwt>
<pdfrwt beam="1">  1        2 0.24493701E+00 0.55784877E+03</pdfrwt>
<pdfrwt beam="2">  1       -2 0.64822008E-02 0.55784877E+03</pdfrwt>
<totfact> 0.15811205E+03</totfact>
</mgrwt>
</event>
<event>
 4    1  0.1025337E-004  0.5271923E+03  0.7818608E-02  0.1006915E+00
          2   -1    0    0  501    0  0.00000000000E+00  0.00000000000E+00  0.86323934589E+02  0.86323934627E+02  0.25500000000E-02 0.  1.
         -2   -1    0    0    0  501 -0.00000000000E+00 -0.00000000000E+00 -0.80490923162E+03  0.80490923162E+03  0.25500000000E-02 0. -1.
    5000001    1    1    2    0    0  0.97764063456E+02  0.17365084152E+03 -0.44458483639E+03  0.51438614252E+03  0.16500000000E+03 0.  0.
   -5000001    1    1    2    0    0 -0.97764063456E+02 -0.17365084152E+03 -0.27400046064E+03  0.37684702373E+03  0.16500000000E+03 0.  0.
<mgrwt>
<rscale>  0 0.52719231E+03</rscale>
<asrwt>0</asrwt>
<pdfrwt beam="1">  1        2 0.12331991E-01 0.52719231E+03</pdfrwt>
<pdfrwt beam="2">  1       -2 0.11498703E+00 0.52719231E+03</pdfrwt>
<totfact> 0.30480689E+02</totfact>
</mgrwt>
</event>
<event>
 4    1  0.1025337E-004  0.1194128E+04  0.7818608E-02  0.9118012E-01
          2   -1    0    0  501    0  0.00000000000E+00  0.00000000000E+00  0.15798778313E+04  0.15798778313E+04  0.25500000000E-02 0. -1.
         -2   -1    0    0    0  501 -0.00000000000E+00 -0.00000000000E+00 -0.22564101215E+03  0.22564101217E+03  0.25500000000E-02 0.  1.
    5000001    1    1    2    0    0  0.12940067111E+03  0.53925613580E+03  0.89994466592E+03  0.10698911699E+04  0.16500000000E+03 0.  0.
   -5000001    1    1    2    0    0 -0.12940067111E+03 -0.53925613580E+03  0.45429215327E+03  0.73562767362E+03  0.16500000000E+03 0.  0.
<mgrwt>
<rscale>  0 0.11941277E+04</rscale>
<asrwt>0</asrwt>
<pdfrwt beam="1">  1        2 0.22569684E+00 0.11941277E+04</pdfrwt>
<pdfrwt beam="2">  1       -2 0.32234430E-01 0.11941277E+04</pdfrwt>
<totfact> 0.11716800E+02</totfact>
</mgrwt>
</event>
<event>
 4    1  0.1025337E-004  0.9044116E+03  0.7818608E-02  0.9420083E-01
         -2   -1    0    0    0  501 -0.00000000000E+00  0.00000000000E+00  0.22263364596E+03  0.22263364597E+03  0.25500000000E-02 0. -1.
          2   -1    0    0  501    0  0.00000000000E+00 -0.00000000000E+00 -0.91850487814E+03  0.91850487815E+03  0.25500000000E-02 0.  1.
    5000001    1    1    2    0    0 -0.26234498982E+03 -0.12159326893E+03  0.38198661304E+02  0.33510290129E+03  0.16500000000E+03 0.  0.
   -5000001    1    1    2    0    0  0.26234498982E+03  0.12159326893E+03 -0.73406989349E+03  0.80603562282E+03  0.16500000000E+03 0.  0.
<mgrwt>
<rscale>  0 0.90441161E+03</rscale>
<asrwt>0</asrwt>
<pdfrwt beam="1">  1        2 0.13121498E+00 0.90441161E+03</pdfrwt>
<pdfrwt beam="2">  1       -2 0.31804807E-01 0.90441161E+03</pdfrwt>
<totfact> 0.29054546E+02</totfact>
</mgrwt>
</event>
<event>
 4    1  0.1025337E-004  0.9536837E+03  0.7818608E-02  0.9360855E-01
         -2   -1    0    0    0  501 -0.00000000000E+00  0.00000000000E+00  0.14860903354E+03  0.14860903357E+03  0.25500000000E-02 0.  1.
          2   -1    0    0  501    0  0.00000000000E+00 -0.00000000000E+00 -0.15300425457E+04  0.15300425457E+04  0.25500000000E-02 0. -1.
    5000001    1    1    2    0    0  0.44324159597E+03  0.27988745753E+02 -0.78561396871E+03  0.91742072689E+03  0.16500000000E+03 0.  0.
   -5000001    1    1    2    0    0 -0.44324159597E+03 -0.27988745753E+02 -0.59581954349E+03  0.76123085243E+03  0.16500000000E+03 0.  0.
<mgrwt>
<rscale>  0 0.95368369E+03</rscale>
<asrwt>0</asrwt>
<pdfrwt beam="1">  1        2 0.21857750E+00 0.95368369E+03</pdfrwt>
<pdfrwt beam="2">  1       -2 0.21229863E-01 0.95368369E+03</pdfrwt>
<totfact> 0.27058046E+02</totfact>
</mgrwt>
</event>
<event>
 4    1  0.1025337E-004  0.4910223E+03  0.7818608E-02  0.1016149E+00
          2   -1    0    0  501    0  0.00000000000E+00  0.00000000000E+00  0.32920151282E+03  0.32920151283E+03  0.25500000000E-02 0.  1.
         -2   -1    0    0    0  501 -0.00000000000E+00 -0.00000000000E+00 -0.18309677938E+03  0.18309677939E+03  0.25500000000E-02 0. -1.
    5000001    1    1    2    0    0 -0.52883510999E+02  0.14326636218E+03  0.17596098427E+03  0.28549813354E+03  0.16500000000E+03 0.  0.
   -5000001    1    1    2    0    0  0.52883510999E+02 -0.14326636218E+03 -0.29856250827E+02  0.22680015869E+03  0.16500000000E+03 0.  0.
<mgrwt>
<rscale>  0 0.49102235E+03</rscale>
<asrwt>0</asrwt>
<pdfrwt beam="1">  1        2 0.47028787E-01 0.49102235E+03</pdfrwt>
<pdfrwt beam="2">  1       -2 0.26156683E-01 0.49102235E+03</pdfrwt>
<totfact> 0.14154946E+03</totfact>
</mgrwt>
</event>
<event>
 4    1  0.1025337E-004  0.3754564E+03  0.7818608E-02  0.1052626E+00
          2   -1    0    0  501    0  0.00000000000E+00  0.00000000000E+00  0.89917835167E+03  0.89917835167E+03  0.25500000000E-02 0.  1.
         -2   -1    0    0    0  501 -0.00000000000E+00 -0.00000000000E+00 -0.39193413571E+02  0.39193413654E+02  0.25500000000E-02 0. -1.
    5000001    1    1    2    0    0  0.62772194838E+02  0.61127146989E+02  0.38390847169E+03  0.42695150916E+03  0.16500000000E+03 0.  0.
   -5000001    1    1    2    0    0 -0.62772194838E+02 -0.61127146989E+02  0.47607646641E+03  0.51142025617E+03  0.16500000000E+03 0.  0.
<mgrwt>
<rscale>  0 0.37545636E+03</rscale>
<asrwt>0</asrwt>
<pdfrwt beam="1">  1        2 0.12845404E+00 0.37545636E+03</pdfrwt>
<pdfrwt beam="2">  1       -2 0.55990594E-02 0.37545636E+03</pdfrwt>
<totfact> 0.55596060E+03</totfact>
</mgrwt>
</event>
<event>
 4    1  0.1025337E-004  0.4345929E+03  0.7818608E-02  0.1032419E+00
          2   -1    0    0  501    0  0.00000000000E+00  0.00000000000E+00  0.11465010154E+04  0.11465010154E+04  0.25500000000E-02 0.  1.
         -2   -1    0    0    0  501 -0.00000000000E+00 -0.00000000000E+00 -0.41184226506E+02  0.41184226585E+02  0.25500000000E-02 0. -1.
    5000001    1    1    2    0    0  0.10294159946E+03 -0.65326139727E+02  0.35695220753E+03  0.41170906705E+03  0.16500000000E+03 0.  0.
   -5000001    1    1    2    0    0 -0.10294159946E+03  0.65326139727E+02  0.74836458137E+03  0.77597617494E+03  0.16500000000E+03 0.  0.
<mgrwt>
<rscale>  0 0.43459295E+03</rscale>
<asrwt>0</asrwt>
<pdfrwt beam="1">  1        2 0.16378585E+00 0.43459295E+03</pdfrwt>
<pdfrwt beam="2">  1       -2 0.58834613E-02 0.43459295E+03</pdfrwt>
<totfact> 0.36754693E+03</totfact>
</mgrwt>
</event>
<event>
 4    1  0.1025337E-004  0.4167298E+03  0.7818608E-02  0.1038136E+00
          2   -1    0    0  501    0  0.00000000000E+00  0.00000000000E+00  0.14357850211E+04  0.14357850211E+04  0.25500000000E-02 0.  1.
         -2   -1    0    0    0  501 -0.00000000000E+00 -0.00000000000E+00 -0.30238464953E+02  0.30238465061E+02  0.25500000000E-02 0. -1.
    5000001    1    1    2    0    0  0.39163128547E+02  0.12075744396E+03  0.67234289425E+03  0.70383668443E+03  0.16500000000E+03 0.  0.
   -5000001    1    1    2    0    0 -0.39163128547E+02 -0.12075744396E+03  0.73320366189E+03  0.76218680172E+03  0.16500000000E+03 0.  0.
<mgrwt>
<rscale>  0 0.41672982E+03</rscale>
<asrwt>0</asrwt>
<pdfrwt beam="1">  1        2 0.20511219E+00 0.41672982E+03</pdfrwt>
<pdfrwt beam="2">  1       -2 0.43197798E-02 0.41672982E+03</pdfrwt>
<totfact> 0.41281973E+03</totfact>
</mgrwt>
</event>
<event>
 4    1  0.1025337E-004  0.4588850E+03  0.7818608E-02  0.1025105E+00
          2   -1    0    0  501    0  0.00000000000E+00  0.00000000000E+00  0.10820640750E+04  0.10820640750E+04  0.25500000000E-02 0.  1.
         -2   -1    0    0    0  501 -0.00000000000E+00 -0.00000000000E+00 -0.48651334135E+02  0.48651334202E+02  0.25500000000E-02 0. -1.
    5000001    1    1    2    0    0  0.15886582326E+03 -0.74519711692E+01  0.48915974665E+03  0.54018158004E+03  0.16500000000E+03 0.  0.
   -5000001    1    1    2    0    0 -0.15886582326E+03  0.74519711692E+01  0.54425299421E+03  0.59053382916E+03  0.16500000000E+03 0.  0.
<mgrwt>
<rscale>  0 0.45888500E+03</rscale>
<asrwt>0</asrwt>
<pdfrwt beam="1">  1        2 0.15458057E+00 0.45888500E+03</pdfrwt>
<pdfrwt beam="2">  1       -2 0.69501913E-02 0.45888500E+03</pdfrwt>
<totfact> 0.30855045E+03</totfact>
</mgrwt>
</event>
<event>
 4    1  0.1025337E-004  0.4578984E+03  0.7818608E-02  0.1025393E+00
         -2   -1    0    0    0  501 -0.00000000000E+00  0.00000000000E+00  0.40913244358E+03  0.40913244359E+03  0.25500000000E-02 0. -1.
          2   -1    0    0  501    0  0.00000000000E+00 -0.00000000000E+00 -0.12811924107E+03  0.12811924110E+03  0.25500000000E-02 0.  1.
    5000001    1    1    2    0    0  0.14767111499E+03  0.48172686262E+02  0.10221007818E+03  0.24859458157E+03  0.16500000000E+03 0.  0.
   -5000001    1    1    2    0    0 -0.14767111499E+03 -0.48172686262E+02  0.17880312433E+03  0.28865710311E+03  0.16500000000E+03 0.  0.
<mgrwt>
<rscale>  0 0.45789841E+03</rscale>
<asrwt>0</asrwt>
<pdfrwt beam="1">  1        2 0.18302749E-01 0.45789841E+03</pdfrwt>
<pdfrwt beam="2">  1       -2 0.58447492E-01 0.45789841E+03</pdfrwt>
<totfact> 0.86665867E+02</totfact>
</mgrwt>
</event>
<event>
 4    1  0.1025337E-004  0.4379920E+03  0.7818608E-02  0.1031365E+00
         -2   -1    0    0    0  501 -0.00000000000E+00  0.00000000000E+00  0.34210865443E+02  0.34210865538E+02  0.25500000000E-02 0. -1.
          2   -1    0    0  501    0  0.00000000000E+00 -0.00000000000E+00 -0.14018719392E+04  0.14018719392E+04  0.25500000000E-02 0.  1.
    5000001    1    1    2    0    0 -0.13553452680E+02 -0.13138019376E+03 -0.87189125747E+03  0.89714202679E+03  0.16500000000E+03 0.  0.
   -5000001    1    1    2    0    0  0.13553452680E+02  0.13138019376E+03 -0.49576981633E+03  0.53894077798E+03  0.16500000000E+03 0.  0.
<mgrwt>
<rscale>  0 0.43799202E+03</rscale>
<asrwt>0</asrwt>
<pdfrwt beam="1">  1        2 0.20026738E+00 0.43799202E+03</pdfrwt>
<pdfrwt beam="2">  1       -2 0.48872674E-02 0.43799202E+03</pdfrwt>
<totfact> 0.35590945E+03</totfact>
</mgrwt>
</event>
<event>
 4    1  0.1025337E-004  0.5747497E+03  0.7818608E-02  0.9959223E-01
         -2   -1    0    0    0  501 -0.00000000000E+00  0.00000000000E+00  0.47217482098E+02  0.47217482167E+02  0.25500000000E-02 0. -1.
          2   -1    0    0  501    0  0.00000000000E+00 -0.00000000000E+00 -0.17490199494E+04  0.17490199494E+04  0.25500000000E-02 0.  1.
    5000001    1    1    2    0    0  0.57499566213E+02 -0.19666792141E+03 -0.12123355304E+04  0.12405510508E+04  0.16500000000E+03 0.  0.
   -5000001    1    1    2    0    0 -0.57499566213E+02  0.19666792141E+03 -0.48946693688E+03  0.55568638073E+03  0.16500000000E+03 0.  0.
<mgrwt>
<rscale>  0 0.57474975E+03</rscale>
<asrwt>0</asrwt>
<pdfrwt beam="1">  1        2 0.24985995E+00 0.57474975E+03</pdfrwt>
<pdfrwt beam="2">  1       -2 0.67453557E-02 0.57474975E+03</pdfrwt>
<totfact> 0.14257333E+03</totfact>
</mgrwt>
</event>
