<event>
 4    1  0.2058931E-005  0.5619438E+03  0.7818608E-02  0.9987666E-01
          2   -1    0    0  501    0  0.00000000000E+00  0.00000000000E+00  0.24129464039E+04  0.24129464039E+04  0.25500000000E-02 0.  1.
         -2   -1    0    0    0  501 -0.00000000000E+00 -0.00000000000E+00 -0.32717345294E+02  0.32717345393E+02  0.25500000000E-02 0. -1.
    5000001    1    1    2    0    0  0.16354116658E+03  0.88726796233E+02  0.15660920358E+04  0.15887499558E+04  0.19200000000E+03 0.  0.
   -5000001    1    1    2    0    0 -0.16354116658E+03 -0.88726796233E+02  0.81413702280E+03  0.85691379346E+03  0.19200000000E+03 0.  0.
<mgrwt>
<rscale>  0 0.56194377E+03</rscale>
<asrwt>0</asrwt>
<pdfrwt beam="1">  1        2 0.34470662E+00 0.56194377E+03</pdfrwt>
<pdfrwt beam="2">  1       -2 0.46739066E-02 0.56194377E+03</pdfrwt>
<totfact> 0.11710285E+03</totfact>
</mgrwt>
</event>
<event>
 4    1  0.2058931E-005  0.9024462E+03  0.7818608E-02  0.9422529E-01
         -2   -1    0    0    0  501 -0.00000000000E+00  0.00000000000E+00  0.93848225776E+02  0.93848225811E+02  0.25500000000E-02 0. -1.
          2   -1    0    0  501    0  0.00000000000E+00 -0.00000000000E+00 -0.21694845573E+04  0.21694845573E+04  0.25500000000E-02 0.  1.
    5000001    1    1    2    0    0  0.26996216157E+03  0.12304236835E+03 -0.33415037932E+03  0.48635323489E+03  0.19200000000E+03 0.  0.
   -5000001    1    1    2    0    0 -0.26996216157E+03 -0.12304236835E+03 -0.17414859522E+04  0.17769795482E+04  0.19200000000E+03 0.  0.
<mgrwt>
<rscale>  0 0.90244618E+03</rscale>
<asrwt>0</asrwt>
<pdfrwt beam="1">  1        2 0.30992633E+00 0.90244618E+03</pdfrwt>
<pdfrwt beam="2">  1       -2 0.13406891E-01 0.90244618E+03</pdfrwt>
<totfact> 0.28100843E+02</totfact>
</mgrwt>
</event>
<event>
 4    1  0.2058931E-005  0.1502840E+04  0.7818608E-02  0.8882566E-01
         -2   -1    0    0    0  501 -0.00000000000E+00  0.00000000000E+00  0.34196094555E+03  0.34196094555E+03  0.25500000000E-02 0. -1.
          2   -1    0    0  501    0  0.00000000000E+00 -0.00000000000E+00 -0.16511602697E+04  0.16511602697E+04  0.25500000000E-02 0.  1.
    5000001    1    1    2    0    0  0.71429245118E+03  0.29899053023E+02 -0.82578519159E+03  0.11090053389E+04  0.19200000000E+03 0.  0.
   -5000001    1    1    2    0    0 -0.71429245118E+03 -0.29899053023E+02 -0.48341413258E+03  0.88411587632E+03  0.19200000000E+03 0.  0.
<mgrwt>
<rscale>  0 0.15028404E+04</rscale>
<asrwt>0</asrwt>
<pdfrwt beam="1">  1        2 0.23588003E+00 0.15028404E+04</pdfrwt>
<pdfrwt beam="2">  1       -2 0.48851565E-01 0.15028404E+04</pdfrwt>
<totfact> 0.46683525E+01</totfact>
</mgrwt>
</event>
<event>
 4    1  0.2058931E-005  0.5396289E+03  0.7818608E-02  0.1003923E+00
         -2   -1    0    0    0  501 -0.00000000000E+00  0.00000000000E+00  0.22905082001E+03  0.22905082002E+03  0.25500000000E-02 0.  1.
          2   -1    0    0  501    0  0.00000000000E+00 -0.00000000000E+00 -0.31783267758E+03  0.31783267759E+03  0.25500000000E-02 0. -1.
    5000001    1    1    2    0    0 -0.16964261004E+03  0.73068795590E+01  0.41026382732E+02  0.25957497898E+03  0.19200000000E+03 0.  0.
   -5000001    1    1    2    0    0  0.16964261004E+03 -0.73068795590E+01 -0.12980824030E+03  0.28730851864E+03  0.19200000000E+03 0.  0.
<mgrwt>
<rscale>  0 0.53962889E+03</rscale>
<asrwt>0</asrwt>
<pdfrwt beam="1">  1        2 0.45404668E-01 0.53962889E+03</pdfrwt>
<pdfrwt beam="2">  1       -2 0.32721546E-01 0.53962889E+03</pdfrwt>
<totfact> 0.97568430E+02</totfact>
</mgrwt>
</event>
<event>
 4    1  0.2058931E-005  0.4421384E+03  0.7818608E-02  0.1030093E+00
          2   -1    0    0  501    0  0.00000000000E+00  0.00000000000E+00  0.30869571392E+03  0.30869571393E+03  0.25500000000E-02 0.  1.
         -2   -1    0    0    0  501 -0.00000000000E+00 -0.00000000000E+00 -0.15831638338E+03  0.15831638340E+03  0.25500000000E-02 0. -1.
    5000001    1    1    2    0    0 -0.10923351512E+03  0.84375423120E+01  0.77414349027E+02  0.23422240367E+03  0.19200000000E+03 0.  0.
   -5000001    1    1    2    0    0  0.10923351512E+03 -0.84375423120E+01  0.72964981514E+02  0.23278969366E+03  0.19200000000E+03 0.  0.
<mgrwt>
<rscale>  0 0.44213839E+03</rscale>
<asrwt>0</asrwt>
<pdfrwt beam="1">  1        2 0.44099387E-01 0.44213839E+03</pdfrwt>
<pdfrwt beam="2">  1       -2 0.22616627E-01 0.44213839E+03</pdfrwt>
<totfact> 0.19656178E+03</totfact>
</mgrwt>
</event>
<event>
 4    1  0.2058931E-005  0.6362655E+03  0.7818608E-02  0.9832898E-01
          2   -1    0    0  501    0  0.00000000000E+00  0.00000000000E+00  0.17042614887E+04  0.17042614887E+04  0.25500000000E-02 0.  1.
         -2   -1    0    0    0  501 -0.00000000000E+00 -0.00000000000E+00 -0.59385506501E+02  0.59385506556E+02  0.25500000000E-02 0. -1.
    5000001    1    1    2    0    0 -0.91442850258E+02  0.20063219983E+03  0.47479873800E+03  0.55759565644E+03  0.19200000000E+03 0.  0.
   -5000001    1    1    2    0    0  0.91442850258E+02 -0.20063219983E+03  0.11700772442E+04  0.12060513388E+04  0.19200000000E+03 0.  0.
<mgrwt>
<rscale>  0 0.63626545E+03</rscale>
<asrwt>0</asrwt>
<pdfrwt beam="1">  1        2 0.24346591E+00 0.63626545E+03</pdfrwt>
<pdfrwt beam="2">  1       -2 0.84836445E-02 0.63626545E+03</pdfrwt>
<totfact> 0.10408718E+03</totfact>
</mgrwt>
</event>
<event>
 4    1  0.2058931E-005  0.5531248E+03  0.7818608E-02  0.1000773E+00
          2   -1    0    0  501    0  0.00000000000E+00  0.00000000000E+00  0.21407280981E+04  0.21407280981E+04  0.25500000000E-02 0.  1.
         -2   -1    0    0    0  501 -0.00000000000E+00 -0.00000000000E+00 -0.35729320271E+02  0.35729320362E+02  0.25500000000E-02 0. -1.
    5000001    1    1    2    0    0  0.13361837559E+03  0.43793566011E+02  0.16068932164E+04  0.16244203753E+04  0.19200000000E+03 0.  0.
   -5000001    1    1    2    0    0 -0.13361837559E+03 -0.43793566011E+02  0.49810556145E+03  0.55203704320E+03  0.19200000000E+03 0.  0.
<mgrwt>
<rscale>  0 0.55312480E+03</rscale>
<asrwt>0</asrwt>
<pdfrwt beam="1">  1        2 0.30581821E+00 0.55312480E+03</pdfrwt>
<pdfrwt beam="2">  1       -2 0.51041901E-02 0.55312480E+03</pdfrwt>
<totfact> 0.14026741E+03</totfact>
</mgrwt>
</event>
<event>
 4    1  0.2058931E-005  0.6786925E+03  0.7818608E-02  0.9754381E-01
         -2   -1    0    0    0  501 -0.00000000000E+00  0.00000000000E+00  0.69167567766E+02  0.69167567813E+02  0.25500000000E-02 0. -1.
          2   -1    0    0  501    0  0.00000000000E+00 -0.00000000000E+00 -0.16648825760E+04  0.16648825760E+04  0.25500000000E-02 0.  1.
    5000001    1    1    2    0    0  0.39571930079E+02 -0.27159554944E+03 -0.65880899371E+03  0.73906925949E+03  0.19200000000E+03 0.  0.
   -5000001    1    1    2    0    0 -0.39571930079E+02  0.27159554944E+03 -0.93690601448E+03  0.99498088428E+03  0.19200000000E+03 0.  0.
<mgrwt>
<rscale>  0 0.67869250E+03</rscale>
<asrwt>0</asrwt>
<pdfrwt beam="1">  1        2 0.23784034E+00 0.67869250E+03</pdfrwt>
<pdfrwt beam="2">  1       -2 0.98810821E-02 0.67869250E+03</pdfrwt>
<totfact> 0.85081335E+02</totfact>
</mgrwt>
</event>
<event>
 4    1  0.2058931E-005  0.8003230E+03  0.7818608E-02  0.9559550E-01
          2   -1    0    0  501    0  0.00000000000E+00  0.00000000000E+00  0.45329302195E+03  0.45329302196E+03  0.25500000000E-02 0.  1.
         -2   -1    0    0    0  501 -0.00000000000E+00 -0.00000000000E+00 -0.35325760619E+03  0.35325760620E+03  0.25500000000E-02 0. -1.
    5000001    1    1    2    0    0  0.72470966837E+02  0.30539268775E+03  0.20855833257E+03  0.42293889967E+03  0.19200000000E+03 0.  0.
   -5000001    1    1    2    0    0 -0.72470966837E+02 -0.30539268775E+03 -0.10852291681E+03  0.38361172849E+03  0.19200000000E+03 0.  0.
<mgrwt>
<rscale>  0 0.80032295E+03</rscale>
<asrwt>0</asrwt>
<pdfrwt beam="1">  1        2 0.64756146E-01 0.80032295E+03</pdfrwt>
<pdfrwt beam="2">  1       -2 0.50465372E-01 0.80032295E+03</pdfrwt>
<totfact> 0.28062170E+02</totfact>
</mgrwt>
</event>
<event>
 4    1  0.2058931E-005  0.7179554E+03  0.7818608E-02  0.9687009E-01
          2   -1    0    0  501    0  0.00000000000E+00  0.00000000000E+00  0.14321194586E+04  0.14321194587E+04  0.25500000000E-02 0.  1.
         -2   -1    0    0    0  501 -0.00000000000E+00 -0.00000000000E+00 -0.89982021462E+02  0.89982021498E+02  0.25500000000E-02 0. -1.
    5000001    1    1    2    0    0  0.22162776926E+03  0.15772278414E+03  0.95554799153E+03  0.10118949100E+04  0.19200000000E+03 0.  0.
   -5000001    1    1    2    0    0 -0.22162776926E+03 -0.15772278414E+03  0.38658944566E+03  0.51020657016E+03  0.19200000000E+03 0.  0.
<mgrwt>
<rscale>  0 0.71795544E+03</rscale>
<asrwt>0</asrwt>
<pdfrwt beam="1">  1        2 0.20458849E+00 0.71795544E+03</pdfrwt>
<pdfrwt beam="2">  1       -2 0.12854575E-01 0.71795544E+03</pdfrwt>
<totfact> 0.72877159E+02</totfact>
</mgrwt>
</event>
<event>
 4    1  0.2058931E-005  0.6445279E+03  0.7818608E-02  0.9817102E-01
         -2   -1    0    0    0  501 -0.00000000000E+00  0.00000000000E+00  0.20065239488E+02  0.20065239650E+02  0.25500000000E-02 0. -1.
          2   -1    0    0  501    0  0.00000000000E+00 -0.00000000000E+00 -0.51758190791E+04  0.51758190791E+04  0.25500000000E-02 0.  1.
    5000001    1    1    2    0    0 -0.14770035929E+03 -0.18039098874E+03 -0.34839929426E+04  0.34970597835E+04  0.19200000000E+03 0.  0.
   -5000001    1    1    2    0    0  0.14770035929E+03  0.18039098874E+03 -0.16717608970E+04  0.16988245352E+04  0.19200000000E+03 0.  0.
<mgrwt>
<rscale>  0 0.64452789E+03</rscale>
<asrwt>0</asrwt>
<pdfrwt beam="1">  1        2 0.73940187E+00 0.64452789E+03</pdfrwt>
<pdfrwt beam="2">  1       -2 0.28664661E-02 0.64452789E+03</pdfrwt>
<totfact> 0.33624326E+01</totfact>
</mgrwt>
</event>
<event>
 4    1  0.2058931E-005  0.6917316E+03  0.7818608E-02  0.9731478E-01
         -2   -1    0    0    0  501 -0.00000000000E+00  0.00000000000E+00  0.34361837050E+02  0.34361837144E+02  0.25500000000E-02 0. -1.
          2   -1    0    0  501    0  0.00000000000E+00 -0.00000000000E+00 -0.34812788851E+04  0.34812788851E+04  0.25500000000E-02 0.  1.
    5000001    1    1    2    0    0  0.11546628894E+03  0.19580426912E+03 -0.82735366479E+03  0.87923254167E+03  0.19200000000E+03 0.  0.
   -5000001    1    1    2    0    0 -0.11546628894E+03 -0.19580426912E+03 -0.26195633833E+04  0.26364081806E+04  0.19200000000E+03 0.  0.
<mgrwt>
<rscale>  0 0.69173156E+03</rscale>
<asrwt>0</asrwt>
<pdfrwt beam="1">  1        2 0.49732533E+00 0.69173156E+03</pdfrwt>
<pdfrwt beam="2">  1       -2 0.49088361E-02 0.69173156E+03</pdfrwt>
<totfact> 0.28119071E+02</totfact>
</mgrwt>
</event>
<event>
 4    1  0.2058931E-005  0.4538219E+03  0.7818608E-02  0.1026588E+00
         -2   -1    0    0    0  501 -0.00000000000E+00  0.00000000000E+00  0.17001430541E+02  0.17001430732E+02  0.25500000000E-02 0. -1.
          2   -1    0    0  501    0  0.00000000000E+00 -0.00000000000E+00 -0.30284856231E+04  0.30284856231E+04  0.25500000000E-02 0.  1.
    5000001    1    1    2    0    0  0.10097526784E+03 -0.55256031792E+02 -0.17546155619E+04  0.17688383204E+04  0.19200000000E+03 0.  0.
   -5000001    1    1    2    0    0 -0.10097526784E+03  0.55256031792E+02 -0.12568686307E+04  0.12766487334E+04  0.19200000000E+03 0.  0.
<mgrwt>
<rscale>  0 0.45382194E+03</rscale>
<asrwt>0</asrwt>
<pdfrwt beam="1">  1        2 0.43264046E+00 0.45382194E+03</pdfrwt>
<pdfrwt beam="2">  1       -2 0.24287777E-02 0.45382194E+03</pdfrwt>
<totfact> 0.15233755E+03</totfact>
</mgrwt>
</event>
<event>
 4    1  0.2058931E-005  0.4274173E+03  0.7818608E-02  0.1034679E+00
         -2   -1    0    0    0  501 -0.00000000000E+00  0.00000000000E+00  0.21720890108E+02  0.21720890258E+02  0.25500000000E-02 0. -1.
          2   -1    0    0  501    0  0.00000000000E+00 -0.00000000000E+00 -0.21026485268E+04  0.21026485268E+04  0.25500000000E-02 0.  1.
    5000001    1    1    2    0    0  0.79084598489E+02 -0.28323007686E+02 -0.12484335061E+04  0.12659015703E+04  0.19200000000E+03 0.  0.
   -5000001    1    1    2    0    0 -0.79084598489E+02  0.28323007686E+02 -0.83249413056E+03  0.85846784675E+03  0.19200000000E+03 0.  0.
<mgrwt>
<rscale>  0 0.42741735E+03</rscale>
<asrwt>0</asrwt>
<pdfrwt beam="1">  1        2 0.30037823E+00 0.42741735E+03</pdfrwt>
<pdfrwt beam="2">  1       -2 0.31029857E-02 0.42741735E+03</pdfrwt>
<totfact> 0.31539640E+03</totfact>
</mgrwt>
</event>
<event>
 4    1  0.2058931E-005  0.5802160E+03  0.7818608E-02  0.9947323E-01
          2   -1    0    0  501    0  0.00000000000E+00  0.00000000000E+00  0.33537785692E+03  0.33537785693E+03  0.25500000000E-02 0.  1.
         -2   -1    0    0    0  501 -0.00000000000E+00 -0.00000000000E+00 -0.25094874200E+03  0.25094874201E+03  0.25500000000E-02 0. -1.
    5000001    1    1    2    0    0  0.15909914847E+03 -0.81419350037E+02 -0.83013923583E+02  0.27513080728E+03  0.19200000000E+03 0.  0.
   -5000001    1    1    2    0    0 -0.15909914847E+03  0.81419350037E+02  0.16744303851E+03  0.31119579166E+03  0.19200000000E+03 0.  0.
<mgrwt>
<rscale>  0 0.58021600E+03</rscale>
<asrwt>0</asrwt>
<pdfrwt beam="1">  1        2 0.47911122E-01 0.58021600E+03</pdfrwt>
<pdfrwt beam="2">  1       -2 0.35849820E-01 0.58021600E+03</pdfrwt>
<totfact> 0.77393889E+02</totfact>
</mgrwt>
</event>
<event>
 4    1  0.2058931E-005  0.5466527E+03  0.7818608E-02  0.1002272E+00
          2   -1    0    0  501    0  0.00000000000E+00  0.00000000000E+00  0.61312421664E+03  0.61312421664E+03  0.25500000000E-02 0.  1.
         -2   -1    0    0    0  501 -0.00000000000E+00 -0.00000000000E+00 -0.12184689647E+03  0.12184689650E+03  0.25500000000E-02 0. -1.
    5000001    1    1    2    0    0  0.98037479153E+02 -0.93936478971E+01  0.20085268644E+02  0.21671872544E+03  0.19200000000E+03 0.  0.
   -5000001    1    1    2    0    0 -0.98037479153E+02  0.93936478971E+01  0.47119205152E+03  0.51825238770E+03  0.19200000000E+03 0.  0.
<mgrwt>
<rscale>  0 0.54665266E+03</rscale>
<asrwt>0</asrwt>
<pdfrwt beam="1">  1        2 0.87589175E-01 0.54665266E+03</pdfrwt>
<pdfrwt beam="2">  1       -2 0.17406699E-01 0.54665266E+03</pdfrwt>
<totfact> 0.14359363E+03</totfact>
</mgrwt>
</event>
<event>
 4    1  0.2058931E-005  0.6874396E+03  0.7818608E-02  0.9738956E-01
          2   -1    0    0  501    0  0.00000000000E+00  0.00000000000E+00  0.44699370320E+03  0.44699370320E+03  0.25500000000E-02 0.  1.
         -2   -1    0    0    0  501 -0.00000000000E+00 -0.00000000000E+00 -0.26430644023E+03  0.26430644024E+03  0.25500000000E-02 0. -1.
    5000001    1    1    2    0    0  0.53120874441E+02  0.28001314991E+03  0.98669130373E+02  0.35753152128E+03  0.19200000000E+03 0.  0.
   -5000001    1    1    2    0    0 -0.53120874441E+02 -0.28001314991E+03  0.84018132594E+02  0.35376862216E+03  0.19200000000E+03 0.  0.
<mgrwt>
<rscale>  0 0.68743964E+03</rscale>
<asrwt>0</asrwt>
<pdfrwt beam="1">  1        2 0.63856243E-01 0.68743964E+03</pdfrwt>
<pdfrwt beam="2">  1       -2 0.37758063E-01 0.68743964E+03</pdfrwt>
<totfact> 0.50812061E+02</totfact>
</mgrwt>
</event>
<event>
 4    1  0.2058931E-005  0.1148798E+04  0.7818608E-02  0.9158893E-01
         -2   -1    0    0    0  501 -0.00000000000E+00  0.00000000000E+00  0.17464352212E+03  0.17464352214E+03  0.25500000000E-02 0. -1.
          2   -1    0    0  501    0  0.00000000000E+00 -0.00000000000E+00 -0.18891854970E+04  0.18891854970E+04  0.25500000000E-02 0.  1.
    5000001    1    1    2    0    0  0.35263734710E+03 -0.34090881920E+03 -0.44564582189E+03  0.68995370870E+03  0.19200000000E+03 0.  0.
   -5000001    1    1    2    0    0 -0.35263734710E+03  0.34090881920E+03 -0.12688961530E+04  0.13738753104E+04  0.19200000000E+03 0.  0.
<mgrwt>
<rscale>  0 0.11487976E+04</rscale>
<asrwt>0</asrwt>
<pdfrwt beam="1">  1        2 0.26988363E+00 0.11487976E+04</pdfrwt>
<pdfrwt beam="2">  1       -2 0.24949076E-01 0.11487976E+04</pdfrwt>
<totfact> 0.13044054E+02</totfact>
</mgrwt>
</event>
<event>
 4    1  0.2058931E-005  0.4339745E+03  0.7818608E-02  0.1032612E+00
          2   -1    0    0  501    0  0.00000000000E+00  0.00000000000E+00  0.38695289914E+03  0.38695289914E+03  0.25500000000E-02 0.  1.
         -2   -1    0    0    0  501 -0.00000000000E+00 -0.00000000000E+00 -0.12167753583E+03  0.12167753585E+03  0.25500000000E-02 0. -1.
    5000001    1    1    2    0    0 -0.80857445584E+02 -0.37861066642E+02  0.18820824292E+03  0.28329795195E+03  0.19200000000E+03 0.  0.
   -5000001    1    1    2    0    0  0.80857445584E+02  0.37861066642E+02  0.77067120384E+02  0.22533248305E+03  0.19200000000E+03 0.  0.
<mgrwt>
<rscale>  0 0.43397454E+03</rscale>
<asrwt>0</asrwt>
<pdfrwt beam="1">  1        2 0.55278985E-01 0.43397454E+03</pdfrwt>
<pdfrwt beam="2">  1       -2 0.17382505E-01 0.43397454E+03</pdfrwt>
<totfact> 0.24183026E+03</totfact>
</mgrwt>
</event>
<event>
 4    1  0.2058931E-005  0.5047424E+03  0.7818608E-02  0.1012548E+00
          2   -1    0    0  501    0  0.00000000000E+00  0.00000000000E+00  0.19936463037E+03  0.19936463039E+03  0.25500000000E-02 0.  1.
         -2   -1    0    0    0  501 -0.00000000000E+00 -0.00000000000E+00 -0.31947102019E+03  0.31947102020E+03  0.25500000000E-02 0. -1.
    5000001    1    1    2    0    0 -0.75669175341E+02  0.13497529666E+03 -0.48597634353E+01  0.24664097816E+03  0.19200000000E+03 0.  0.
   -5000001    1    1    2    0    0  0.75669175341E+02 -0.13497529666E+03 -0.11524662639E+03  0.27219467243E+03  0.19200000000E+03 0.  0.
<mgrwt>
<rscale>  0 0.50474240E+03</rscale>
<asrwt>0</asrwt>
<pdfrwt beam="1">  1        2 0.28480662E-01 0.50474240E+03</pdfrwt>
<pdfrwt beam="2">  1       -2 0.45638717E-01 0.50474240E+03</pdfrwt>
<totfact> 0.86239028E+02</totfact>
</mgrwt>
</event>
<event>
 4    1  0.2058931E-005  0.7241129E+03  0.7818608E-02  0.9676862E-01
         -2   -1    0    0    0  501 -0.00000000000E+00  0.00000000000E+00  0.16917188906E+03  0.16917188908E+03  0.25500000000E-02 0.  1.
          2   -1    0    0  501    0  0.00000000000E+00 -0.00000000000E+00 -0.77486209450E+03  0.77486209451E+03  0.25500000000E-02 0. -1.
    5000001    1    1    2    0    0 -0.28893411768E+03 -0.10338857602E+03 -0.29374128881E+03  0.46617600406E+03  0.19200000000E+03 0.  0.
   -5000001    1    1    2    0    0  0.28893411768E+03  0.10338857602E+03 -0.31194891663E+03  0.47785797953E+03  0.19200000000E+03 0.  0.
<mgrwt>
<rscale>  0 0.72411293E+03</rscale>
<asrwt>0</asrwt>
<pdfrwt beam="1">  1        2 0.11069458E+00 0.72411293E+03</pdfrwt>
<pdfrwt beam="2">  1       -2 0.24167413E-01 0.72411293E+03</pdfrwt>
<totfact> 0.60556618E+02</totfact>
</mgrwt>
</event>
<event>
 4    1  0.2058931E-005  0.7173313E+03  0.7818608E-02  0.9688044E-01
         -2   -1    0    0    0  501 -0.00000000000E+00  0.00000000000E+00  0.32578012843E+03  0.32578012844E+03  0.25500000000E-02 0. -1.
          2   -1    0    0  501    0  0.00000000000E+00 -0.00000000000E+00 -0.39487077356E+03  0.39487077357E+03  0.25500000000E-02 0.  1.
    5000001    1    1    2    0    0 -0.18367567369E+02 -0.28176060038E+03  0.75738128203E+02  0.34975229452E+03  0.19200000000E+03 0.  0.
   -5000001    1    1    2    0    0  0.18367567369E+02  0.28176060038E+03 -0.14482877333E+03  0.37089860749E+03  0.19200000000E+03 0.  0.
<mgrwt>
<rscale>  0 0.71733131E+03</rscale>
<asrwt>0</asrwt>
<pdfrwt beam="1">  1        2 0.56410110E-01 0.71733131E+03</pdfrwt>
<pdfrwt beam="2">  1       -2 0.46540019E-01 0.71733131E+03</pdfrwt>
<totfact> 0.38694068E+02</totfact>
</mgrwt>
</event>
<event>
 4    1  0.2058931E-005  0.7362141E+03  0.7818608E-02  0.9657230E-01
         -2   -1    0    0    0  501 -0.00000000000E+00  0.00000000000E+00  0.30240449504E+02  0.30240449612E+02  0.25500000000E-02 0. -1.
          2   -1    0    0  501    0  0.00000000000E+00 -0.00000000000E+00 -0.44808459469E+04  0.44808459469E+04  0.25500000000E-02 0.  1.
    5000001    1    1    2    0    0 -0.16906562152E+03 -0.24476620229E+03 -0.16081316712E+04  0.16466466379E+04  0.19200000000E+03 0.  0.
   -5000001    1    1    2    0    0  0.16906562152E+03  0.24476620229E+03 -0.28424738262E+04  0.28644397586E+04  0.19200000000E+03 0.  0.
<mgrwt>
<rscale>  0 0.73621409E+03</rscale>
<asrwt>0</asrwt>
<pdfrwt beam="1">  1        2 0.64012043E+00 0.73621409E+03</pdfrwt>
<pdfrwt beam="2">  1       -2 0.43200671E-02 0.73621409E+03</pdfrwt>
<totfact> 0.72505207E+01</totfact>
</mgrwt>
</event>
<event>
 4    1  0.2058931E-005  0.4472236E+03  0.7818608E-02  0.1028553E+00
          2   -1    0    0  501    0  0.00000000000E+00  0.00000000000E+00  0.59757508430E+03  0.59757508430E+03  0.25500000000E-02 0.  1.
         -2   -1    0    0    0  501 -0.00000000000E+00 -0.00000000000E+00 -0.83675252167E+02  0.83675252206E+02  0.25500000000E-02 0. -1.
    5000001    1    1    2    0    0 -0.17304499400E+02 -0.10477734128E+03  0.32265483118E+03  0.39018953988E+03  0.19200000000E+03 0.  0.
   -5000001    1    1    2    0    0  0.17304499400E+02  0.10477734128E+03  0.19124500094E+03  0.29106079663E+03  0.19200000000E+03 0.  0.
<mgrwt>
<rscale>  0 0.44722364E+03</rscale>
<asrwt>0</asrwt>
<pdfrwt beam="1">  1        2 0.85367868E-01 0.44722364E+03</pdfrwt>
<pdfrwt beam="2">  1       -2 0.11953608E-01 0.44722364E+03</pdfrwt>
<totfact> 0.27694256E+03</totfact>
</mgrwt>
</event>
<event>
 4    1  0.2058931E-005  0.5854606E+03  0.7818608E-02  0.9936038E-01
         -2   -1    0    0    0  501 -0.00000000000E+00  0.00000000000E+00  0.31679860065E+02  0.31679860167E+02  0.25500000000E-02 0. -1.
          2   -1    0    0  501    0  0.00000000000E+00 -0.00000000000E+00 -0.27049052823E+04  0.27049052823E+04  0.25500000000E-02 0.  1.
    5000001    1    1    2    0    0 -0.55566532946E+02 -0.18532836043E+03 -0.18355272615E+04  0.18556558325E+04  0.19200000000E+03 0.  0.
   -5000001    1    1    2    0    0  0.55566532946E+02  0.18532836043E+03 -0.83769816068E+03  0.88092930997E+03  0.19200000000E+03 0.  0.
<mgrwt>
<rscale>  0 0.58546057E+03</rscale>
<asrwt>0</asrwt>
<pdfrwt beam="1">  1        2 0.38641489E+00 0.58546057E+03</pdfrwt>
<pdfrwt beam="2">  1       -2 0.45256960E-02 0.58546057E+03</pdfrwt>
<totfact> 0.86883536E+02</totfact>
</mgrwt>
</event>
<event>
 4    1  0.2058931E-005  0.4772340E+03  0.7818608E-02  0.1019898E+00
          2   -1    0    0  501    0  0.00000000000E+00  0.00000000000E+00  0.86895117128E+03  0.86895117129E+03  0.25500000000E-02 0.  1.
         -2   -1    0    0    0  501 -0.00000000000E+00 -0.00000000000E+00 -0.65525048126E+02  0.65525048176E+02  0.25500000000E-02 0. -1.
    5000001    1    1    2    0    0 -0.37959172454E+02  0.13227253195E+03  0.46774362221E+03  0.52400860451E+03  0.19200000000E+03 0.  0.
   -5000001    1    1    2    0    0  0.37959172454E+02 -0.13227253195E+03  0.33568250094E+03  0.41046761495E+03  0.19200000000E+03 0.  0.
<mgrwt>
<rscale>  0 0.47723398E+03</rscale>
<asrwt>0</asrwt>
<pdfrwt beam="1">  1        2 0.12413587E+00 0.47723398E+03</pdfrwt>
<pdfrwt beam="2">  1       -2 0.93607221E-02 0.47723398E+03</pdfrwt>
<totfact> 0.26002305E+03</totfact>
</mgrwt>
</event>
<event>
 4    1  0.2058931E-005  0.8343317E+03  0.7818608E-02  0.9511611E-01
         -2   -1    0    0    0  501 -0.00000000000E+00  0.00000000000E+00  0.29204710266E+03  0.29204710267E+03  0.25500000000E-02 0. -1.
          2   -1    0    0  501    0  0.00000000000E+00 -0.00000000000E+00 -0.59588801093E+03  0.59588801094E+03  0.25500000000E-02 0.  1.
    5000001    1    1    2    0    0  0.27066051899E+03 -0.24446894358E+03 -0.83433975103E+02  0.42053229259E+03  0.19200000000E+03 0.  0.
   -5000001    1    1    2    0    0 -0.27066051899E+03  0.24446894358E+03 -0.22040693317E+03  0.46740282102E+03  0.19200000000E+03 0.  0.
<mgrwt>
<rscale>  0 0.83433175E+03</rscale>
<asrwt>0</asrwt>
<pdfrwt beam="1">  1        2 0.85126858E-01 0.83433175E+03</pdfrwt>
<pdfrwt beam="2">  1       -2 0.41721015E-01 0.83433175E+03</pdfrwt>
<totfact> 0.29901962E+02</totfact>
</mgrwt>
</event>
<event>
 4    1  0.2058931E-005  0.1601322E+04  0.7818608E-02  0.8819736E-01
          2   -1    0    0  501    0  0.00000000000E+00  0.00000000000E+00  0.60282524986E+03  0.60282524987E+03  0.25500000000E-02 0.  1.
         -2   -1    0    0    0  501 -0.00000000000E+00 -0.00000000000E+00 -0.10634226694E+04  0.10634226694E+04  0.25500000000E-02 0. -1.
    5000001    1    1    2    0    0  0.74049436427E+03 -0.10569878816E+03 -0.10327604543E+02  0.77231780812E+03  0.19200000000E+03 0.  0.
   -5000001    1    1    2    0    0 -0.74049436427E+03  0.10569878816E+03 -0.45026981501E+03  0.89393011116E+03  0.19200000000E+03 0.  0.
<mgrwt>
<rscale>  0 0.16013220E+04</rscale>
<asrwt>0</asrwt>
<pdfrwt beam="1">  1        2 0.86117893E-01 0.16013220E+04</pdfrwt>
<pdfrwt beam="2">  1       -2 0.15191752E+00 0.16013220E+04</pdfrwt>
<totfact> 0.15012120E+01</totfact>
</mgrwt>
</event>
<event>
 4    1  0.2058931E-005  0.6572153E+03  0.7818608E-02  0.9793334E-01
          2   -1    0    0  501    0  0.00000000000E+00  0.00000000000E+00  0.54646803994E+03  0.54646803995E+03  0.25500000000E-02 0.  1.
         -2   -1    0    0    0  501 -0.00000000000E+00 -0.00000000000E+00 -0.19760167971E+03  0.19760167972E+03  0.25500000000E-02 0. -1.
    5000001    1    1    2    0    0 -0.13176502145E+03 -0.20243315829E+03  0.30241077597E+03  0.43203875043E+03  0.19200000000E+03 0.  0.
   -5000001    1    1    2    0    0  0.13176502145E+03  0.20243315829E+03  0.46455584266E+02  0.31203096924E+03  0.19200000000E+03 0.  0.
<mgrwt>
<rscale>  0 0.65721535E+03</rscale>
<asrwt>0</asrwt>
<pdfrwt beam="1">  1        2 0.78066865E-01 0.65721535E+03</pdfrwt>
<pdfrwt beam="2">  1       -2 0.28228811E-01 0.65721535E+03</pdfrwt>
<totfact> 0.69803588E+02</totfact>
</mgrwt>
</event>
<event>
 4    1  0.2058931E-005  0.4605127E+03  0.7818608E-02  0.1024633E+00
         -2   -1    0    0    0  501 -0.00000000000E+00  0.00000000000E+00  0.45723352359E+02  0.45723352431E+02  0.25500000000E-02 0. -1.
          2   -1    0    0  501    0  0.00000000000E+00 -0.00000000000E+00 -0.11595385791E+04  0.11595385791E+04  0.25500000000E-02 0.  1.
    5000001    1    1    2    0    0 -0.12373013076E+03  0.23079703649E+02 -0.60314971289E+03  0.64536454360E+03  0.19200000000E+03 0.  0.
   -5000001    1    1    2    0    0  0.12373013076E+03 -0.23079703649E+02 -0.51066551385E+03  0.55989738793E+03  0.19200000000E+03 0.  0.
<mgrwt>
<rscale>  0 0.46051272E+03</rscale>
<asrwt>0</asrwt>
<pdfrwt beam="1">  1        2 0.16564835E+00 0.46051272E+03</pdfrwt>
<pdfrwt beam="2">  1       -2 0.65319082E-02 0.46051272E+03</pdfrwt>
<totfact> 0.30712416E+03</totfact>
</mgrwt>
</event>
<event>
 4    1  0.2058931E-005  0.4990666E+03  0.7818608E-02  0.1014023E+00
         -2   -1    0    0    0  501 -0.00000000000E+00  0.00000000000E+00  0.53431517360E+03  0.53431517360E+03  0.25500000000E-02 0. -1.
          2   -1    0    0  501    0  0.00000000000E+00 -0.00000000000E+00 -0.11653586144E+03  0.11653586147E+03  0.25500000000E-02 0.  1.
    5000001    1    1    2    0    0  0.14253648369E+03  0.37547414524E+02  0.12981529253E+03  0.27466792258E+03  0.19200000000E+03 0.  0.
   -5000001    1    1    2    0    0 -0.14253648369E+03 -0.37547414524E+02  0.28796401963E+03  0.37618311249E+03  0.19200000000E+03 0.  0.
<mgrwt>
<rscale>  0 0.49906665E+03</rscale>
<asrwt>0</asrwt>
<pdfrwt beam="1">  1        2 0.16647980E-01 0.49906665E+03</pdfrwt>
<pdfrwt beam="2">  1       -2 0.76330739E-01 0.49906665E+03</pdfrwt>
<totfact> 0.54714288E+02</totfact>
</mgrwt>
</event>
<event>
 4    1  0.2058931E-005  0.5626866E+03  0.7818608E-02  0.9985994E-01
         -2   -1    0    0    0  501 -0.00000000000E+00  0.00000000000E+00  0.17614115834E+03  0.17614115836E+03  0.25500000000E-02 0. -1.
          2   -1    0    0  501    0  0.00000000000E+00 -0.00000000000E+00 -0.44937858388E+03  0.44937858389E+03  0.25500000000E-02 0.  1.
    5000001    1    1    2    0    0  0.46725677357E+01 -0.18107597010E+03 -0.28382578403E+02  0.26548052771E+03  0.19200000000E+03 0.  0.
   -5000001    1    1    2    0    0 -0.46725677357E+01  0.18107597010E+03 -0.24485484714E+03  0.36003921454E+03  0.19200000000E+03 0.  0.
<mgrwt>
<rscale>  0 0.56268664E+03</rscale>
<asrwt>0</asrwt>
<pdfrwt beam="1">  1        2 0.64196940E-01 0.56268664E+03</pdfrwt>
<pdfrwt beam="2">  1       -2 0.25163023E-01 0.56268664E+03</pdfrwt>
<totfact> 0.10755922E+03</totfact>
</mgrwt>
</event>
<event>
 4    1  0.2058931E-005  0.1059752E+04  0.7818608E-02  0.9245333E-01
          2   -1    0    0  501    0  0.00000000000E+00  0.00000000000E+00  0.26138904530E+03  0.26138904532E+03  0.25500000000E-02 0.  1.
         -2   -1    0    0    0  501 -0.00000000000E+00 -0.00000000000E+00 -0.10741408243E+04  0.10741408243E+04  0.25500000000E-02 0. -1.
    5000001    1    1    2    0    0 -0.22053569330E+03 -0.35815858558E+03 -0.80195537248E+02  0.46926419919E+03  0.19200000000E+03 0.  0.
   -5000001    1    1    2    0    0  0.22053569330E+03  0.35815858558E+03 -0.73255624175E+03  0.86626567043E+03  0.19200000000E+03 0.  0.
<mgrwt>
<rscale>  0 0.10597521E+04</rscale>
<asrwt>0</asrwt>
<pdfrwt beam="1">  1        2 0.37341293E-01 0.10597521E+04</pdfrwt>
<pdfrwt beam="2">  1       -2 0.15344869E+00 0.10597521E+04</pdfrwt>
<totfact> 0.39032992E+01</totfact>
</mgrwt>
</event>
<event>
 4    1  0.2058931E-005  0.6737217E+03  0.7818608E-02  0.9763258E-01
          2   -1    0    0  501    0  0.00000000000E+00  0.00000000000E+00  0.62555701855E+03  0.62555701855E+03  0.25500000000E-02 0.  1.
         -2   -1    0    0    0  501 -0.00000000000E+00 -0.00000000000E+00 -0.18139870934E+03  0.18139870936E+03  0.25500000000E-02 0. -1.
    5000001    1    1    2    0    0 -0.23048906102E+03  0.11469147038E+03  0.34382640498E+03  0.47048904066E+03  0.19200000000E+03 0.  0.
   -5000001    1    1    2    0    0  0.23048906102E+03 -0.11469147038E+03  0.10033190423E+03  0.33646668725E+03  0.19200000000E+03 0.  0.
<mgrwt>
<rscale>  0 0.67372171E+03</rscale>
<asrwt>0</asrwt>
<pdfrwt beam="1">  1        2 0.89365288E-01 0.67372171E+03</pdfrwt>
<pdfrwt beam="2">  1       -2 0.25914101E-01 0.67372171E+03</pdfrwt>
<totfact> 0.69570946E+02</totfact>
</mgrwt>
</event>
<event>
 4    1  0.2058931E-005  0.4396820E+03  0.7818608E-02  0.1030844E+00
          2   -1    0    0  501    0  0.00000000000E+00  0.00000000000E+00  0.41789686265E+02  0.41789686343E+02  0.25500000000E-02 0.  1.
         -2   -1    0    0    0  501 -0.00000000000E+00 -0.00000000000E+00 -0.11565068309E+04  0.11565068309E+04  0.25500000000E-02 0. -1.
    5000001    1    1    2    0    0 -0.83176721729E+02 -0.11902827251E+02 -0.37645441449E+03  0.43086189263E+03  0.19200000000E+03 0.  0.
   -5000001    1    1    2    0    0  0.83176721729E+02  0.11902827251E+02 -0.73826273016E+03  0.76743462463E+03  0.19200000000E+03 0.  0.
<mgrwt>
<rscale>  0 0.43968197E+03</rscale>
<asrwt>0</asrwt>
<pdfrwt beam="1">  1        2 0.59699559E-02 0.43968197E+03</pdfrwt>
<pdfrwt beam="2">  1       -2 0.16521524E+00 0.43968197E+03</pdfrwt>
<totfact> 0.30626752E+02</totfact>
</mgrwt>
</event>
<event>
 4    1  0.2058931E-005  0.5004995E+03  0.7818608E-02  0.1013649E+00
          2   -1    0    0  501    0  0.00000000000E+00  0.00000000000E+00  0.45889686377E+03  0.45889686378E+03  0.25500000000E-02 0.  1.
         -2   -1    0    0    0  501 -0.00000000000E+00 -0.00000000000E+00 -0.13646845191E+03  0.13646845193E+03  0.25500000000E-02 0. -1.
    5000001    1    1    2    0    0  0.96339589811E+02  0.15499550425E+01  0.85202305228E+01  0.21498910031E+03  0.19200000000E+03 0.  0.
   -5000001    1    1    2    0    0 -0.96339589811E+02 -0.15499550425E+01  0.31390818134E+03  0.38037621539E+03  0.19200000000E+03 0.  0.
<mgrwt>
<rscale>  0 0.50049953E+03</rscale>
<asrwt>0</asrwt>
<pdfrwt beam="1">  1        2 0.65556696E-01 0.50049953E+03</pdfrwt>
<pdfrwt beam="2">  1       -2 0.19495493E-01 0.50049953E+03</pdfrwt>
<totfact> 0.16468313E+03</totfact>
</mgrwt>
</event>
<event>
 4    1  0.2058931E-005  0.4915243E+03  0.7818608E-02  0.1016015E+00
         -2   -1    0    0    0  501 -0.00000000000E+00  0.00000000000E+00  0.11117203038E+03  0.11117203041E+03  0.25500000000E-02 0.  1.
          2   -1    0    0  501    0  0.00000000000E+00 -0.00000000000E+00 -0.54329351353E+03  0.54329351354E+03  0.25500000000E-02 0. -1.
    5000001    1    1    2    0    0  0.11404605305E+03  0.95311890452E+02 -0.16546044342E+03  0.29382310497E+03  0.19200000000E+03 0.  0.
   -5000001    1    1    2    0    0 -0.11404605305E+03 -0.95311890452E+02 -0.26666103974E+03  0.36064243898E+03  0.19200000000E+03 0.  0.
<mgrwt>
<rscale>  0 0.49152434E+03</rscale>
<asrwt>0</asrwt>
<pdfrwt beam="1">  1        2 0.77613357E-01 0.49152434E+03</pdfrwt>
<pdfrwt beam="2">  1       -2 0.15881719E-01 0.49152434E+03</pdfrwt>
<totfact> 0.19304553E+03</totfact>
</mgrwt>
</event>
<event>
 4    1  0.2058931E-005  0.6465243E+03  0.7818608E-02  0.9813323E-01
          2   -1    0    0  501    0  0.00000000000E+00  0.00000000000E+00  0.42534091494E+04  0.42534091494E+04  0.25500000000E-02 0.  1.
         -2   -1    0    0    0  501 -0.00000000000E+00 -0.00000000000E+00 -0.24568155766E+02  0.24568155898E+02  0.25500000000E-02 0. -1.
    5000001    1    1    2    0    0  0.22569564745E+03  0.26888412731E+02  0.29506887298E+04  0.29656516134E+04  0.19200000000E+03 0.  0.
   -5000001    1    1    2    0    0 -0.22569564745E+03 -0.26888412731E+02  0.12781522638E+04  0.13123256919E+04  0.19200000000E+03 0.  0.
<mgrwt>
<rscale>  0 0.64652430E+03</rscale>
<asrwt>0</asrwt>
<pdfrwt beam="1">  1        2 0.60762993E+00 0.64652430E+03</pdfrwt>
<pdfrwt beam="2">  1       -2 0.35097362E-02 0.64652430E+03</pdfrwt>
<totfact> 0.14953053E+02</totfact>
</mgrwt>
</event>
<event>
 4    1  0.2058931E-005  0.6684443E+03  0.7818608E-02  0.9772772E-01
          2   -1    0    0  501    0  0.00000000000E+00  0.00000000000E+00  0.13768173842E+03  0.13768173845E+03  0.25500000000E-02 0.  1.
         -2   -1    0    0    0  501 -0.00000000000E+00 -0.00000000000E+00 -0.81132371809E+03  0.81132371810E+03  0.25500000000E-02 0. -1.
    5000001    1    1    2    0    0  0.17034368773E+03 -0.20087034553E+03 -0.23177503145E+03  0.39993691111E+03  0.19200000000E+03 0.  0.
   -5000001    1    1    2    0    0 -0.17034368773E+03  0.20087034553E+03 -0.44186694822E+03  0.54906854544E+03  0.19200000000E+03 0.  0.
<mgrwt>
<rscale>  0 0.66844434E+03</rscale>
<asrwt>0</asrwt>
<pdfrwt beam="1">  1        2 0.19668820E-01 0.66844434E+03</pdfrwt>
<pdfrwt beam="2">  1       -2 0.11590339E+00 0.66844434E+03</pdfrwt>
<totfact> 0.16957777E+02</totfact>
</mgrwt>
</event>
<event>
 4    1  0.2058931E-005  0.9654261E+03  0.7818608E-02  0.9347299E-01
         -2   -1    0    0    0  501 -0.00000000000E+00  0.00000000000E+00  0.94519600438E+03  0.94519600439E+03  0.25500000000E-02 0. -1.
          2   -1    0    0  501    0  0.00000000000E+00 -0.00000000000E+00 -0.24652228197E+03  0.24652228199E+03  0.25500000000E-02 0.  1.
    5000001    1    1    2    0    0 -0.38653485458E+03  0.13937656282E+02  0.61564743420E+03  0.75199016969E+03  0.19200000000E+03 0.  0.
   -5000001    1    1    2    0    0  0.38653485458E+03 -0.13937656282E+02  0.83026288207E+02  0.43972811668E+03  0.19200000000E+03 0.  0.
<mgrwt>
<rscale>  0 0.96542607E+03</rscale>
<asrwt>0</asrwt>
<pdfrwt beam="1">  1        2 0.35217469E-01 0.96542607E+03</pdfrwt>
<pdfrwt beam="2">  1       -2 0.13502800E+00 0.96542607E+03</pdfrwt>
<totfact> 0.58571476E+01</totfact>
</mgrwt>
</event>
<event>
 4    1  0.2058931E-005  0.8668212E+03  0.7818608E-02  0.9468034E-01
          2   -1    0    0  501    0  0.00000000000E+00  0.00000000000E+00  0.34372193421E+03  0.34372193422E+03  0.25500000000E-02 0.  1.
         -2   -1    0    0    0  501 -0.00000000000E+00 -0.00000000000E+00 -0.54650210322E+03  0.54650210323E+03  0.25500000000E-02 0. -1.
    5000001    1    1    2    0    0  0.10178022729E+02  0.34914434454E+03  0.73427235290E+02  0.40529115997E+03  0.19200000000E+03 0.  0.
   -5000001    1    1    2    0    0 -0.10178022729E+02 -0.34914434454E+03 -0.27620740430E+03  0.48493287748E+03  0.19200000000E+03 0.  0.
<mgrwt>
<rscale>  0 0.86682123E+03</rscale>
<asrwt>0</asrwt>
<pdfrwt beam="1">  1        2 0.49103133E-01 0.86682123E+03</pdfrwt>
<pdfrwt beam="2">  1       -2 0.78071729E-01 0.86682123E+03</pdfrwt>
<totfact> 0.15040294E+02</totfact>
</mgrwt>
</event>
<event>
 4    1  0.2058931E-005  0.5436626E+03  0.7818608E-02  0.1002972E+00
          2   -1    0    0  501    0  0.00000000000E+00  0.00000000000E+00  0.15754550455E+03  0.15754550457E+03  0.25500000000E-02 0. -1.
         -2   -1    0    0    0  501 -0.00000000000E+00 -0.00000000000E+00 -0.46902169090E+03  0.46902169091E+03  0.25500000000E-02 0.  1.
    5000001    1    1    2    0    0 -0.18012148552E+03  0.35699414280E+02 -0.22204460763E+03  0.34624558554E+03  0.19200000000E+03 0.  0.
   -5000001    1    1    2    0    0  0.18012148552E+03 -0.35699414280E+02 -0.89431578725E+02  0.28032160994E+03  0.19200000000E+03 0.  0.
<mgrwt>
<rscale>  0 0.54366261E+03</rscale>
<asrwt>0</asrwt>
<pdfrwt beam="1">  1        2 0.22506501E-01 0.54366261E+03</pdfrwt>
<pdfrwt beam="2">  1       -2 0.67003098E-01 0.54366261E+03</pdfrwt>
<totfact> 0.51024184E+02</totfact>
</mgrwt>
</event>
<event>
 4    1  0.2058931E-005  0.4947896E+03  0.7818608E-02  0.1015148E+00
          2   -1    0    0  501    0  0.00000000000E+00  0.00000000000E+00  0.12831495232E+03  0.12831495234E+03  0.25500000000E-02 0.  1.
         -2   -1    0    0    0  501 -0.00000000000E+00 -0.00000000000E+00 -0.47698399951E+03  0.47698399951E+03  0.25500000000E-02 0. -1.
    5000001    1    1    2    0    0  0.11074590533E+03 -0.10790507109E+03 -0.14890718329E+03  0.28800262004E+03  0.19200000000E+03 0.  0.
   -5000001    1    1    2    0    0 -0.11074590533E+03  0.10790507109E+03 -0.19976186390E+03  0.31729633182E+03  0.19200000000E+03 0.  0.
<mgrwt>
<rscale>  0 0.49478957E+03</rscale>
<asrwt>0</asrwt>
<pdfrwt beam="1">  1        2 0.18330708E-01 0.49478957E+03</pdfrwt>
<pdfrwt beam="2">  1       -2 0.68140570E-01 0.49478957E+03</pdfrwt>
<totfact> 0.62526440E+02</totfact>
</mgrwt>
</event>
<event>
 4    1  0.2058931E-005  0.6348360E+03  0.7818608E-02  0.9835657E-01
          2   -1    0    0  501    0  0.00000000000E+00  0.00000000000E+00  0.15857360107E+04  0.15857360107E+04  0.25500000000E-02 0.  1.
         -2   -1    0    0    0  501 -0.00000000000E+00 -0.00000000000E+00 -0.63537809493E+02  0.63537809545E+02  0.25500000000E-02 0. -1.
    5000001    1    1    2    0    0  0.24879276838E+03  0.22711749861E+02  0.66127119394E+03  0.73250068745E+03  0.19200000000E+03 0.  0.
   -5000001    1    1    2    0    0 -0.24879276838E+03 -0.22711749861E+02  0.86092700730E+03  0.91677313283E+03  0.19200000000E+03 0.  0.
<mgrwt>
<rscale>  0 0.63483602E+03</rscale>
<asrwt>0</asrwt>
<pdfrwt beam="1">  1        2 0.22653376E+00 0.63483602E+03</pdfrwt>
<pdfrwt beam="2">  1       -2 0.90768283E-02 0.63483602E+03</pdfrwt>
<totfact> 0.10740277E+03</totfact>
</mgrwt>
</event>
<event>
 4    1  0.2058931E-005  0.9227873E+03  0.7818608E-02  0.9397536E-01
          2   -1    0    0  501    0  0.00000000000E+00  0.00000000000E+00  0.11609111693E+04  0.11609111693E+04  0.25500000000E-02 0. -1.
         -2   -1    0    0    0  501 -0.00000000000E+00 -0.00000000000E+00 -0.18337674807E+03  0.18337674809E+03  0.25500000000E-02 0.  1.
    5000001    1    1    2    0    0 -0.26621889083E+03  0.21656437714E+03  0.84035134647E+03  0.92780763782E+03  0.19200000000E+03 0.  0.
   -5000001    1    1    2    0    0  0.26621889083E+03 -0.21656437714E+03  0.13718307477E+03  0.41648027959E+03  0.19200000000E+03 0.  0.
<mgrwt>
<rscale>  0 0.92278733E+03</rscale>
<asrwt>0</asrwt>
<pdfrwt beam="1">  1        2 0.16584446E+00 0.92278733E+03</pdfrwt>
<pdfrwt beam="2">  1       -2 0.26196677E-01 0.92278733E+03</pdfrwt>
<totfact> 0.29601285E+02</totfact>
</mgrwt>
</event>
<event>
 4    1  0.2058931E-005  0.6034550E+03  0.7818608E-02  0.9898264E-01
         -2   -1    0    0    0  501 -0.00000000000E+00  0.00000000000E+00  0.24846844799E+03  0.24846844801E+03  0.25500000000E-02 0. -1.
          2   -1    0    0  501    0  0.00000000000E+00 -0.00000000000E+00 -0.36640256886E+03  0.36640256887E+03  0.25500000000E-02 0.  1.
    5000001    1    1    2    0    0  0.13077772135E+03 -0.16144434861E+02 -0.25446130995E+03  0.34493189682E+03  0.19200000000E+03 0.  0.
   -5000001    1    1    2    0    0 -0.13077772135E+03  0.16144434861E+02  0.13652718909E+03  0.26993912006E+03  0.19200000000E+03 0.  0.
<mgrwt>
<rscale>  0 0.60345498E+03</rscale>
<asrwt>0</asrwt>
<pdfrwt beam="1">  1        2 0.52343224E-01 0.60345498E+03</pdfrwt>
<pdfrwt beam="2">  1       -2 0.35495492E-01 0.60345498E+03</pdfrwt>
<totfact> 0.71503082E+02</totfact>
</mgrwt>
</event>
<event>
 4    1  0.2058931E-005  0.4820253E+03  0.7818608E-02  0.1018580E+00
         -2   -1    0    0    0  501 -0.00000000000E+00  0.00000000000E+00  0.25856612702E+02  0.25856612827E+02  0.25500000000E-02 0. -1.
          2   -1    0    0  501    0  0.00000000000E+00 -0.00000000000E+00 -0.22465079724E+04  0.22465079724E+04  0.25500000000E-02 0.  1.
    5000001    1    1    2    0    0 -0.12893236386E+03 -0.67816420706E+02 -0.11071098114E+04  0.11330396091E+04  0.19200000000E+03 0.  0.
   -5000001    1    1    2    0    0  0.12893236386E+03  0.67816420706E+02 -0.11135415483E+04  0.11393249761E+04  0.19200000000E+03 0.  0.
<mgrwt>
<rscale>  0 0.48202526E+03</rscale>
<asrwt>0</asrwt>
<pdfrwt beam="1">  1        2 0.32092959E+00 0.48202526E+03</pdfrwt>
<pdfrwt beam="2">  1       -2 0.36938033E-02 0.48202526E+03</pdfrwt>
<totfact> 0.20482012E+03</totfact>
</mgrwt>
</event>
<event>
 4    1  0.2058931E-005  0.7622409E+03  0.7818608E-02  0.9616340E-01
         -2   -1    0    0    0  501 -0.00000000000E+00  0.00000000000E+00  0.34211512275E+03  0.34211512276E+03  0.25500000000E-02 0. -1.
          2   -1    0    0  501    0  0.00000000000E+00 -0.00000000000E+00 -0.42457283757E+03  0.42457283757E+03  0.25500000000E-02 0.  1.
    5000001    1    1    2    0    0  0.27694466204E+03  0.39484226077E+02  0.13336796740E+03  0.36456599495E+03  0.19200000000E+03 0.  0.
   -5000001    1    1    2    0    0 -0.27694466204E+03 -0.39484226077E+02 -0.21582568222E+03  0.40212196539E+03  0.19200000000E+03 0.  0.
<mgrwt>
<rscale>  0 0.76224088E+03</rscale>
<asrwt>0</asrwt>
<pdfrwt beam="1">  1        2 0.60653262E-01 0.76224088E+03</pdfrwt>
<pdfrwt beam="2">  1       -2 0.48873589E-01 0.76224088E+03</pdfrwt>
<totfact> 0.32285175E+02</totfact>
</mgrwt>
</event>
<event>
 4    1  0.2058931E-005  0.5906661E+03  0.7818608E-02  0.9924962E-01
         -2   -1    0    0    0  501 -0.00000000000E+00  0.00000000000E+00  0.26558064782E+03  0.26558064783E+03  0.25500000000E-02 0. -1.
          2   -1    0    0  501    0  0.00000000000E+00 -0.00000000000E+00 -0.32841850600E+03  0.32841850601E+03  0.25500000000E-02 0.  1.
    5000001    1    1    2    0    0 -0.99064055228E+01 -0.22167959616E+03  0.22005333732E+01  0.29344304826E+03  0.19200000000E+03 0.  0.
   -5000001    1    1    2    0    0  0.99064055228E+01  0.22167959616E+03 -0.65038391548E+02  0.30055610558E+03  0.19200000000E+03 0.  0.
<mgrwt>
<rscale>  0 0.59066606E+03</rscale>
<asrwt>0</asrwt>
<pdfrwt beam="1">  1        2 0.46916929E-01 0.59066606E+03</pdfrwt>
<pdfrwt beam="2">  1       -2 0.37940092E-01 0.59066606E+03</pdfrwt>
<totfact> 0.71064379E+02</totfact>
</mgrwt>
</event>
<event>
 4    1  0.2058931E-005  0.1197070E+04  0.7818608E-02  0.9115425E-01
          2   -1    0    0  501    0  0.00000000000E+00  0.00000000000E+00  0.16377008852E+04  0.16377008852E+04  0.25500000000E-02 0.  1.
         -2   -1    0    0    0  501 -0.00000000000E+00 -0.00000000000E+00 -0.21874836917E+03  0.21874836918E+03  0.25500000000E-02 0. -1.
    5000001    1    1    2    0    0 -0.98292982396E+02  0.24303824553E+03  0.14889906723E+04  0.15240361943E+04  0.19200000000E+03 0.  0.
   -5000001    1    1    2    0    0  0.98292982396E+02 -0.24303824553E+03 -0.70038156319E+02  0.33241306009E+03  0.19200000000E+03 0.  0.
<mgrwt>
<rscale>  0 0.11970704E+04</rscale>
<asrwt>0</asrwt>
<pdfrwt beam="1">  1        2 0.23395726E+00 0.11970704E+04</pdfrwt>
<pdfrwt beam="2">  1       -2 0.31249768E-01 0.11970704E+04</pdfrwt>
<totfact> 0.11581578E+02</totfact>
</mgrwt>
</event>
<event>
 4    1  0.2058931E-005  0.6141448E+03  0.7818608E-02  0.9876487E-01
         -2   -1    0    0    0  501 -0.00000000000E+00  0.00000000000E+00  0.26206915692E+03  0.26206915694E+03  0.25500000000E-02 0. -1.
          2   -1    0    0  501    0  0.00000000000E+00 -0.00000000000E+00 -0.35980377725E+03  0.35980377726E+03  0.25500000000E-02 0.  1.
    5000001    1    1    2    0    0  0.13166891360E+03  0.25226200871E+02  0.15226860261E+03  0.27932560097E+03  0.19200000000E+03 0.  0.
   -5000001    1    1    2    0    0 -0.13166891360E+03 -0.25226200871E+02 -0.25000322294E+03  0.34254733323E+03  0.19200000000E+03 0.  0.
<mgrwt>
<rscale>  0 0.61414484E+03</rscale>
<asrwt>0</asrwt>
<pdfrwt beam="1">  1        2 0.51400540E-01 0.61414484E+03</pdfrwt>
<pdfrwt beam="2">  1       -2 0.37438451E-01 0.61414484E+03</pdfrwt>
<totfact> 0.65887207E+02</totfact>
</mgrwt>
</event>
<event>
 4    1  0.2058931E-005  0.5702444E+03  0.7818608E-02  0.9969138E-01
          2   -1    0    0  501    0  0.00000000000E+00  0.00000000000E+00  0.29694090635E+04  0.29694090635E+04  0.25500000000E-02 0.  1.
         -2   -1    0    0    0  501 -0.00000000000E+00 -0.00000000000E+00 -0.27377392365E+02  0.27377392483E+02  0.25500000000E-02 0. -1.
    5000001    1    1    2    0    0 -0.25597247318E+02 -0.18912692123E+03  0.19412510755E+04  0.19600367214E+04  0.19200000000E+03 0.  0.
   -5000001    1    1    2    0    0  0.25597247318E+02  0.18912692123E+03  0.10007805956E+04  0.10367497345E+04  0.19200000000E+03 0.  0.
<mgrwt>
<rscale>  0 0.57024443E+03</rscale>
<asrwt>0</asrwt>
<pdfrwt beam="1">  1        2 0.42420100E+00 0.57024443E+03</pdfrwt>
<pdfrwt beam="2">  1       -2 0.39110588E-02 0.57024443E+03</pdfrwt>
<totfact> 0.78782851E+02</totfact>
</mgrwt>
</event>
<event>
 4    1  0.2058931E-005  0.5060339E+03  0.7818608E-02  0.1012216E+00
          2   -1    0    0  501    0  0.00000000000E+00  0.00000000000E+00  0.34632968699E+04  0.34632968699E+04  0.25500000000E-02 0.  1.
         -2   -1    0    0    0  501 -0.00000000000E+00 -0.00000000000E+00 -0.18484573292E+02  0.18484573468E+02  0.25500000000E-02 0. -1.
    5000001    1    1    2    0    0  0.15390520177E+03  0.54521836193E+02  0.18753526807E+04  0.18922132858E+04  0.19200000000E+03 0.  0.
   -5000001    1    1    2    0    0 -0.15390520177E+03 -0.54521836193E+02  0.15694596159E+04  0.15895681576E+04  0.19200000000E+03 0.  0.
<mgrwt>
<rscale>  0 0.50603385E+03</rscale>
<asrwt>0</asrwt>
<pdfrwt beam="1">  1        2 0.49475680E+00 0.50603385E+03</pdfrwt>
<pdfrwt beam="2">  1       -2 0.26406528E-02 0.50603385E+03</pdfrwt>
<totfact> 0.76044137E+02</totfact>
</mgrwt>
</event>
<event>
 4    1  0.2058931E-005  0.4681054E+03  0.7818608E-02  0.1022456E+00
          2   -1    0    0  501    0  0.00000000000E+00  0.00000000000E+00  0.93069370333E+02  0.93069370368E+02  0.25500000000E-02 0.  1.
         -2   -1    0    0    0  501 -0.00000000000E+00 -0.00000000000E+00 -0.58860043906E+03  0.58860043906E+03  0.25500000000E-02 0. -1.
    5000001    1    1    2    0    0 -0.11615193441E+03 -0.66480834733E+02 -0.24428913469E+03  0.33830778085E+03  0.19200000000E+03 0.  0.
   -5000001    1    1    2    0    0  0.11615193441E+03  0.66480834733E+02 -0.25124193403E+03  0.34336202858E+03  0.19200000000E+03 0.  0.
<mgrwt>
<rscale>  0 0.46810543E+03</rscale>
<asrwt>0</asrwt>
<pdfrwt beam="1">  1        2 0.13295625E-01 0.46810543E+03</pdfrwt>
<pdfrwt beam="2">  1       -2 0.84085775E-01 0.46810543E+03</pdfrwt>
<totfact> 0.57838795E+02</totfact>
</mgrwt>
</event>
<event>
 4    1  0.2058931E-005  0.4087536E+03  0.7818608E-02  0.1040790E+00
          2   -1    0    0  501    0  0.00000000000E+00  0.00000000000E+00  0.17798234207E+04  0.17798234207E+04  0.25500000000E-02 0. -1.
         -2   -1    0    0    0  501 -0.00000000000E+00 -0.00000000000E+00 -0.23468554780E+02  0.23468554919E+02  0.25500000000E-02 0.  1.
    5000001    1    1    2    0    0  0.31221598283E+02  0.48919959637E+02  0.10511881951E+04  0.10701535274E+04  0.19200000000E+03 0.  0.
   -5000001    1    1    2    0    0 -0.31221598283E+02 -0.48919959637E+02  0.70516667082E+03  0.73313844824E+03  0.19200000000E+03 0.  0.
<mgrwt>
<rscale>  0 0.40875364E+03</rscale>
<asrwt>0</asrwt>
<pdfrwt beam="1">  1        2 0.25426059E+00 0.40875364E+03</pdfrwt>
<pdfrwt beam="2">  1       -2 0.33526494E-02 0.40875364E+03</pdfrwt>
<totfact> 0.40596808E+03</totfact>
</mgrwt>
</event>
<event>
 4    1  0.2058931E-005  0.5281748E+03  0.7818608E-02  0.1006676E+00
         -2   -1    0    0    0  501 -0.00000000000E+00  0.00000000000E+00  0.79930553024E+02  0.79930553065E+02  0.25500000000E-02 0. -1.
          2   -1    0    0  501    0  0.00000000000E+00 -0.00000000000E+00 -0.87253439168E+03  0.87253439168E+03  0.25500000000E-02 0.  1.
    5000001    1    1    2    0    0  0.13559330351E+03  0.81673899793E+02 -0.55579059548E+03  0.60895267130E+03  0.19200000000E+03 0.  0.
   -5000001    1    1    2    0    0 -0.13559330351E+03 -0.81673899793E+02 -0.23681324317E+03  0.34351227344E+03  0.19200000000E+03 0.  0.
<mgrwt>
<rscale>  0 0.52817481E+03</rscale>
<asrwt>0</asrwt>
<pdfrwt beam="1">  1        2 0.12464776E+00 0.52817481E+03</pdfrwt>
<pdfrwt beam="2">  1       -2 0.11418651E-01 0.52817481E+03</pdfrwt>
<totfact> 0.18749084E+03</totfact>
</mgrwt>
</event>
<event>
 4    1  0.2058931E-005  0.1048964E+04  0.7818608E-02  0.9256414E-01
         -2   -1    0    0    0  501 -0.00000000000E+00  0.00000000000E+00  0.19972616119E+03  0.19972616121E+03  0.25500000000E-02 0. -1.
          2   -1    0    0  501    0  0.00000000000E+00 -0.00000000000E+00 -0.13772923348E+04  0.13772923348E+04  0.25500000000E-02 0.  1.
    5000001    1    1    2    0    0  0.45864159426E+03 -0.46240104780E+02 -0.34764197580E+03  0.60844819222E+03  0.19200000000E+03 0.  0.
   -5000001    1    1    2    0    0 -0.45864159426E+03  0.46240104780E+02 -0.82992419781E+03  0.96857030379E+03  0.19200000000E+03 0.  0.
<mgrwt>
<rscale>  0 0.10489639E+04</rscale>
<asrwt>0</asrwt>
<pdfrwt beam="1">  1        2 0.19675604E+00 0.10489639E+04</pdfrwt>
<pdfrwt beam="2">  1       -2 0.28532310E-01 0.10489639E+04</pdfrwt>
<totfact> 0.19037797E+02</totfact>
</mgrwt>
</event>
<event>
 4    1  0.2058931E-005  0.4310162E+03  0.7818608E-02  0.1033539E+00
          2   -1    0    0  501    0  0.00000000000E+00  0.00000000000E+00  0.27909120198E+04  0.27909120198E+04  0.25500000000E-02 0.  1.
         -2   -1    0    0    0  501 -0.00000000000E+00 -0.00000000000E+00 -0.16641062070E+02  0.16641062266E+02  0.25500000000E-02 0. -1.
    5000001    1    1    2    0    0  0.54651346119E+02  0.64964542323E+02  0.10698539932E+04  0.10902562672E+04  0.19200000000E+03 0.  0.
   -5000001    1    1    2    0    0 -0.54651346119E+02 -0.64964542323E+02  0.17044169645E+04  0.17172968148E+04  0.19200000000E+03 0.  0.
<mgrwt>
<rscale>  0 0.43101620E+03</rscale>
<asrwt>0</asrwt>
<pdfrwt beam="1">  1        2 0.39870112E+00 0.43101620E+03</pdfrwt>
<pdfrwt beam="2">  1       -2 0.23772982E-02 0.43101620E+03</pdfrwt>
<totfact> 0.21084199E+03</totfact>
</mgrwt>
</event>
<event>
 4    1  0.2058931E-005  0.5560594E+03  0.7818608E-02  0.1000101E+00
         -2   -1    0    0    0  501 -0.00000000000E+00  0.00000000000E+00  0.70542009794E+02  0.70542009840E+02  0.25500000000E-02 0. -1.
          2   -1    0    0  501    0  0.00000000000E+00 -0.00000000000E+00 -0.10958083698E+04  0.10958083698E+04  0.25500000000E-02 0.  1.
    5000001    1    1    2    0    0 -0.16181992520E+03  0.87920133117E+02 -0.68201279767E+03  0.73206631816E+03  0.19200000000E+03 0.  0.
   -5000001    1    1    2    0    0  0.16181992520E+03 -0.87920133117E+02 -0.34325356232E+03  0.43428406146E+03  0.19200000000E+03 0.  0.
<mgrwt>
<rscale>  0 0.55605944E+03</rscale>
<asrwt>0</asrwt>
<pdfrwt beam="1">  1        2 0.15654404E+00 0.55605944E+03</pdfrwt>
<pdfrwt beam="2">  1       -2 0.10077431E-01 0.55605944E+03</pdfrwt>
<totfact> 0.16750068E+03</totfact>
</mgrwt>
</event>
<event>
 4    1  0.2058931E-005  0.4709579E+03  0.7818608E-02  0.1021650E+00
         -2   -1    0    0    0  501 -0.00000000000E+00  0.00000000000E+00  0.88374220323E+02  0.88374220360E+02  0.25500000000E-02 0. -1.
          2   -1    0    0  501    0  0.00000000000E+00 -0.00000000000E+00 -0.62744922162E+03  0.62744922162E+03  0.25500000000E-02 0.  1.
    5000001    1    1    2    0    0 -0.11011116209E+03 -0.80252351730E+02 -0.27657328540E+03  0.36321025615E+03  0.19200000000E+03 0.  0.
   -5000001    1    1    2    0    0  0.11011116209E+03  0.80252351730E+02 -0.26250171590E+03  0.35261318584E+03  0.19200000000E+03 0.  0.
<mgrwt>
<rscale>  0 0.47095790E+03</rscale>
<asrwt>0</asrwt>
<pdfrwt beam="1">  1        2 0.89635601E-01 0.47095790E+03</pdfrwt>
<pdfrwt beam="2">  1       -2 0.12624889E-01 0.47095790E+03</pdfrwt>
<totfact> 0.23926753E+03</totfact>
</mgrwt>
</event>
<event>
 4    1  0.2058931E-005  0.5977621E+03  0.7818608E-02  0.9910060E-01
          2   -1    0    0  501    0  0.00000000000E+00  0.00000000000E+00  0.14642545598E+04  0.14642545598E+04  0.25500000000E-02 0.  1.
         -2   -1    0    0    0  501 -0.00000000000E+00 -0.00000000000E+00 -0.61007078071E+02  0.61007078124E+02  0.25500000000E-02 0. -1.
    5000001    1    1    2    0    0 -0.12691992318E+03  0.18669891049E+03  0.80047199315E+03  0.85357165012E+03  0.19200000000E+03 0.  0.
   -5000001    1    1    2    0    0  0.12691992318E+03 -0.18669891049E+03  0.60277548857E+03  0.67168998779E+03  0.19200000000E+03 0.  0.
<mgrwt>
<rscale>  0 0.59776213E+03</rscale>
<asrwt>0</asrwt>
<pdfrwt beam="1">  1        2 0.20917924E+00 0.59776213E+03</pdfrwt>
<pdfrwt beam="2">  1       -2 0.87152964E-02 0.59776213E+03</pdfrwt>
<totfact> 0.13278810E+03</totfact>
</mgrwt>
</event>
<event>
 4    1  0.2058931E-005  0.5263135E+03  0.7818608E-02  0.1007130E+00
         -2   -1    0    0    0  501 -0.00000000000E+00  0.00000000000E+00  0.19330355631E+03  0.19330355633E+03  0.25500000000E-02 0. -1.
          2   -1    0    0  501    0  0.00000000000E+00 -0.00000000000E+00 -0.35825250560E+03  0.35825250561E+03  0.25500000000E-02 0.  1.
    5000001    1    1    2    0    0 -0.17222293465E+03 -0.33420332080E+02 -0.12452142852E+03  0.28835263823E+03  0.19200000000E+03 0.  0.
   -5000001    1    1    2    0    0  0.17222293465E+03  0.33420332080E+02 -0.40427520776E+02  0.26320342371E+03  0.19200000000E+03 0.  0.
<mgrwt>
<rscale>  0 0.52631353E+03</rscale>
<asrwt>0</asrwt>
<pdfrwt beam="1">  1        2 0.51178929E-01 0.52631353E+03</pdfrwt>
<pdfrwt beam="2">  1       -2 0.27614794E-01 0.52631353E+03</pdfrwt>
<totfact> 0.11694020E+03</totfact>
</mgrwt>
</event>
<event>
 4    1  0.2058931E-005  0.4556425E+03  0.7818608E-02  0.1026053E+00
         -2   -1    0    0    0  501 -0.00000000000E+00  0.00000000000E+00  0.67171983379E+03  0.67171983380E+03  0.25500000000E-02 0. -1.
          2   -1    0    0  501    0  0.00000000000E+00 -0.00000000000E+00 -0.77268113312E+02  0.77268113354E+02  0.25500000000E-02 0.  1.
    5000001    1    1    2    0    0  0.12217548258E+03 -0.45558648085E+01  0.31289985993E+03  0.38693400832E+03  0.19200000000E+03 0.  0.
   -5000001    1    1    2    0    0 -0.12217548258E+03  0.45558648085E+01  0.28155186055E+03  0.36205393883E+03  0.19200000000E+03 0.  0.
<mgrwt>
<rscale>  0 0.45564251E+03</rscale>
<asrwt>0</asrwt>
<pdfrwt beam="1">  1        2 0.11038303E-01 0.45564251E+03</pdfrwt>
<pdfrwt beam="2">  1       -2 0.95959970E-01 0.45564251E+03</pdfrwt>
<totfact> 0.53810554E+02</totfact>
</mgrwt>
</event>
<event>
 4    1  0.2058931E-005  0.1107768E+04  0.7818608E-02  0.9197654E-01
          2   -1    0    0  501    0  0.00000000000E+00  0.00000000000E+00  0.60617286272E+03  0.60617286272E+03  0.25500000000E-02 0.  1.
         -2   -1    0    0    0  501 -0.00000000000E+00 -0.00000000000E+00 -0.50610524641E+03  0.50610524642E+03  0.25500000000E-02 0. -1.
    5000001    1    1    2    0    0  0.25176760324E+03  0.38032785872E+03  0.29981783062E+03  0.57861121465E+03  0.19200000000E+03 0.  0.
   -5000001    1    1    2    0    0 -0.25176760324E+03 -0.38032785872E+03 -0.19975021432E+03  0.53366689449E+03  0.19200000000E+03 0.  0.
<mgrwt>
<rscale>  0 0.11077676E+04</rscale>
<asrwt>0</asrwt>
<pdfrwt beam="1">  1        2 0.86596123E-01 0.11077676E+04</pdfrwt>
<pdfrwt beam="2">  1       -2 0.72300749E-01 0.11077676E+04</pdfrwt>
<totfact> 0.92216823E+01</totfact>
</mgrwt>
</event>
<event>
 4    1  0.2058931E-005  0.6744334E+03  0.7818608E-02  0.9761982E-01
         -2   -1    0    0    0  501 -0.00000000000E+00  0.00000000000E+00  0.32190615364E+02  0.32190615465E+02  0.25500000000E-02 0. -1.
          2   -1    0    0  501    0  0.00000000000E+00 -0.00000000000E+00 -0.35325546639E+04  0.35325546639E+04  0.25500000000E-02 0.  1.
    5000001    1    1    2    0    0 -0.21681084393E+03 -0.76536931690E+02 -0.25687801243E+04  0.25861864146E+04  0.19200000000E+03 0.  0.
   -5000001    1    1    2    0    0  0.21681084393E+03  0.76536931690E+02 -0.93158392425E+03  0.97855886480E+03  0.19200000000E+03 0.  0.
<mgrwt>
<rscale>  0 0.67443342E+03</rscale>
<asrwt>0</asrwt>
<pdfrwt beam="1">  1        2 0.50465042E+00 0.67443342E+03</pdfrwt>
<pdfrwt beam="2">  1       -2 0.45986616E-02 0.67443342E+03</pdfrwt>
<totfact> 0.29058961E+02</totfact>
</mgrwt>
</event>
<event>
 4    1  0.2058931E-005  0.6461706E+03  0.7818608E-02  0.9813992E-01
         -2   -1    0    0    0  501 -0.00000000000E+00  0.00000000000E+00  0.50427362804E+03  0.50427362805E+03  0.25500000000E-02 0. -1.
          2   -1    0    0  501    0  0.00000000000E+00 -0.00000000000E+00 -0.20699891826E+03  0.20699891827E+03  0.25500000000E-02 0.  1.
    5000001    1    1    2    0    0 -0.15780361472E+03 -0.15996394698E+03  0.49919459523E+01  0.29560000791E+03  0.19200000000E+03 0.  0.
   -5000001    1    1    2    0    0  0.15780361472E+03  0.15996394698E+03  0.29228276383E+03  0.41567253841E+03  0.19200000000E+03 0.  0.
<mgrwt>
<rscale>  0 0.64617055E+03</rscale>
<asrwt>0</asrwt>
<pdfrwt beam="1">  1        2 0.29571275E-01 0.64617055E+03</pdfrwt>
<pdfrwt beam="2">  1       -2 0.72039088E-01 0.64617055E+03</pdfrwt>
<totfact> 0.31881585E+02</totfact>
</mgrwt>
</event>
<event>
 4    1  0.2058931E-005  0.4779890E+03  0.7818608E-02  0.1019689E+00
          2   -1    0    0  501    0  0.00000000000E+00  0.00000000000E+00  0.17467755488E+04  0.17467755488E+04  0.25500000000E-02 0.  1.
         -2   -1    0    0    0  501 -0.00000000000E+00 -0.00000000000E+00 -0.32699325789E+02  0.32699325888E+02  0.25500000000E-02 0. -1.
    5000001    1    1    2    0    0 -0.68746224237E+02  0.12460807442E+03  0.85301592847E+03  0.88586307621E+03  0.19200000000E+03 0.  0.
   -5000001    1    1    2    0    0  0.68746224237E+02 -0.12460807442E+03  0.86106029450E+03  0.89361179844E+03  0.19200000000E+03 0.  0.
<mgrwt>
<rscale>  0 0.47798905E+03</rscale>
<asrwt>0</asrwt>
<pdfrwt beam="1">  1        2 0.24953943E+00 0.47798905E+03</pdfrwt>
<pdfrwt beam="2">  1       -2 0.46713309E-02 0.47798905E+03</pdfrwt>
<totfact> 0.25404349E+03</totfact>
</mgrwt>
</event>
<event>
 4    1  0.2058931E-005  0.6473244E+03  0.7818608E-02  0.9811813E-01
          2   -1    0    0  501    0  0.00000000000E+00  0.00000000000E+00  0.21317642651E+04  0.21317642651E+04  0.25500000000E-02 0.  1.
         -2   -1    0    0    0  501 -0.00000000000E+00 -0.00000000000E+00 -0.49141084924E+02  0.49141084990E+02  0.25500000000E-02 0. -1.
    5000001    1    1    2    0    0 -0.10493758593E+03 -0.16563318717E+03  0.46316883139E+03  0.53836383237E+03  0.19200000000E+03 0.  0.
   -5000001    1    1    2    0    0  0.10493758593E+03  0.16563318717E+03  0.16194543488E+04  0.16425415178E+04  0.19200000000E+03 0.  0.
<mgrwt>
<rscale>  0 0.64732437E+03</rscale>
<asrwt>0</asrwt>
<pdfrwt beam="1">  1        2 0.30453770E+00 0.64732437E+03</pdfrwt>
<pdfrwt beam="2">  1       -2 0.70201561E-02 0.64732437E+03</pdfrwt>
<totfact> 0.85559939E+02</totfact>
</mgrwt>
</event>
<event>
 4    1  0.2058931E-005  0.4731247E+03  0.7818608E-02  0.1021042E+00
          2   -1    0    0  501    0  0.00000000000E+00  0.00000000000E+00  0.79796584676E+03  0.79796584676E+03  0.25500000000E-02 0.  1.
         -2   -1    0    0    0  501 -0.00000000000E+00 -0.00000000000E+00 -0.70130501345E+02  0.70130501391E+02  0.25500000000E-02 0. -1.
    5000001    1    1    2    0    0  0.65604409021E+02 -0.11909484964E+03  0.31859279156E+03  0.39604657368E+03  0.19200000000E+03 0.  0.
   -5000001    1    1    2    0    0 -0.65604409021E+02  0.11909484964E+03  0.40924255386E+03  0.47204977447E+03  0.19200000000E+03 0.  0.
<mgrwt>
<rscale>  0 0.47312470E+03</rscale>
<asrwt>0</asrwt>
<pdfrwt beam="1">  1        2 0.11399512E+00 0.47312470E+03</pdfrwt>
<pdfrwt beam="2">  1       -2 0.10018643E-01 0.47312470E+03</pdfrwt>
<totfact> 0.26010188E+03</totfact>
</mgrwt>
</event>
<event>
 4    1  0.2058931E-005  0.4722110E+03  0.7818608E-02  0.1021298E+00
         -2   -1    0    0    0  501 -0.00000000000E+00  0.00000000000E+00  0.78022898148E+02  0.78022898190E+02  0.25500000000E-02 0. -1.
          2   -1    0    0  501    0  0.00000000000E+00 -0.00000000000E+00 -0.71448012706E+03  0.71448012706E+03  0.25500000000E-02 0.  1.
    5000001    1    1    2    0    0 -0.74267573463E+02  0.96017633997E+02 -0.21015520999E+03  0.30945802752E+03  0.19200000000E+03 0.  0.
   -5000001    1    1    2    0    0  0.74267573463E+02 -0.96017633997E+02 -0.42630201892E+03  0.48304499774E+03  0.19200000000E+03 0.  0.
<mgrwt>
<rscale>  0 0.47221101E+03</rscale>
<asrwt>0</asrwt>
<pdfrwt beam="1">  1        2 0.10206859E+00 0.47221101E+03</pdfrwt>
<pdfrwt beam="2">  1       -2 0.11146129E-01 0.47221101E+03</pdfrwt>
<totfact> 0.25104856E+03</totfact>
</mgrwt>
</event>
<event>
 4    1  0.2058931E-005  0.1023666E+04  0.7818608E-02  0.9282963E-01
          2   -1    0    0  501    0  0.00000000000E+00  0.00000000000E+00  0.32436246383E+03  0.32436246384E+03  0.25500000000E-02 0.  1.
         -2   -1    0    0    0  501 -0.00000000000E+00 -0.00000000000E+00 -0.80765462316E+03  0.80765462317E+03  0.25500000000E-02 0. -1.
    5000001    1    1    2    0    0  0.64980914012E+02  0.41360586196E+03 -0.48846674688E+03  0.67138371372E+03  0.19200000000E+03 0.  0.
   -5000001    1    1    2    0    0 -0.64980914012E+02 -0.41360586196E+03  0.51745875500E+01  0.46063337329E+03  0.19200000000E+03 0.  0.
<mgrwt>
<rscale>  0 0.10236657E+04</rscale>
<asrwt>0</asrwt>
<pdfrwt beam="1">  1        2 0.46337495E-01 0.10236657E+04</pdfrwt>
<pdfrwt beam="2">  1       -2 0.11537923E+00 0.10236657E+04</pdfrwt>
<totfact> 0.63780214E+01</totfact>
</mgrwt>
</event>
<event>
 4    1  0.2058931E-005  0.4275301E+03  0.7818608E-02  0.1034643E+00
          2   -1    0    0  501    0  0.00000000000E+00  0.00000000000E+00  0.20779188641E+04  0.20779188641E+04  0.25500000000E-02 0.  1.
         -2   -1    0    0    0  501 -0.00000000000E+00 -0.00000000000E+00 -0.21990988381E+02  0.21990988529E+02  0.25500000000E-02 0. -1.
    5000001    1    1    2    0    0 -0.40488292440E+02 -0.66533146275E+02  0.76966474630E+03  0.79706573323E+03  0.19200000000E+03 0.  0.
   -5000001    1    1    2    0    0  0.40488292440E+02  0.66533146275E+02  0.12862631294E+04  0.13028441194E+04  0.19200000000E+03 0.  0.
<mgrwt>
<rscale>  0 0.42753007E+03</rscale>
<asrwt>0</asrwt>
<pdfrwt beam="1">  1        2 0.29684556E+00 0.42753007E+03</pdfrwt>
<pdfrwt beam="2">  1       -2 0.31415697E-02 0.42753007E+03</pdfrwt>
<totfact> 0.31843874E+03</totfact>
</mgrwt>
</event>
<event>
 4    1  0.2058931E-005  0.5532917E+03  0.7818608E-02  0.1000735E+00
          2   -1    0    0  501    0  0.00000000000E+00  0.00000000000E+00  0.15504443155E+04  0.15504443155E+04  0.25500000000E-02 0.  1.
         -2   -1    0    0    0  501 -0.00000000000E+00 -0.00000000000E+00 -0.49361924395E+02  0.49361924461E+02  0.25500000000E-02 0. -1.
    5000001    1    1    2    0    0  0.18972969530E+03  0.56622265569E+02  0.81292363143E+03  0.85843594331E+03  0.19200000000E+03 0.  0.
   -5000001    1    1    2    0    0 -0.18972969530E+03 -0.56622265569E+02  0.68815875968E+03  0.74137029665E+03  0.19200000000E+03 0.  0.
<mgrwt>
<rscale>  0 0.55329166E+03</rscale>
<asrwt>0</asrwt>
<pdfrwt beam="1">  1        2 0.22149204E+00 0.55329166E+03</pdfrwt>
<pdfrwt beam="2">  1       -2 0.70517037E-02 0.55329166E+03</pdfrwt>
<totfact> 0.16799111E+03</totfact>
</mgrwt>
</event>
<event>
 4    1  0.2058931E-005  0.9719825E+03  0.7818608E-02  0.9339819E-01
         -2   -1    0    0    0  501 -0.00000000000E+00  0.00000000000E+00  0.13311541918E+03  0.13311541920E+03  0.25500000000E-02 0. -1.
          2   -1    0    0  501    0  0.00000000000E+00 -0.00000000000E+00 -0.17743061033E+04  0.17743061033E+04  0.25500000000E-02 0.  1.
    5000001    1    1    2    0    0  0.53202352706E+02 -0.41968853257E+03 -0.11005701386E+04  0.11946077117E+04  0.19200000000E+03 0.  0.
   -5000001    1    1    2    0    0 -0.53202352706E+02  0.41968853257E+03 -0.54062054545E+03  0.71281381080E+03  0.19200000000E+03 0.  0.
<mgrwt>
<rscale>  0 0.97198251E+03</rscale>
<asrwt>0</asrwt>
<pdfrwt beam="1">  1        2 0.25347229E+00 0.97198251E+03</pdfrwt>
<pdfrwt beam="2">  1       -2 0.19016490E-01 0.97198251E+03</pdfrwt>
<totfact> 0.24488849E+02</totfact>
</mgrwt>
</event>
<event>
 4    1  0.2058931E-005  0.7293824E+03  0.7818608E-02  0.9668263E-01
         -2   -1    0    0    0  501 -0.00000000000E+00  0.00000000000E+00  0.79076433030E+02  0.79076433071E+02  0.25500000000E-02 0. -1.
          2   -1    0    0  501    0  0.00000000000E+00 -0.00000000000E+00 -0.16819130542E+04  0.16819130542E+04  0.25500000000E-02 0.  1.
    5000001    1    1    2    0    0  0.16224846760E+03  0.25056168740E+03 -0.59898689740E+03  0.69624351177E+03  0.19200000000E+03 0.  0.
   -5000001    1    1    2    0    0 -0.16224846760E+03 -0.25056168740E+03 -0.10038497238E+04  0.10647459755E+04  0.19200000000E+03 0.  0.
<mgrwt>
<rscale>  0 0.72938244E+03</rscale>
<asrwt>0</asrwt>
<pdfrwt beam="1">  1        2 0.24027327E+00 0.72938244E+03</pdfrwt>
<pdfrwt beam="2">  1       -2 0.11296634E-01 0.72938244E+03</pdfrwt>
<totfact> 0.66835826E+02</totfact>
</mgrwt>
</event>
<event>
 4    1  0.2058931E-005  0.6745301E+03  0.7818608E-02  0.9761809E-01
         -2   -1    0    0    0  501 -0.00000000000E+00  0.00000000000E+00  0.49569375765E+02  0.49569375831E+02  0.25500000000E-02 0. -1.
          2   -1    0    0  501    0  0.00000000000E+00 -0.00000000000E+00 -0.22947171977E+04  0.22947171977E+04  0.25500000000E-02 0.  1.
    5000001    1    1    2    0    0  0.18800968288E+03 -0.12186331322E+03 -0.16903095806E+04  0.17158696880E+04  0.19200000000E+03 0.  0.
   -5000001    1    1    2    0    0 -0.18800968288E+03  0.12186331322E+03 -0.55483824135E+03  0.62841688554E+03  0.19200000000E+03 0.  0.
<mgrwt>
<rscale>  0 0.67453006E+03</rscale>
<asrwt>0</asrwt>
<pdfrwt beam="1">  1        2 0.32781668E+00 0.67453006E+03</pdfrwt>
<pdfrwt beam="2">  1       -2 0.70813409E-02 0.67453006E+03</pdfrwt>
<totfact> 0.69679112E+02</totfact>
</mgrwt>
</event>
<event>
 4    1  0.2058931E-005  0.6466626E+03  0.7818608E-02  0.9813062E-01
          2   -1    0    0  501    0  0.00000000000E+00  0.00000000000E+00  0.14768035800E+04  0.14768035800E+04  0.25500000000E-02 0.  1.
         -2   -1    0    0    0  501 -0.00000000000E+00 -0.00000000000E+00 -0.70790145860E+02  0.70790145906E+02  0.25500000000E-02 0. -1.
    5000001    1    1    2    0    0 -0.22013597824E+03 -0.11838857272E+03  0.53037349482E+03  0.61695684377E+03  0.19200000000E+03 0.  0.
   -5000001    1    1    2    0    0  0.22013597824E+03  0.11838857272E+03  0.87563993933E+03  0.93063688215E+03  0.19200000000E+03 0.  0.
<mgrwt>
<rscale>  0 0.64666263E+03</rscale>
<asrwt>0</asrwt>
<pdfrwt beam="1">  1        2 0.21097193E+00 0.64666263E+03</pdfrwt>
<pdfrwt beam="2">  1       -2 0.10112878E-01 0.64666263E+03</pdfrwt>
<totfact> 0.10268733E+03</totfact>
</mgrwt>
</event>
<event>
 4    1  0.2058931E-005  0.1044303E+04  0.7818608E-02  0.9261246E-01
         -2   -1    0    0    0  501 -0.00000000000E+00  0.00000000000E+00  0.82846215673E+03  0.82846215673E+03  0.25500000000E-02 0. -1.
          2   -1    0    0  501    0  0.00000000000E+00 -0.00000000000E+00 -0.32909428736E+03  0.32909428737E+03  0.25500000000E-02 0.  1.
    5000001    1    1    2    0    0 -0.19931106003E+03 -0.30635659747E+03 -0.10467124220E+03  0.42591000506E+03  0.19200000000E+03 0.  0.
   -5000001    1    1    2    0    0  0.19931106003E+03  0.30635659747E+03  0.60403911157E+03  0.73164643905E+03  0.19200000000E+03 0.  0.
<mgrwt>
<rscale>  0 0.10443030E+04</rscale>
<asrwt>0</asrwt>
<pdfrwt beam="1">  1        2 0.47013470E-01 0.10443030E+04</pdfrwt>
<pdfrwt beam="2">  1       -2 0.11835174E+00 0.10443030E+04</pdfrwt>
<totfact> 0.58895847E+01</totfact>
</mgrwt>
</event>
<event>
 4    1  0.2058931E-005  0.9534062E+03  0.7818608E-02  0.9361178E-01
         -2   -1    0    0    0  501 -0.00000000000E+00  0.00000000000E+00  0.94595892907E+02  0.94595892941E+02  0.25500000000E-02 0. -1.
          2   -1    0    0  501    0  0.00000000000E+00 -0.00000000000E+00 -0.24022802967E+04  0.24022802967E+04  0.25500000000E-02 0.  1.
    5000001    1    1    2    0    0  0.25136682098E+02 -0.39518331718E+03 -0.67393164757E+03  0.80489103148E+03  0.19200000000E+03 0.  0.
   -5000001    1    1    2    0    0 -0.25136682098E+02  0.39518331718E+03 -0.16337527563E+04  0.16919851582E+04  0.19200000000E+03 0.  0.
<mgrwt>
<rscale>  0 0.95340621E+03</rscale>
<asrwt>0</asrwt>
<pdfrwt beam="1">  1        2 0.34318286E+00 0.95340621E+03</pdfrwt>
<pdfrwt beam="2">  1       -2 0.13513700E-01 0.95340621E+03</pdfrwt>
<totfact> 0.20986109E+02</totfact>
</mgrwt>
</event>
<event>
 4    1  0.2058931E-005  0.5201737E+03  0.7818608E-02  0.1008643E+00
          2   -1    0    0  501    0  0.00000000000E+00  0.00000000000E+00  0.14195616595E+04  0.14195616595E+04  0.25500000000E-02 0.  1.
         -2   -1    0    0    0  501 -0.00000000000E+00 -0.00000000000E+00 -0.47652146863E+02  0.47652146931E+02  0.25500000000E-02 0. -1.
    5000001    1    1    2    0    0 -0.93990983457E+02  0.13140914669E+03  0.49302554672E+03  0.55320959728E+03  0.19200000000E+03 0.  0.
   -5000001    1    1    2    0    0  0.93990983457E+02 -0.13140914669E+03  0.87888396596E+03  0.91400420920E+03  0.19200000000E+03 0.  0.
<mgrwt>
<rscale>  0 0.52017367E+03</rscale>
<asrwt>0</asrwt>
<pdfrwt beam="1">  1        2 0.20279454E+00 0.52017367E+03</pdfrwt>
<pdfrwt beam="2">  1       -2 0.68074489E-02 0.52017367E+03</pdfrwt>
<totfact> 0.20793149E+03</totfact>
</mgrwt>
</event>
<event>
 4    1  0.2058931E-005  0.4917607E+03  0.7818608E-02  0.1015952E+00
          2   -1    0    0  501    0  0.00000000000E+00  0.00000000000E+00  0.10212772088E+03  0.10212772091E+03  0.25500000000E-02 0.  1.
         -2   -1    0    0    0  501 -0.00000000000E+00 -0.00000000000E+00 -0.59197589214E+03  0.59197589214E+03  0.25500000000E-02 0. -1.
    5000001    1    1    2    0    0  0.35564931248E+02  0.94616591908E+02 -0.81681538064E+02  0.23184701305E+03  0.19200000000E+03 0.  0.
   -5000001    1    1    2    0    0 -0.35564931248E+02 -0.94616591908E+02 -0.40816663319E+03  0.46225660001E+03  0.19200000000E+03 0.  0.
<mgrwt>
<rscale>  0 0.49176071E+03</rscale>
<asrwt>0</asrwt>
<pdfrwt beam="1">  1        2 0.14589675E-01 0.49176071E+03</pdfrwt>
<pdfrwt beam="2">  1       -2 0.84567983E-01 0.49176071E+03</pdfrwt>
<totfact> 0.50998392E+02</totfact>
</mgrwt>
</event>
<event>
 4    1  0.2058931E-005  0.4422617E+03  0.7818608E-02  0.1030055E+00
         -2   -1    0    0    0  501 -0.00000000000E+00  0.00000000000E+00  0.15613250082E+02  0.15613250290E+02  0.25500000000E-02 0. -1.
          2   -1    0    0  501    0  0.00000000000E+00 -0.00000000000E+00 -0.31318820467E+04  0.31318820467E+04  0.25500000000E-02 0.  1.
    5000001    1    1    2    0    0 -0.69830047696E+01 -0.93843139445E+02 -0.11568342674E+04  0.11764288416E+04  0.19200000000E+03 0.  0.
   -5000001    1    1    2    0    0  0.69830047696E+01  0.93843139445E+02 -0.19594345292E+04  0.19710664554E+04  0.19200000000E+03 0.  0.
<mgrwt>
<rscale>  0 0.44226172E+03</rscale>
<asrwt>0</asrwt>
<pdfrwt beam="1">  1        2 0.44741132E+00 0.44226172E+03</pdfrwt>
<pdfrwt beam="2">  1       -2 0.22304663E-02 0.44226172E+03</pdfrwt>
<totfact> 0.15214769E+03</totfact>
</mgrwt>
</event>
<event>
 4    1  0.2058931E-005  0.5543199E+03  0.7818608E-02  0.1000499E+00
         -2   -1    0    0    0  501 -0.00000000000E+00  0.00000000000E+00  0.36530194088E+02  0.36530194177E+02  0.25500000000E-02 0.  1.
          2   -1    0    0  501    0  0.00000000000E+00 -0.00000000000E+00 -0.21028534064E+04  0.21028534064E+04  0.25500000000E-02 0. -1.
    5000001    1    1    2    0    0 -0.83130278983E+02  0.17052137888E+03 -0.79012319233E+03  0.83495319808E+03  0.19200000000E+03 0.  0.
   -5000001    1    1    2    0    0  0.83130278983E+02 -0.17052137888E+03 -0.12762000200E+04  0.13044304025E+04  0.19200000000E+03 0.  0.
<mgrwt>
<rscale>  0 0.55431992E+03</rscale>
<asrwt>0</asrwt>
<pdfrwt beam="1">  1        2 0.30040755E+00 0.55431992E+03</pdfrwt>
<pdfrwt beam="2">  1       -2 0.52186005E-02 0.55431992E+03</pdfrwt>
<totfact> 0.14157353E+03</totfact>
</mgrwt>
</event>
<event>
 4    1  0.2058931E-005  0.6150274E+03  0.7818608E-02  0.9874710E-01
         -2   -1    0    0    0  501 -0.00000000000E+00  0.00000000000E+00  0.95206063636E+02  0.95206063670E+02  0.25500000000E-02 0. -1.
          2   -1    0    0  501    0  0.00000000000E+00 -0.00000000000E+00 -0.99326327816E+03  0.99326327816E+03  0.25500000000E-02 0.  1.
    5000001    1    1    2    0    0  0.12545375513E+03 -0.18607571628E+03 -0.60063123125E+03  0.66931658639E+03  0.19200000000E+03 0.  0.
   -5000001    1    1    2    0    0 -0.12545375513E+03  0.18607571628E+03 -0.29742598327E+03  0.41915275544E+03  0.19200000000E+03 0.  0.
<mgrwt>
<rscale>  0 0.61502744E+03</rscale>
<asrwt>0</asrwt>
<pdfrwt beam="1">  1        2 0.14189475E+00 0.61502744E+03</pdfrwt>
<pdfrwt beam="2">  1       -2 0.13600867E-01 0.61502744E+03</pdfrwt>
<totfact> 0.11770321E+03</totfact>
</mgrwt>
</event>
<event>
 4    1  0.2058931E-005  0.5502081E+03  0.7818608E-02  0.1001446E+00
          2   -1    0    0  501    0  0.00000000000E+00  0.00000000000E+00  0.70865780607E+03  0.70865780608E+03  0.25500000000E-02 0.  1.
         -2   -1    0    0    0  501 -0.00000000000E+00 -0.00000000000E+00 -0.10679657752E+03  0.10679657755E+03  0.25500000000E-02 0. -1.
    5000001    1    1    2    0    0 -0.82275208735E+02 -0.17601005219E+03  0.25246217526E+03  0.37195416167E+03  0.19200000000E+03 0.  0.
   -5000001    1    1    2    0    0  0.82275208735E+02  0.17601005219E+03  0.34939905329E+03  0.44350022196E+03  0.19200000000E+03 0.  0.
<mgrwt>
<rscale>  0 0.55020806E+03</rscale>
<asrwt>0</asrwt>
<pdfrwt beam="1">  1        2 0.10123683E+00 0.55020806E+03</pdfrwt>
<pdfrwt beam="2">  1       -2 0.15256654E-01 0.55020806E+03</pdfrwt>
<totfact> 0.15090839E+03</totfact>
</mgrwt>
</event>
<event>
 4    1  0.2058931E-005  0.5209977E+03  0.7818608E-02  0.1008439E+00
          2   -1    0    0  501    0  0.00000000000E+00  0.00000000000E+00  0.21248390001E+03  0.21248390003E+03  0.25500000000E-02 0. -1.
         -2   -1    0    0    0  501 -0.00000000000E+00 -0.00000000000E+00 -0.31936376866E+03  0.31936376867E+03  0.25500000000E-02 0.  1.
    5000001    1    1    2    0    0 -0.32487867662E+01 -0.17568026516E+03 -0.64694454022E+02  0.26818553758E+03  0.19200000000E+03 0.  0.
   -5000001    1    1    2    0    0  0.32487867662E+01  0.17568026516E+03 -0.42185414630E+02  0.26366213113E+03  0.19200000000E+03 0.  0.
<mgrwt>
<rscale>  0 0.52099773E+03</rscale>
<asrwt>0</asrwt>
<pdfrwt beam="1">  1        2 0.30354843E-01 0.52099773E+03</pdfrwt>
<pdfrwt beam="2">  1       -2 0.45623395E-01 0.52099773E+03</pdfrwt>
<totfact> 0.80342312E+02</totfact>
</mgrwt>
</event>
<event>
 4    1  0.2058931E-005  0.1113369E+04  0.7818608E-02  0.9192259E-01
         -2   -1    0    0    0  501 -0.00000000000E+00  0.00000000000E+00  0.25673061530E+03  0.25673061531E+03  0.25500000000E-02 0. -1.
          2   -1    0    0  501    0  0.00000000000E+00 -0.00000000000E+00 -0.12070917008E+04  0.12070917008E+04  0.25500000000E-02 0.  1.
    5000001    1    1    2    0    0 -0.24597342879E+02 -0.50136916663E+03 -0.66596851870E+03  0.85577692094E+03  0.19200000000E+03 0.  0.
   -5000001    1    1    2    0    0  0.24597342879E+02  0.50136916663E+03 -0.28439256678E+03  0.60804539515E+03  0.19200000000E+03 0.  0.
<mgrwt>
<rscale>  0 0.11133686E+04</rscale>
<asrwt>0</asrwt>
<pdfrwt beam="1">  1        2 0.17244167E+00 0.11133686E+04</pdfrwt>
<pdfrwt beam="2">  1       -2 0.36675803E-01 0.11133686E+04</pdfrwt>
<totfact> 0.14685703E+02</totfact>
</mgrwt>
</event>
<event>
 4    1  0.2058931E-005  0.5089447E+03  0.7818608E-02  0.1011470E+00
         -2   -1    0    0    0  501 -0.00000000000E+00  0.00000000000E+00  0.75637497904E+03  0.75637497904E+03  0.25500000000E-02 0. -1.
          2   -1    0    0  501    0  0.00000000000E+00 -0.00000000000E+00 -0.85613837217E+02  0.85613837255E+02  0.25500000000E-02 0.  1.
    5000001    1    1    2    0    0  0.52837169306E+02 -0.13460532644E+03  0.47361607319E+03  0.53111820262E+03  0.19200000000E+03 0.  0.
   -5000001    1    1    2    0    0 -0.52837169306E+02  0.13460532644E+03  0.19714506863E+03  0.31087061368E+03  0.19200000000E+03 0.  0.
<mgrwt>
<rscale>  0 0.50894465E+03</rscale>
<asrwt>0</asrwt>
<pdfrwt beam="1">  1        2 0.12230548E-01 0.50894465E+03</pdfrwt>
<pdfrwt beam="2">  1       -2 0.10805357E+00 0.50894465E+03</pdfrwt>
<totfact> 0.35783623E+02</totfact>
</mgrwt>
</event>
<event>
 4    1  0.2058931E-005  0.5959506E+03  0.7818608E-02  0.9913843E-01
          2   -1    0    0  501    0  0.00000000000E+00  0.00000000000E+00  0.27771274243E+03  0.27771274244E+03  0.25500000000E-02 0.  1.
         -2   -1    0    0    0  501 -0.00000000000E+00 -0.00000000000E+00 -0.31971622152E+03  0.31971622153E+03  0.25500000000E-02 0. -1.
    5000001    1    1    2    0    0 -0.42989635150E+02  0.17774848508E+03 -0.15728985743E+03  0.30829650003E+03  0.19200000000E+03 0.  0.
   -5000001    1    1    2    0    0  0.42989635150E+02 -0.17774848508E+03  0.11528637833E+03  0.28913246395E+03  0.19200000000E+03 0.  0.
<mgrwt>
<rscale>  0 0.59595056E+03</rscale>
<asrwt>0</asrwt>
<pdfrwt beam="1">  1        2 0.39673249E-01 0.59595056E+03</pdfrwt>
<pdfrwt beam="2">  1       -2 0.45673746E-01 0.59595056E+03</pdfrwt>
<totfact> 0.59491729E+02</totfact>
</mgrwt>
</event>
<event>
 4    1  0.2058931E-005  0.6474551E+03  0.7818608E-02  0.9811566E-01
          2   -1    0    0  501    0  0.00000000000E+00  0.00000000000E+00  0.75973327321E+03  0.75973327322E+03  0.25500000000E-02 0.  1.
         -2   -1    0    0    0  501 -0.00000000000E+00 -0.00000000000E+00 -0.13794251863E+03  0.13794251865E+03  0.25500000000E-02 0. -1.
    5000001    1    1    2    0    0  0.25973834397E+03 -0.20750656682E+02  0.30202586832E+03  0.44269427624E+03  0.19200000000E+03 0.  0.
   -5000001    1    1    2    0    0 -0.25973834397E+03  0.20750656682E+02  0.31976488627E+03  0.45498151563E+03  0.19200000000E+03 0.  0.
<mgrwt>
<rscale>  0 0.64745508E+03</rscale>
<asrwt>0</asrwt>
<pdfrwt beam="1">  1        2 0.10853333E+00 0.64745508E+03</pdfrwt>
<pdfrwt beam="2">  1       -2 0.19706074E-01 0.64745508E+03</pdfrwt>
<totfact> 0.89210944E+02</totfact>
</mgrwt>
</event>
<event>
 4    1  0.2058931E-005  0.7558363E+03  0.7818608E-02  0.9626238E-01
          2   -1    0    0  501    0  0.00000000000E+00  0.00000000000E+00  0.48780378208E+03  0.48780378209E+03  0.25500000000E-02 0.  1.
         -2   -1    0    0    0  501 -0.00000000000E+00 -0.00000000000E+00 -0.29278598765E+03  0.29278598767E+03  0.25500000000E-02 0. -1.
    5000001    1    1    2    0    0  0.32424248106E+02  0.30780853611E+03  0.20161031284E+03  0.41630294860E+03  0.19200000000E+03 0.  0.
   -5000001    1    1    2    0    0 -0.32424248106E+02 -0.30780853611E+03 -0.65925184113E+01  0.36428682116E+03  0.19200000000E+03 0.  0.
<mgrwt>
<rscale>  0 0.75583626E+03</rscale>
<asrwt>0</asrwt>
<pdfrwt beam="1">  1        2 0.69686254E-01 0.75583626E+03</pdfrwt>
<pdfrwt beam="2">  1       -2 0.41826570E-01 0.75583626E+03</pdfrwt>
<totfact> 0.37644815E+02</totfact>
</mgrwt>
</event>
<event>
 4    1  0.2058931E-005  0.4407944E+03  0.7818608E-02  0.1030503E+00
         -2   -1    0    0    0  501 -0.00000000000E+00  0.00000000000E+00  0.10985209986E+03  0.10985209989E+03  0.25500000000E-02 0. -1.
          2   -1    0    0  501    0  0.00000000000E+00 -0.00000000000E+00 -0.44218469783E+03  0.44218469784E+03  0.25500000000E-02 0.  1.
    5000001    1    1    2    0    0 -0.10646569354E+03 -0.75215296785E+00 -0.14190110695E+03  0.26141046993E+03  0.19200000000E+03 0.  0.
   -5000001    1    1    2    0    0  0.10646569354E+03  0.75215296785E+00 -0.19043149103E+03  0.29062632780E+03  0.19200000000E+03 0.  0.
<mgrwt>
<rscale>  0 0.44079436E+03</rscale>
<asrwt>0</asrwt>
<pdfrwt beam="1">  1        2 0.63169242E-01 0.44079436E+03</pdfrwt>
<pdfrwt beam="2">  1       -2 0.15693157E-01 0.44079436E+03</pdfrwt>
<totfact> 0.24812863E+03</totfact>
</mgrwt>
</event>
<event>
 4    1  0.2058931E-005  0.4328054E+03  0.7818608E-02  0.1032977E+00
          2   -1    0    0  501    0  0.00000000000E+00  0.00000000000E+00  0.33311568733E+03  0.33311568734E+03  0.25500000000E-02 0.  1.
         -2   -1    0    0    0  501 -0.00000000000E+00 -0.00000000000E+00 -0.14058218250E+03  0.14058218252E+03  0.25500000000E-02 0. -1.
    5000001    1    1    2    0    0  0.76024765910E+02 -0.17173050823E+01  0.25476364993E+02  0.20807633057E+03  0.19200000000E+03 0.  0.
   -5000001    1    1    2    0    0 -0.76024765910E+02  0.17173050823E+01  0.16705713983E+03  0.26562153929E+03  0.19200000000E+03 0.  0.
<mgrwt>
<rscale>  0 0.43280541E+03</rscale>
<asrwt>0</asrwt>
<pdfrwt beam="1">  1        2 0.47587955E-01 0.43280541E+03</pdfrwt>
<pdfrwt beam="2">  1       -2 0.20083169E-01 0.43280541E+03</pdfrwt>
<totfact> 0.22246032E+03</totfact>
</mgrwt>
</event>
<event>
 4    1  0.2058931E-005  0.6891895E+03  0.7818608E-02  0.9735900E-01
          2   -1    0    0  501    0  0.00000000000E+00  0.00000000000E+00  0.13238691278E+04  0.13238691278E+04  0.25500000000E-02 0. -1.
         -2   -1    0    0    0  501 -0.00000000000E+00 -0.00000000000E+00 -0.89695835386E+02  0.89695835422E+02  0.25500000000E-02 0.  1.
    5000001    1    1    2    0    0 -0.13917263318E+03 -0.22975857628E+03  0.81933682514E+03  0.88336564243E+03  0.19200000000E+03 0.  0.
   -5000001    1    1    2    0    0  0.13917263318E+03  0.22975857628E+03  0.41483646731E+03  0.53019932083E+03  0.19200000000E+03 0.  0.
<mgrwt>
<rscale>  0 0.68918952E+03</rscale>
<asrwt>0</asrwt>
<pdfrwt beam="1">  1        2 0.18912413E+00 0.68918952E+03</pdfrwt>
<pdfrwt beam="2">  1       -2 0.12813693E-01 0.68918952E+03</pdfrwt>
<totfact> 0.83853129E+02</totfact>
</mgrwt>
</event>
<event>
 4    1  0.2058931E-005  0.1149509E+04  0.7818608E-02  0.9158236E-01
         -2   -1    0    0    0  501 -0.00000000000E+00  0.00000000000E+00  0.12934797830E+03  0.12934797833E+03  0.25500000000E-02 0. -1.
          2   -1    0    0  501    0  0.00000000000E+00 -0.00000000000E+00 -0.25539090926E+04  0.25539090926E+04  0.25500000000E-02 0.  1.
    5000001    1    1    2    0    0 -0.47288259268E+03 -0.23615759437E+03 -0.93519439922E+03  0.10912565785E+04  0.19200000000E+03 0.  0.
   -5000001    1    1    2    0    0  0.47288259268E+03  0.23615759437E+03 -0.14893667150E+04  0.15920004924E+04  0.19200000000E+03 0.  0.
<mgrwt>
<rscale>  0 0.11495094E+04</rscale>
<asrwt>0</asrwt>
<pdfrwt beam="1">  1        2 0.36484412E+00 0.11495094E+04</pdfrwt>
<pdfrwt beam="2">  1       -2 0.18478284E-01 0.11495094E+04</pdfrwt>
<totfact> 0.10093864E+02</totfact>
</mgrwt>
</event>
<event>
 4    1  0.2058931E-005  0.1035424E+04  0.7818608E-02  0.9270524E-01
          2   -1    0    0  501    0  0.00000000000E+00  0.00000000000E+00  0.14756317724E+04  0.14756317724E+04  0.25500000000E-02 0.  1.
         -2   -1    0    0    0  501 -0.00000000000E+00 -0.00000000000E+00 -0.18163455683E+03  0.18163455685E+03  0.25500000000E-02 0. -1.
    5000001    1    1    2    0    0  0.20082255956E+03  0.72315956823E+02 -0.42551603984E+02  0.29023083406E+03  0.19200000000E+03 0.  0.
   -5000001    1    1    2    0    0 -0.20082255956E+03 -0.72315956823E+02  0.13365488195E+04  0.13670354952E+04  0.19200000000E+03 0.  0.
<mgrwt>
<rscale>  0 0.10354240E+04</rscale>
<asrwt>0</asrwt>
<pdfrwt beam="1">  1        2 0.21080453E+00 0.10354240E+04</pdfrwt>
<pdfrwt beam="2">  1       -2 0.25947795E-01 0.10354240E+04</pdfrwt>
<totfact> 0.20077592E+02</totfact>
</mgrwt>
</event>
<event>
 4    1  0.2058931E-005  0.7703342E+03  0.7818608E-02  0.9603978E-01
          2   -1    0    0  501    0  0.00000000000E+00  0.00000000000E+00  0.19560424485E+03  0.19560424487E+03  0.25500000000E-02 0.  1.
         -2   -1    0    0    0  501 -0.00000000000E+00 -0.00000000000E+00 -0.75843806553E+03  0.75843806553E+03  0.25500000000E-02 0. -1.
    5000001    1    1    2    0    0 -0.28105067959E+03 -0.13742451281E+03 -0.42592523294E+03  0.56227331902E+03  0.19200000000E+03 0.  0.
   -5000001    1    1    2    0    0  0.28105067959E+03  0.13742451281E+03 -0.13690858773E+03  0.39176899139E+03  0.19200000000E+03 0.  0.
<mgrwt>
<rscale>  0 0.77033423E+03</rscale>
<asrwt>0</asrwt>
<pdfrwt beam="1">  1        2 0.27943464E-01 0.77033423E+03</pdfrwt>
<pdfrwt beam="2">  1       -2 0.10834829E+00 0.77033423E+03</pdfrwt>
<totfact> 0.13257269E+02</totfact>
</mgrwt>
</event>
<event>
 4    1  0.2058931E-005  0.8089132E+03  0.7818608E-02  0.9547205E-01
          2   -1    0    0  501    0  0.00000000000E+00  0.00000000000E+00  0.16768246942E+04  0.16768246942E+04  0.25500000000E-02 0. -1.
         -2   -1    0    0    0  501 -0.00000000000E+00 -0.00000000000E+00 -0.97556491103E+02  0.97556491136E+02  0.25500000000E-02 0.  1.
    5000001    1    1    2    0    0 -0.27879362873E+03  0.51161196952E+02  0.12620233235E+04  0.13076353561E+04  0.19200000000E+03 0.  0.
   -5000001    1    1    2    0    0  0.27879362873E+03 -0.51161196952E+02  0.31724487967E+03  0.46674582930E+03  0.19200000000E+03 0.  0.
<mgrwt>
<rscale>  0 0.80891318E+03</rscale>
<asrwt>0</asrwt>
<pdfrwt beam="1">  1        2 0.23954635E+00 0.80891318E+03</pdfrwt>
<pdfrwt beam="2">  1       -2 0.13936643E-01 0.80891318E+03</pdfrwt>
<totfact> 0.47230662E+02</totfact>
</mgrwt>
</event>
<event>
 4    1  0.2058931E-005  0.5531123E+03  0.7818608E-02  0.1000776E+00
          2   -1    0    0  501    0  0.00000000000E+00  0.00000000000E+00  0.21450366617E+03  0.21450366618E+03  0.25500000000E-02 0.  1.
         -2   -1    0    0    0  501 -0.00000000000E+00 -0.00000000000E+00 -0.35655941100E+03  0.35655941101E+03  0.25500000000E-02 0. -1.
    5000001    1    1    2    0    0  0.49264310731E+02 -0.16598478274E+03  0.30349349178E+02  0.26031327936E+03  0.19200000000E+03 0.  0.
   -5000001    1    1    2    0    0 -0.49264310731E+02  0.16598478274E+03 -0.17240509401E+03  0.31074979783E+03  0.19200000000E+03 0.  0.
<mgrwt>
<rscale>  0 0.55311229E+03</rscale>
<asrwt>0</asrwt>
<pdfrwt beam="1">  1        2 0.30643381E-01 0.55311229E+03</pdfrwt>
<pdfrwt beam="2">  1       -2 0.50937059E-01 0.55311229E+03</pdfrwt>
<totfact> 0.63707887E+02</totfact>
</mgrwt>
</event>
<event>
 4    1  0.2058931E-005  0.5965646E+03  0.7818608E-02  0.9912559E-01
         -2   -1    0    0    0  501 -0.00000000000E+00  0.00000000000E+00  0.74984891051E+02  0.74984891094E+02  0.25500000000E-02 0. -1.
          2   -1    0    0  501    0  0.00000000000E+00 -0.00000000000E+00 -0.11865367814E+04  0.11865367814E+04  0.25500000000E-02 0.  1.
    5000001    1    1    2    0    0  0.31286893207E+02  0.22568521451E+03 -0.58535418021E+03  0.65682280869E+03  0.19200000000E+03 0.  0.
   -5000001    1    1    2    0    0 -0.31286893207E+02 -0.22568521451E+03 -0.52619771018E+03  0.60469886384E+03  0.19200000000E+03 0.  0.
<mgrwt>
<rscale>  0 0.59656460E+03</rscale>
<asrwt>0</asrwt>
<pdfrwt beam="1">  1        2 0.16950524E+00 0.59656460E+03</pdfrwt>
<pdfrwt beam="2">  1       -2 0.10712128E-01 0.59656460E+03</pdfrwt>
<totfact> 0.13449163E+03</totfact>
</mgrwt>
</event>
<event>
 4    1  0.2058931E-005  0.5409178E+03  0.7818608E-02  0.1003618E+00
         -2   -1    0    0    0  501 -0.00000000000E+00  0.00000000000E+00  0.23480379145E+02  0.23480379283E+02  0.25500000000E-02 0. -1.
          2   -1    0    0  501    0  0.00000000000E+00 -0.00000000000E+00 -0.31152829583E+04  0.31152829583E+04  0.25500000000E-02 0.  1.
    5000001    1    1    2    0    0  0.17175394090E+03 -0.79247430754E+02 -0.14155732266E+04  0.14410035154E+04  0.19200000000E+03 0.  0.
   -5000001    1    1    2    0    0 -0.17175394090E+03  0.79247430754E+02 -0.16762293525E+04  0.16977598221E+04  0.19200000000E+03 0.  0.
<mgrwt>
<rscale>  0 0.54091783E+03</rscale>
<asrwt>0</asrwt>
<pdfrwt beam="1">  1        2 0.44504016E+00 0.54091783E+03</pdfrwt>
<pdfrwt beam="2">  1       -2 0.33543419E-02 0.54091783E+03</pdfrwt>
<totfact> 0.83148736E+02</totfact>
</mgrwt>
</event>
<event>
 4    1  0.2058931E-005  0.3932336E+03  0.7818608E-02  0.1046148E+00
         -2   -1    0    0    0  501 -0.00000000000E+00  0.00000000000E+00  0.13132854863E+03  0.13132854865E+03  0.25500000000E-02 0. -1.
          2   -1    0    0  501    0  0.00000000000E+00 -0.00000000000E+00 -0.29436228479E+03  0.29436228481E+03  0.25500000000E-02 0.  1.
    5000001    1    1    2    0    0 -0.35390086069E+02  0.19468662489E+02 -0.95324427095E+02  0.21813352198E+03  0.19200000000E+03 0.  0.
   -5000001    1    1    2    0    0  0.35390086069E+02 -0.19468662489E+02 -0.67709309074E+02  0.20755731147E+03  0.19200000000E+03 0.  0.
<mgrwt>
<rscale>  0 0.39323363E+03</rscale>
<asrwt>0</asrwt>
<pdfrwt beam="1">  1        2 0.42051755E-01 0.39323363E+03</pdfrwt>
<pdfrwt beam="2">  1       -2 0.18761221E-01 0.39323363E+03</pdfrwt>
<totfact> 0.28583400E+03</totfact>
</mgrwt>
</event>
<event>
 4    1  0.2058931E-005  0.4433438E+03  0.7818608E-02  0.1029726E+00
          2   -1    0    0  501    0  0.00000000000E+00  0.00000000000E+00  0.26221078025E+03  0.26221078026E+03  0.25500000000E-02 0.  1.
         -2   -1    0    0    0  501 -0.00000000000E+00 -0.00000000000E+00 -0.18740047379E+03  0.18740047381E+03  0.25500000000E-02 0. -1.
    5000001    1    1    2    0    0  0.10021192058E+03 -0.21205894049E+02  0.80219333784E+02  0.23192942996E+03  0.19200000000E+03 0.  0.
   -5000001    1    1    2    0    0 -0.10021192058E+03  0.21205894049E+02 -0.54090273282E+01  0.21768182411E+03  0.19200000000E+03 0.  0.
<mgrwt>
<rscale>  0 0.44334377E+03</rscale>
<asrwt>0</asrwt>
<pdfrwt beam="1">  1        2 0.37458683E-01 0.44334377E+03</pdfrwt>
<pdfrwt beam="2">  1       -2 0.26771496E-01 0.44334377E+03</pdfrwt>
<totfact> 0.17409362E+03</totfact>
</mgrwt>
</event>
<event>
 4    1  0.2058931E-005  0.4892025E+03  0.7818608E-02  0.1016636E+00
          2   -1    0    0  501    0  0.00000000000E+00  0.00000000000E+00  0.97699367867E+03  0.97699367868E+03  0.25500000000E-02 0.  1.
         -2   -1    0    0    0  501 -0.00000000000E+00 -0.00000000000E+00 -0.61238637667E+02  0.61238637720E+02  0.25500000000E-02 0. -1.
    5000001    1    1    2    0    0 -0.92154730534E+02 -0.11357147223E+03  0.37365717991E+03  0.44483104856E+03  0.19200000000E+03 0.  0.
   -5000001    1    1    2    0    0  0.92154730534E+02  0.11357147223E+03  0.54209786110E+03  0.59340126784E+03  0.19200000000E+03 0.  0.
<mgrwt>
<rscale>  0 0.48920246E+03</rscale>
<asrwt>0</asrwt>
<pdfrwt beam="1">  1        2 0.13957053E+00 0.48920246E+03</pdfrwt>
<pdfrwt beam="2">  1       -2 0.87483764E-02 0.48920246E+03</pdfrwt>
<totfact> 0.24763226E+03</totfact>
</mgrwt>
</event>
<event>
 4    1  0.2058931E-005  0.6507119E+03  0.7818608E-02  0.9805444E-01
         -2   -1    0    0    0  501 -0.00000000000E+00  0.00000000000E+00  0.33696588333E+02  0.33696588430E+02  0.25500000000E-02 0. -1.
          2   -1    0    0  501    0  0.00000000000E+00 -0.00000000000E+00 -0.31414606661E+04  0.31414606661E+04  0.25500000000E-02 0.  1.
    5000001    1    1    2    0    0  0.23173907310E+03 -0.12338920879E+03 -0.15146596972E+04  0.15491887855E+04  0.19200000000E+03 0.  0.
   -5000001    1    1    2    0    0 -0.23173907310E+03  0.12338920879E+03 -0.15931043806E+04  0.16259684690E+04  0.19200000000E+03 0.  0.
<mgrwt>
<rscale>  0 0.65071194E+03</rscale>
<asrwt>0</asrwt>
<pdfrwt beam="1">  1        2 0.44877991E+00 0.65071194E+03</pdfrwt>
<pdfrwt beam="2">  1       -2 0.48138003E-02 0.65071194E+03</pdfrwt>
<totfact> 0.45655031E+02</totfact>
</mgrwt>
</event>
<event>
 4    1  0.2058931E-005  0.1059651E+04  0.7818608E-02  0.9245436E-01
         -2   -1    0    0    0  501 -0.00000000000E+00  0.00000000000E+00  0.21866187163E+03  0.21866187164E+03  0.25500000000E-02 0. -1.
          2   -1    0    0  501    0  0.00000000000E+00 -0.00000000000E+00 -0.12837869054E+04  0.12837869054E+04  0.25500000000E-02 0.  1.
    5000001    1    1    2    0    0  0.46293080357E+02  0.36632192787E+03 -0.67646913267E+02  0.42163361939E+03  0.19200000000E+03 0.  0.
   -5000001    1    1    2    0    0 -0.46293080357E+02 -0.36632192787E+03 -0.99747812046E+03  0.10808151576E+04  0.19200000000E+03 0.  0.
<mgrwt>
<rscale>  0 0.10596514E+04</rscale>
<asrwt>0</asrwt>
<pdfrwt beam="1">  1        2 0.18339813E+00 0.10596514E+04</pdfrwt>
<pdfrwt beam="2">  1       -2 0.31237411E-01 0.10596514E+04</pdfrwt>
<totfact> 0.18092832E+02</totfact>
</mgrwt>
</event>
<event>
 4    1  0.2058931E-005  0.5495272E+03  0.7818608E-02  0.1001603E+00
         -2   -1    0    0    0  501 -0.00000000000E+00  0.00000000000E+00  0.39675884311E+02  0.39675884393E+02  0.25500000000E-02 0. -1.
          2   -1    0    0  501    0  0.00000000000E+00 -0.00000000000E+00 -0.19027938092E+04  0.19027938092E+04  0.25500000000E-02 0.  1.
    5000001    1    1    2    0    0 -0.10083835303E+03  0.16869961092E+03 -0.93777755792E+03  0.97719940663E+03  0.19200000000E+03 0.  0.
   -5000001    1    1    2    0    0  0.10083835303E+03 -0.16869961092E+03 -0.92534036695E+03  0.96527028696E+03  0.19200000000E+03 0.  0.
<mgrwt>
<rscale>  0 0.54952717E+03</rscale>
<asrwt>0</asrwt>
<pdfrwt beam="1">  1        2 0.27182763E+00 0.54952717E+03</pdfrwt>
<pdfrwt beam="2">  1       -2 0.56679847E-02 0.54952717E+03</pdfrwt>
<totfact> 0.15685694E+03</totfact>
</mgrwt>
</event>
<event>
 4    1  0.2058931E-005  0.5916052E+03  0.7818608E-02  0.9922977E-01
          2   -1    0    0  501    0  0.00000000000E+00  0.00000000000E+00  0.37330060293E+04  0.37330060294E+04  0.25500000000E-02 0.  1.
         -2   -1    0    0    0  501 -0.00000000000E+00 -0.00000000000E+00 -0.23439336579E+02  0.23439336718E+02  0.25500000000E-02 0. -1.
    5000001    1    1    2    0    0  0.38900926072E+02  0.21971283995E+03  0.20397045760E+04  0.20608361826E+04  0.19200000000E+03 0.  0.
   -5000001    1    1    2    0    0 -0.38900926072E+02 -0.21971283995E+03  0.16698621167E+04  0.16956091834E+04  0.19200000000E+03 0.  0.
<mgrwt>
<rscale>  0 0.59160522E+03</rscale>
<asrwt>0</asrwt>
<pdfrwt beam="1">  1        2 0.53328617E+00 0.59160522E+03</pdfrwt>
<pdfrwt beam="2">  1       -2 0.33484792E-02 0.59160522E+03</pdfrwt>
<totfact> 0.36046157E+02</totfact>
</mgrwt>
</event>
<event>
 4    1  0.2058931E-005  0.4955326E+03  0.7818608E-02  0.1014952E+00
          2   -1    0    0  501    0  0.00000000000E+00  0.00000000000E+00  0.29269708880E+03  0.29269708881E+03  0.25500000000E-02 0.  1.
         -2   -1    0    0    0  501 -0.00000000000E+00 -0.00000000000E+00 -0.20973264079E+03  0.20973264081E+03  0.25500000000E-02 0. -1.
    5000001    1    1    2    0    0  0.14419858517E+03  0.57515225431E+02  0.62332994206E+02  0.25465787890E+03  0.19200000000E+03 0.  0.
   -5000001    1    1    2    0    0 -0.14419858517E+03 -0.57515225431E+02  0.20631453803E+02  0.24777185072E+03  0.19200000000E+03 0.  0.
<mgrwt>
<rscale>  0 0.49553258E+03</rscale>
<asrwt>0</asrwt>
<pdfrwt beam="1">  1        2 0.41813870E-01 0.49553258E+03</pdfrwt>
<pdfrwt beam="2">  1       -2 0.29961806E-01 0.49553258E+03</pdfrwt>
<totfact> 0.12577431E+03</totfact>
</mgrwt>
</event>
<event>
 4    1  0.2058931E-005  0.5885857E+03  0.7818608E-02  0.9929374E-01
          2   -1    0    0  501    0  0.00000000000E+00  0.00000000000E+00  0.92757073019E+03  0.92757073019E+03  0.25500000000E-02 0.  1.
         -2   -1    0    0    0  501 -0.00000000000E+00 -0.00000000000E+00 -0.93371079733E+02  0.93371079768E+02  0.25500000000E-02 0. -1.
    5000001    1    1    2    0    0 -0.11419202933E+03 -0.14303534945E+03  0.19601658556E+03  0.32982636730E+03  0.19200000000E+03 0.  0.
   -5000001    1    1    2    0    0  0.11419202933E+03  0.14303534945E+03  0.63818306490E+03  0.69111544266E+03  0.19200000000E+03 0.  0.
<mgrwt>
<rscale>  0 0.58858570E+03</rscale>
<asrwt>0</asrwt>
<pdfrwt beam="1">  1        2 0.13251010E+00 0.58858570E+03</pdfrwt>
<pdfrwt beam="2">  1       -2 0.13338726E-01 0.58858570E+03</pdfrwt>
<totfact> 0.13366151E+03</totfact>
</mgrwt>
</event>
<event>
 4    1  0.2058931E-005  0.5145178E+03  0.7818608E-02  0.1010058E+00
         -2   -1    0    0    0  501 -0.00000000000E+00  0.00000000000E+00  0.72137182108E+02  0.72137182153E+02  0.25500000000E-02 0. -1.
          2   -1    0    0  501    0  0.00000000000E+00 -0.00000000000E+00 -0.91744822314E+03  0.91744822315E+03  0.25500000000E-02 0.  1.
    5000001    1    1    2    0    0 -0.54050185392E+02  0.13167612863E+03 -0.23960474517E+03  0.33842940076E+03  0.19200000000E+03 0.  0.
   -5000001    1    1    2    0    0  0.54050185392E+02 -0.13167612863E+03 -0.60570629586E+03  0.65115600454E+03  0.19200000000E+03 0.  0.
<mgrwt>
<rscale>  0 0.51451775E+03</rscale>
<asrwt>0</asrwt>
<pdfrwt beam="1">  1        2 0.13106403E+00 0.51451775E+03</pdfrwt>
<pdfrwt beam="2">  1       -2 0.10305312E-01 0.51451775E+03</pdfrwt>
<totfact> 0.20726952E+03</totfact>
</mgrwt>
</event>
<event>
 4    1  0.2058931E-005  0.5457487E+03  0.7818608E-02  0.1002483E+00
          2   -1    0    0  501    0  0.00000000000E+00  0.00000000000E+00  0.46085112025E+04  0.46085112025E+04  0.25500000000E-02 0.  1.
         -2   -1    0    0    0  501 -0.00000000000E+00 -0.00000000000E+00 -0.16157153444E+02  0.16157153645E+02  0.25500000000E-02 0. -1.
    5000001    1    1    2    0    0 -0.11495211760E+03 -0.12175514848E+03  0.31246417719E+04  0.31350101289E+04  0.19200000000E+03 0.  0.
   -5000001    1    1    2    0    0  0.11495211760E+03  0.12175514848E+03  0.14677122771E+04  0.14896582272E+04  0.19200000000E+03 0.  0.
<mgrwt>
<rscale>  0 0.54574874E+03</rscale>
<asrwt>0</asrwt>
<pdfrwt beam="1">  1        2 0.65835823E+00 0.54574874E+03</pdfrwt>
<pdfrwt beam="2">  1       -2 0.23081666E-02 0.54574874E+03</pdfrwt>
<totfact> 0.15464812E+02</totfact>
</mgrwt>
</event>
<event>
 4    1  0.2058931E-005  0.6046332E+03  0.7818608E-02  0.9895840E-01
         -2   -1    0    0    0  501 -0.00000000000E+00  0.00000000000E+00  0.57752389359E+03  0.57752389359E+03  0.25500000000E-02 0.  1.
          2   -1    0    0  501    0  0.00000000000E+00 -0.00000000000E+00 -0.15825374496E+03  0.15825374498E+03  0.25500000000E-02 0. -1.
    5000001    1    1    2    0    0 -0.11593354102E+03 -0.19442251845E+03  0.13982898555E+03  0.32811102818E+03  0.19200000000E+03 0.  0.
   -5000001    1    1    2    0    0  0.11593354102E+03  0.19442251845E+03  0.27944116308E+03  0.40766661040E+03  0.19200000000E+03 0.  0.
<mgrwt>
<rscale>  0 0.60463317E+03</rscale>
<asrwt>0</asrwt>
<pdfrwt beam="1">  1        2 0.22607677E-01 0.60463317E+03</pdfrwt>
<pdfrwt beam="2">  1       -2 0.82503415E-01 0.60463317E+03</pdfrwt>
<totfact> 0.32073956E+02</totfact>
</mgrwt>
</event>
<event>
 4    1  0.2058931E-005  0.1741656E+04  0.7818608E-02  0.8737957E-01
          2   -1    0    0  501    0  0.00000000000E+00  0.00000000000E+00  0.27627777151E+04  0.27627777151E+04  0.25500000000E-02 0.  1.
         -2   -1    0    0    0  501 -0.00000000000E+00 -0.00000000000E+00 -0.27448504285E+03  0.27448504286E+03  0.25500000000E-02 0. -1.
    5000001    1    1    2    0    0 -0.54290080889E+03 -0.54975792937E+03  0.62881592894E+03  0.10145188720E+04  0.19200000000E+03 0.  0.
   -5000001    1    1    2    0    0  0.54290080889E+03  0.54975792937E+03  0.18594767433E+04  0.20227438859E+04  0.19200000000E+03 0.  0.
<mgrwt>
<rscale>  0 0.17416557E+04</rscale>
<asrwt>0</asrwt>
<pdfrwt beam="1">  1        2 0.39468254E+00 0.17416557E+04</pdfrwt>
<pdfrwt beam="2">  1       -2 0.39212148E-01 0.17416557E+04</pdfrwt>
<totfact> 0.18668591E+01</totfact>
</mgrwt>
</event>
<event>
 4    1  0.2058931E-005  0.4807058E+03  0.7818608E-02  0.1018941E+00
         -2   -1    0    0    0  501 -0.00000000000E+00  0.00000000000E+00  0.73416719221E+03  0.73416719222E+03  0.25500000000E-02 0. -1.
          2   -1    0    0  501    0  0.00000000000E+00 -0.00000000000E+00 -0.78687135012E+02  0.78687135054E+02  0.25500000000E-02 0.  1.
    5000001    1    1    2    0    0 -0.14390293047E+03  0.12224063941E+02  0.31602082601E+03  0.39697688045E+03  0.19200000000E+03 0.  0.
   -5000001    1    1    2    0    0  0.14390293047E+03 -0.12224063941E+02  0.33945923119E+03  0.41587744682E+03  0.19200000000E+03 0.  0.
<mgrwt>
<rscale>  0 0.48070579E+03</rscale>
<asrwt>0</asrwt>
<pdfrwt beam="1">  1        2 0.11241019E-01 0.48070579E+03</pdfrwt>
<pdfrwt beam="2">  1       -2 0.10488103E+00 0.48070579E+03</pdfrwt>
<totfact> 0.42679035E+02</totfact>
</mgrwt>
</event>
<event>
 4    1  0.2058931E-005  0.4532705E+03  0.7818608E-02  0.1026751E+00
          2   -1    0    0  501    0  0.00000000000E+00  0.00000000000E+00  0.23391170430E+04  0.23391170430E+04  0.25500000000E-02 0.  1.
         -2   -1    0    0    0  501 -0.00000000000E+00 -0.00000000000E+00 -0.21958514518E+02  0.21958514666E+02  0.25500000000E-02 0. -1.
    5000001    1    1    2    0    0  0.11376146057E+03 -0.34237255495E+02  0.12608764830E+04  0.12809322250E+04  0.19200000000E+03 0.  0.
   -5000001    1    1    2    0    0 -0.11376146057E+03  0.34237255495E+02  0.10562820455E+04  0.10801433327E+04  0.19200000000E+03 0.  0.
<mgrwt>
<rscale>  0 0.45327050E+03</rscale>
<asrwt>0</asrwt>
<pdfrwt beam="1">  1        2 0.33415977E+00 0.45327050E+03</pdfrwt>
<pdfrwt beam="2">  1       -2 0.31369288E-02 0.45327050E+03</pdfrwt>
<totfact> 0.23619824E+03</totfact>
</mgrwt>
</event>
<event>
 4    1  0.2058931E-005  0.7328604E+03  0.7818608E-02  0.9662630E-01
          2   -1    0    0  501    0  0.00000000000E+00  0.00000000000E+00  0.13870926275E+03  0.13870926277E+03  0.25500000000E-02 0.  1.
         -2   -1    0    0    0  501 -0.00000000000E+00 -0.00000000000E+00 -0.96800377475E+03  0.96800377476E+03  0.25500000000E-02 0. -1.
    5000001    1    1    2    0    0  0.15558092283E+03  0.26975146785E+03 -0.38312165585E+03  0.52973340572E+03  0.19200000000E+03 0.  0.
   -5000001    1    1    2    0    0 -0.15558092283E+03 -0.26975146785E+03 -0.44617285616E+03  0.57697963181E+03  0.19200000000E+03 0.  0.
<mgrwt>
<rscale>  0 0.73286040E+03</rscale>
<asrwt>0</asrwt>
<pdfrwt beam="1">  1        2 0.19815610E-01 0.73286040E+03</pdfrwt>
<pdfrwt beam="2">  1       -2 0.13828625E+00 0.73286040E+03</pdfrwt>
<totfact> 0.10769350E+02</totfact>
</mgrwt>
</event>
<event>
 4    1  0.2058931E-005  0.4220833E+03  0.7818608E-02  0.1036390E+00
         -2   -1    0    0    0  501 -0.00000000000E+00  0.00000000000E+00  0.81393794284E+02  0.81393794324E+02  0.25500000000E-02 0. -1.
          2   -1    0    0  501    0  0.00000000000E+00 -0.00000000000E+00 -0.54719862153E+03  0.54719862154E+03  0.25500000000E-02 0.  1.
    5000001    1    1    2    0    0 -0.84567554268E+02  0.18616287219E+01 -0.26684435388E+03  0.33944814935E+03  0.19200000000E+03 0.  0.
   -5000001    1    1    2    0    0  0.84567554268E+02 -0.18616287219E+01 -0.19896047337E+03  0.28914426652E+03  0.19200000000E+03 0.  0.
<mgrwt>
<rscale>  0 0.42208327E+03</rscale>
<asrwt>0</asrwt>
<pdfrwt beam="1">  1        2 0.78171230E-01 0.42208327E+03</pdfrwt>
<pdfrwt beam="2">  1       -2 0.11627685E-01 0.42208327E+03</pdfrwt>
<totfact> 0.32042432E+03</totfact>
</mgrwt>
</event>
<event>
 4    1  0.2058931E-005  0.7318556E+03  0.7818608E-02  0.9664254E-01
          2   -1    0    0  501    0  0.00000000000E+00  0.00000000000E+00  0.39501761905E+03  0.39501761906E+03  0.25500000000E-02 0.  1.
         -2   -1    0    0    0  501 -0.00000000000E+00 -0.00000000000E+00 -0.33898021055E+03  0.33898021056E+03  0.25500000000E-02 0. -1.
    5000001    1    1    2    0    0  0.24561279009E+03 -0.14871414552E+03  0.14919295437E+03  0.37625001975E+03  0.19200000000E+03 0.  0.
   -5000001    1    1    2    0    0 -0.24561279009E+03  0.14871414552E+03 -0.93155545869E+02  0.35774780986E+03  0.19200000000E+03 0.  0.
<mgrwt>
<rscale>  0 0.73185560E+03</rscale>
<asrwt>0</asrwt>
<pdfrwt beam="1">  1        2 0.56431088E-01 0.73185560E+03</pdfrwt>
<pdfrwt beam="2">  1       -2 0.48425745E-01 0.73185560E+03</pdfrwt>
<totfact> 0.35693043E+02</totfact>
</mgrwt>
</event>
<event>
 4    1  0.2058931E-005  0.4511982E+03  0.7818608E-02  0.1027365E+00
         -2   -1    0    0    0  501 -0.00000000000E+00  0.00000000000E+00  0.17511433807E+02  0.17511433993E+02  0.25500000000E-02 0. -1.
          2   -1    0    0  501    0  0.00000000000E+00 -0.00000000000E+00 -0.29063836870E+04  0.29063836870E+04  0.25500000000E-02 0.  1.
    5000001    1    1    2    0    0 -0.82999441364E+02  0.36147824721E+02 -0.94940923759E+03  0.97285018010E+03  0.19200000000E+03 0.  0.
   -5000001    1    1    2    0    0  0.82999441364E+02 -0.36147824721E+02 -0.19394630156E+04  0.19510449409E+04  0.19200000000E+03 0.  0.
<mgrwt>
<rscale>  0 0.45119816E+03</rscale>
<asrwt>0</asrwt>
<pdfrwt beam="1">  1        2 0.41519736E+00 0.45119816E+03</pdfrwt>
<pdfrwt beam="2">  1       -2 0.25016353E-02 0.45119816E+03</pdfrwt>
<totfact> 0.16950046E+03</totfact>
</mgrwt>
</event>
<event>
 4    1  0.2058931E-005  0.1220575E+04  0.7818608E-02  0.9095035E-01
          2   -1    0    0  501    0  0.00000000000E+00  0.00000000000E+00  0.13155772497E+04  0.13155772497E+04  0.25500000000E-02 0.  1.
         -2   -1    0    0    0  501 -0.00000000000E+00 -0.00000000000E+00 -0.28310848937E+03  0.28310848938E+03  0.25500000000E-02 0. -1.
    5000001    1    1    2    0    0 -0.54280299304E+03 -0.79950898461E+01  0.25138630242E+03  0.62829776680E+03  0.19200000000E+03 0.  0.
   -5000001    1    1    2    0    0  0.54280299304E+03  0.79950898461E+01  0.78108245790E+03  0.97038797228E+03  0.19200000000E+03 0.  0.
<mgrwt>
<rscale>  0 0.12205754E+04</rscale>
<asrwt>0</asrwt>
<pdfrwt beam="1">  1        2 0.18793961E+00 0.12205754E+04</pdfrwt>
<pdfrwt beam="2">  1       -2 0.40444070E-01 0.12205754E+04</pdfrwt>
<totfact> 0.10489891E+02</totfact>
</mgrwt>
</event>
<event>
 4    1  0.2058931E-005  0.9603455E+03  0.7818608E-02  0.9353139E-01
          2   -1    0    0  501    0  0.00000000000E+00  0.00000000000E+00  0.80825355924E+03  0.80825355925E+03  0.25500000000E-02 0.  1.
         -2   -1    0    0    0  501 -0.00000000000E+00 -0.00000000000E+00 -0.28526428061E+03  0.28526428063E+03  0.25500000000E-02 0. -1.
    5000001    1    1    2    0    0 -0.75530137985E+02 -0.20276506165E+03  0.69789461965E+03  0.75547294598E+03  0.19200000000E+03 0.  0.
   -5000001    1    1    2    0    0  0.75530137985E+02  0.20276506165E+03 -0.17490534102E+03  0.33804489389E+03  0.19200000000E+03 0.  0.
<mgrwt>
<rscale>  0 0.96034550E+03</rscale>
<asrwt>0</asrwt>
<pdfrwt beam="1">  1        2 0.11546480E+00 0.96034550E+03</pdfrwt>
<pdfrwt beam="2">  1       -2 0.40752040E-01 0.96034550E+03</pdfrwt>
<totfact> 0.21361756E+02</totfact>
</mgrwt>
</event>
<event>
 4    1  0.2058931E-005  0.5860703E+03  0.7818608E-02  0.9934735E-01
          2   -1    0    0  501    0  0.00000000000E+00  0.00000000000E+00  0.94044975389E+03  0.94044975390E+03  0.25500000000E-02 0.  1.
         -2   -1    0    0    0  501 -0.00000000000E+00 -0.00000000000E+00 -0.91306957057E+02  0.91306957092E+02  0.25500000000E-02 0. -1.
    5000001    1    1    2    0    0 -0.19087445515E+03 -0.10319156169E+03  0.34735035438E+03  0.45232491057E+03  0.19200000000E+03 0.  0.
   -5000001    1    1    2    0    0  0.19087445515E+03  0.10319156169E+03  0.50179244246E+03  0.57943180042E+03  0.19200000000E+03 0.  0.
<mgrwt>
<rscale>  0 0.58607032E+03</rscale>
<asrwt>0</asrwt>
<pdfrwt beam="1">  1        2 0.13434997E+00 0.58607032E+03</pdfrwt>
<pdfrwt beam="2">  1       -2 0.13043851E-01 0.58607032E+03</pdfrwt>
<totfact> 0.13614884E+03</totfact>
</mgrwt>
</event>
<event>
 4    1  0.2058931E-005  0.6097167E+03  0.7818608E-02  0.9885450E-01
          2   -1    0    0  501    0  0.00000000000E+00  0.00000000000E+00  0.10066864062E+04  0.10066864062E+04  0.25500000000E-02 0.  1.
         -2   -1    0    0    0  501 -0.00000000000E+00 -0.00000000000E+00 -0.92321302326E+02  0.92321302361E+02  0.25500000000E-02 0. -1.
    5000001    1    1    2    0    0 -0.17270855735E+03  0.15673254304E+03  0.53109041899E+03  0.61099457360E+03  0.19200000000E+03 0.  0.
   -5000001    1    1    2    0    0  0.17270855735E+03 -0.15673254304E+03  0.38327468491E+03  0.48801313499E+03  0.19200000000E+03 0.  0.
<mgrwt>
<rscale>  0 0.60971666E+03</rscale>
<asrwt>0</asrwt>
<pdfrwt beam="1">  1        2 0.14381236E+00 0.60971666E+03</pdfrwt>
<pdfrwt beam="2">  1       -2 0.13188756E-01 0.60971666E+03</pdfrwt>
<totfact> 0.12159094E+03</totfact>
</mgrwt>
</event>
<event>
 4    1  0.2058931E-005  0.8078679E+03  0.7818608E-02  0.9548698E-01
          2   -1    0    0  501    0  0.00000000000E+00  0.00000000000E+00  0.46322740329E+04  0.46322740329E+04  0.25500000000E-02 0.  1.
         -2   -1    0    0    0  501 -0.00000000000E+00 -0.00000000000E+00 -0.35223010085E+02  0.35223010177E+02  0.25500000000E-02 0. -1.
    5000001    1    1    2    0    0 -0.11196471663E+03  0.11384844694E+03  0.46420058214E+03  0.52710885697E+03  0.19200000000E+03 0.  0.
   -5000001    1    1    2    0    0  0.11196471663E+03 -0.11384844694E+03  0.41328504407E+04  0.41403881862E+04  0.19200000000E+03 0.  0.
<mgrwt>
<rscale>  0 0.80786790E+03</rscale>
<asrwt>0</asrwt>
<pdfrwt beam="1">  1        2 0.66175286E+00 0.80786790E+03</pdfrwt>
<pdfrwt beam="2">  1       -2 0.50318629E-02 0.80786790E+03</pdfrwt>
<totfact> 0.42873382E+01</totfact>
</mgrwt>
</event>
<event>
 4    1  0.2058931E-005  0.5848203E+03  0.7818608E-02  0.9937409E-01
          2   -1    0    0  501    0  0.00000000000E+00  0.00000000000E+00  0.37083795171E+04  0.37083795171E+04  0.25500000000E-02 0.  1.
         -2   -1    0    0    0  501 -0.00000000000E+00 -0.00000000000E+00 -0.23056891300E+02  0.23056891441E+02  0.25500000000E-02 0. -1.
    5000001    1    1    2    0    0 -0.39241461721E+02  0.10618568273E+03  0.63500565078E+03  0.67298697466E+03  0.19200000000E+03 0.  0.
   -5000001    1    1    2    0    0  0.39241461721E+02 -0.10618568273E+03  0.30503169750E+04  0.30584494338E+04  0.19200000000E+03 0.  0.
<mgrwt>
<rscale>  0 0.58482033E+03</rscale>
<asrwt>0</asrwt>
<pdfrwt beam="1">  1        2 0.52976816E+00 0.58482033E+03</pdfrwt>
<pdfrwt beam="2">  1       -2 0.32938438E-02 0.58482033E+03</pdfrwt>
<totfact> 0.38324513E+02</totfact>
</mgrwt>
</event>
<event>
 4    1  0.2058931E-005  0.9593906E+03  0.7818608E-02  0.9354241E-01
         -2   -1    0    0    0  501 -0.00000000000E+00  0.00000000000E+00  0.48909275062E+03  0.48909275063E+03  0.25500000000E-02 0. -1.
          2   -1    0    0  501    0  0.00000000000E+00 -0.00000000000E+00 -0.47047845065E+03  0.47047845066E+03  0.25500000000E-02 0.  1.
    5000001    1    1    2    0    0 -0.15922177654E+03 -0.34915281913E+03 -0.20517279063E+03  0.47562499855E+03  0.19200000000E+03 0.  0.
   -5000001    1    1    2    0    0  0.15922177654E+03  0.34915281913E+03  0.22378709060E+03  0.48394620274E+03  0.19200000000E+03 0.  0.
<mgrwt>
<rscale>  0 0.95939064E+03</rscale>
<asrwt>0</asrwt>
<pdfrwt beam="1">  1        2 0.67211207E-01 0.95939064E+03</pdfrwt>
<pdfrwt beam="2">  1       -2 0.69870393E-01 0.95939064E+03</pdfrwt>
<totfact> 0.13453256E+02</totfact>
</mgrwt>
</event>
<event>
 4    1  0.2058931E-005  0.5216238E+03  0.7818608E-02  0.1008284E+00
          2   -1    0    0  501    0  0.00000000000E+00  0.00000000000E+00  0.89832320552E+03  0.89832320553E+03  0.25500000000E-02 0.  1.
         -2   -1    0    0    0  501 -0.00000000000E+00 -0.00000000000E+00 -0.75722029027E+02  0.75722029070E+02  0.25500000000E-02 0. -1.
    5000001    1    1    2    0    0 -0.99848258280E+02 -0.57262717719E+02  0.66120358315E+03  0.69807082154E+03  0.19200000000E+03 0.  0.
   -5000001    1    1    2    0    0  0.99848258280E+02  0.57262717719E+02  0.16139759335E+03  0.27597441305E+03  0.19200000000E+03 0.  0.
<mgrwt>
<rscale>  0 0.52162383E+03</rscale>
<asrwt>0</asrwt>
<pdfrwt beam="1">  1        2 0.12833188E+00 0.52162383E+03</pdfrwt>
<pdfrwt beam="2">  1       -2 0.10817434E-01 0.52162383E+03</pdfrwt>
<totfact> 0.19704370E+03</totfact>
</mgrwt>
</event>
<event>
 4    1  0.2058931E-005  0.5080344E+03  0.7818608E-02  0.1011703E+00
          2   -1    0    0  501    0  0.00000000000E+00  0.00000000000E+00  0.77081663365E+03  0.77081663365E+03  0.25500000000E-02 0.  1.
         -2   -1    0    0    0  501 -0.00000000000E+00 -0.00000000000E+00 -0.83709584402E+02  0.83709584441E+02  0.25500000000E-02 0. -1.
    5000001    1    1    2    0    0  0.14998675383E+03  0.69490602207E+02  0.37437498257E+03  0.45204601280E+03  0.19200000000E+03 0.  0.
   -5000001    1    1    2    0    0 -0.14998675383E+03 -0.69490602207E+02  0.31273206668E+03  0.40248020529E+03  0.19200000000E+03 0.  0.
<mgrwt>
<rscale>  0 0.50803441E+03</rscale>
<asrwt>0</asrwt>
<pdfrwt beam="1">  1        2 0.11011666E+00 0.50803441E+03</pdfrwt>
<pdfrwt beam="2">  1       -2 0.11958512E-01 0.50803441E+03</pdfrwt>
<totfact> 0.20380823E+03</totfact>
</mgrwt>
</event>
<event>
 4    1  0.2058931E-005  0.4577511E+03  0.7818608E-02  0.1025435E+00
          2   -1    0    0  501    0  0.00000000000E+00  0.00000000000E+00  0.77058527270E+03  0.77058527270E+03  0.25500000000E-02 0.  1.
         -2   -1    0    0    0  501 -0.00000000000E+00 -0.00000000000E+00 -0.67979522553E+02  0.67979522601E+02  0.25500000000E-02 0. -1.
    5000001    1    1    2    0    0  0.88168817380E+02  0.80016186913E+02  0.41845449750E+03  0.47554652454E+03  0.19200000000E+03 0.  0.
   -5000001    1    1    2    0    0 -0.88168817380E+02 -0.80016186913E+02  0.28415125264E+03  0.36301827076E+03  0.19200000000E+03 0.  0.
<mgrwt>
<rscale>  0 0.45775111E+03</rscale>
<asrwt>0</asrwt>
<pdfrwt beam="1">  1        2 0.11008360E+00 0.45775111E+03</pdfrwt>
<pdfrwt beam="2">  1       -2 0.97113614E-02 0.45775111E+03</pdfrwt>
<totfact> 0.28568050E+03</totfact>
</mgrwt>
</event>
<event>
 4    1  0.2058931E-005  0.6049628E+03  0.7818608E-02  0.9895163E-01
          2   -1    0    0  501    0  0.00000000000E+00  0.00000000000E+00  0.10675250535E+04  0.10675250535E+04  0.25500000000E-02 0.  1.
         -2   -1    0    0    0  501 -0.00000000000E+00 -0.00000000000E+00 -0.85707589034E+02  0.85707589072E+02  0.25500000000E-02 0. -1.
    5000001    1    1    2    0    0  0.39400496924E+02 -0.20432446541E+03  0.28799784013E+03  0.40386587160E+03  0.19200000000E+03 0.  0.
   -5000001    1    1    2    0    0 -0.39400496924E+02  0.20432446541E+03  0.69381962431E+03  0.74936677095E+03  0.19200000000E+03 0.  0.
<mgrwt>
<rscale>  0 0.60496280E+03</rscale>
<asrwt>0</asrwt>
<pdfrwt beam="1">  1        2 0.15250358E+00 0.60496280E+03</pdfrwt>
<pdfrwt beam="2">  1       -2 0.12243941E-01 0.60496280E+03</pdfrwt>
<totfact> 0.12646560E+03</totfact>
</mgrwt>
</event>
<event>
 4    1  0.2058931E-005  0.6548879E+03  0.7818608E-02  0.9797650E-01
         -2   -1    0    0    0  501 -0.00000000000E+00  0.00000000000E+00  0.19693892602E+03  0.19693892603E+03  0.25500000000E-02 0. -1.
          2   -1    0    0  501    0  0.00000000000E+00 -0.00000000000E+00 -0.54443047562E+03  0.54443047563E+03  0.25500000000E-02 0.  1.
    5000001    1    1    2    0    0  0.24115145590E+03  0.74560335860E+02 -0.81483021257E+02  0.32743969082E+03  0.19200000000E+03 0.  0.
   -5000001    1    1    2    0    0 -0.24115145590E+03 -0.74560335860E+02 -0.26600852835E+03  0.41392971085E+03  0.19200000000E+03 0.  0.
<mgrwt>
<rscale>  0 0.65488794E+03</rscale>
<asrwt>0</asrwt>
<pdfrwt beam="1">  1        2 0.77775782E-01 0.65488794E+03</pdfrwt>
<pdfrwt beam="2">  1       -2 0.28134132E-01 0.65488794E+03</pdfrwt>
<totfact> 0.70542338E+02</totfact>
</mgrwt>
</event>
<event>
 4    1  0.2058931E-005  0.6959897E+03  0.7818608E-02  0.9724115E-01
          2   -1    0    0  501    0  0.00000000000E+00  0.00000000000E+00  0.80417787566E+03  0.80417787566E+03  0.25500000000E-02 0. -1.
         -2   -1    0    0    0  501 -0.00000000000E+00 -0.00000000000E+00 -0.15058907579E+03  0.15058907581E+03  0.25500000000E-02 0.  1.
    5000001    1    1    2    0    0  0.27022840092E+03  0.10332225485E+03  0.35859932316E+03  0.49915563864E+03  0.19200000000E+03 0.  0.
   -5000001    1    1    2    0    0 -0.27022840092E+03 -0.10332225485E+03  0.29498947671E+03  0.45561131284E+03  0.19200000000E+03 0.  0.
<mgrwt>
<rscale>  0 0.69598966E+03</rscale>
<asrwt>0</asrwt>
<pdfrwt beam="1">  1        2 0.11488255E+00 0.69598966E+03</pdfrwt>
<pdfrwt beam="2">  1       -2 0.21512725E-01 0.69598966E+03</pdfrwt>
<totfact> 0.71078452E+02</totfact>
</mgrwt>
</event>
<event>
 4    1  0.2058931E-005  0.4599759E+03  0.7818608E-02  0.1024788E+00
          2   -1    0    0  501    0  0.00000000000E+00  0.00000000000E+00  0.10374938676E+04  0.10374938676E+04  0.25500000000E-02 0.  1.
         -2   -1    0    0    0  501 -0.00000000000E+00 -0.00000000000E+00 -0.50982919930E+02  0.50982919994E+02  0.25500000000E-02 0. -1.
    5000001    1    1    2    0    0  0.12094148891E+03  0.37355738547E+02  0.50002011611E+03  0.55036934095E+03  0.19200000000E+03 0.  0.
   -5000001    1    1    2    0    0 -0.12094148891E+03 -0.37355738547E+02  0.48649083153E+03  0.53810744661E+03  0.19200000000E+03 0.  0.
<mgrwt>
<rscale>  0 0.45997594E+03</rscale>
<asrwt>0</asrwt>
<pdfrwt beam="1">  1        2 0.14821341E+00 0.45997594E+03</pdfrwt>
<pdfrwt beam="2">  1       -2 0.72832744E-02 0.45997594E+03</pdfrwt>
<totfact> 0.30443490E+03</totfact>
</mgrwt>
</event>
<event>
 4    1  0.2058931E-005  0.5905908E+03  0.7818608E-02  0.9925122E-01
          2   -1    0    0  501    0  0.00000000000E+00  0.00000000000E+00  0.23738818611E+03  0.23738818612E+03  0.25500000000E-02 0.  1.
         -2   -1    0    0    0  501 -0.00000000000E+00 -0.00000000000E+00 -0.36732824417E+03  0.36732824418E+03  0.25500000000E-02 0. -1.
    5000001    1    1    2    0    0 -0.21297162129E+03 -0.88188278584E+01 -0.13664940664E+03  0.31776051286E+03  0.19200000000E+03 0.  0.
   -5000001    1    1    2    0    0  0.21297162129E+03  0.88188278584E+01  0.67093485709E+01  0.28695591745E+03  0.19200000000E+03 0.  0.
<mgrwt>
<rscale>  0 0.59059084E+03</rscale>
<asrwt>0</asrwt>
<pdfrwt beam="1">  1        2 0.33912598E-01 0.59059084E+03</pdfrwt>
<pdfrwt beam="2">  1       -2 0.52475464E-01 0.59059084E+03</pdfrwt>
<totfact> 0.53517096E+02</totfact>
</mgrwt>
</event>
<event>
 4    1  0.2058931E-005  0.4829408E+03  0.7818608E-02  0.1018330E+00
         -2   -1    0    0    0  501 -0.00000000000E+00  0.00000000000E+00  0.37673303128E+02  0.37673303214E+02  0.25500000000E-02 0. -1.
          2   -1    0    0  501    0  0.00000000000E+00 -0.00000000000E+00 -0.15477259833E+04  0.15477259833E+04  0.25500000000E-02 0.  1.
    5000001    1    1    2    0    0 -0.55482076518E+02  0.12122468932E+03 -0.55614527709E+03  0.60327046616E+03  0.19200000000E+03 0.  0.
   -5000001    1    1    2    0    0  0.55482076518E+02 -0.12122468932E+03 -0.95390740311E+03  0.98212882038E+03  0.19200000000E+03 0.  0.
<mgrwt>
<rscale>  0 0.48294078E+03</rscale>
<asrwt>0</asrwt>
<pdfrwt beam="1">  1        2 0.22110367E+00 0.48294078E+03</pdfrwt>
<pdfrwt beam="2">  1       -2 0.53819014E-02 0.48294078E+03</pdfrwt>
<totfact> 0.25758270E+03</totfact>
</mgrwt>
</event>
<event>
 4    1  0.2058931E-005  0.1047220E+04  0.7818608E-02  0.9258219E-01
          2   -1    0    0  501    0  0.00000000000E+00  0.00000000000E+00  0.19322024800E+04  0.19322024800E+04  0.25500000000E-02 0.  1.
         -2   -1    0    0    0  501 -0.00000000000E+00 -0.00000000000E+00 -0.14189363097E+03  0.14189363099E+03  0.25500000000E-02 0. -1.
    5000001    1    1    2    0    0  0.89926117302E+02  0.43191155229E+03  0.13042709191E+04  0.13901873708E+04  0.19200000000E+03 0.  0.
   -5000001    1    1    2    0    0 -0.89926117302E+02 -0.43191155229E+03  0.48603792999E+03  0.68390874023E+03  0.19200000000E+03 0.  0.
<mgrwt>
<rscale>  0 0.10472196E+04</rscale>
<asrwt>0</asrwt>
<pdfrwt beam="1">  1        2 0.27602890E+00 0.10472196E+04</pdfrwt>
<pdfrwt beam="2">  1       -2 0.20270520E-01 0.10472196E+04</pdfrwt>
<totfact> 0.18086360E+02</totfact>
</mgrwt>
</event>
<event>
 4    1  0.2058931E-005  0.5606463E+03  0.7818608E-02  0.9990593E-01
          2   -1    0    0  501    0  0.00000000000E+00  0.00000000000E+00  0.78543876772E+03  0.78543876772E+03  0.25500000000E-02 0.  1.
         -2   -1    0    0    0  501 -0.00000000000E+00 -0.00000000000E+00 -0.10004734189E+03  0.10004734192E+03  0.25500000000E-02 0. -1.
    5000001    1    1    2    0    0 -0.15216190404E+03 -0.23821801841E+02  0.13081819349E+03  0.27874383048E+03  0.19200000000E+03 0.  0.
   -5000001    1    1    2    0    0  0.15216190404E+03  0.23821801841E+02  0.55457323234E+03  0.60674227916E+03  0.19200000000E+03 0.  0.
<mgrwt>
<rscale>  0 0.56064627E+03</rscale>
<asrwt>0</asrwt>
<pdfrwt beam="1">  1        2 0.11220555E+00 0.56064627E+03</pdfrwt>
<pdfrwt beam="2">  1       -2 0.14292476E-01 0.56064627E+03</pdfrwt>
<totfact> 0.14812936E+03</totfact>
</mgrwt>
</event>
<event>
 4    1  0.2058931E-005  0.5528603E+03  0.7818608E-02  0.1000834E+00
         -2   -1    0    0    0  501 -0.00000000000E+00  0.00000000000E+00  0.38946313716E+02  0.38946313800E+02  0.25500000000E-02 0. -1.
          2   -1    0    0  501    0  0.00000000000E+00 -0.00000000000E+00 -0.19620249183E+04  0.19620249183E+04  0.25500000000E-02 0.  1.
    5000001    1    1    2    0    0  0.12278049618E+03  0.10654875135E+03 -0.13761348400E+04  0.13989420233E+04  0.19200000000E+03 0.  0.
   -5000001    1    1    2    0    0 -0.12278049618E+03 -0.10654875135E+03 -0.54694376463E+03  0.60202920886E+03  0.19200000000E+03 0.  0.
<mgrwt>
<rscale>  0 0.55286034E+03</rscale>
<asrwt>0</asrwt>
<pdfrwt beam="1">  1        2 0.28028921E+00 0.55286034E+03</pdfrwt>
<pdfrwt beam="2">  1       -2 0.55637603E-02 0.55286034E+03</pdfrwt>
<totfact> 0.15076839E+03</totfact>
</mgrwt>
</event>
<event>
 4    1  0.2058931E-005  0.7725055E+03  0.7818608E-02  0.9600690E-01
         -2   -1    0    0    0  501 -0.00000000000E+00  0.00000000000E+00  0.96292894283E+02  0.96292894317E+02  0.25500000000E-02 0. -1.
          2   -1    0    0  501    0  0.00000000000E+00 -0.00000000000E+00 -0.15493478900E+04  0.15493478900E+04  0.25500000000E-02 0.  1.
    5000001    1    1    2    0    0  0.24471725483E+03  0.22430130744E+03 -0.62822137601E+03  0.73601882354E+03  0.19200000000E+03 0.  0.
   -5000001    1    1    2    0    0 -0.24471725483E+03 -0.22430130744E+03 -0.82483361967E+03  0.90962196075E+03  0.19200000000E+03 0.  0.
<mgrwt>
<rscale>  0 0.77250551E+03</rscale>
<asrwt>0</asrwt>
<pdfrwt beam="1">  1        2 0.22133540E+00 0.77250551E+03</pdfrwt>
<pdfrwt beam="2">  1       -2 0.13756129E-01 0.77250551E+03</pdfrwt>
<totfact> 0.56314385E+02</totfact>
</mgrwt>
</event>
<event>
 4    1  0.2058931E-005  0.6095978E+03  0.7818608E-02  0.9885691E-01
         -2   -1    0    0    0  501 -0.00000000000E+00  0.00000000000E+00  0.50258563817E+03  0.50258563817E+03  0.25500000000E-02 0. -1.
          2   -1    0    0  501    0  0.00000000000E+00 -0.00000000000E+00 -0.18484883843E+03  0.18484883845E+03  0.25500000000E-02 0.  1.
    5000001    1    1    2    0    0 -0.19136604028E+03 -0.10284749686E+03  0.26489362262E+03  0.39272280337E+03  0.19200000000E+03 0.  0.
   -5000001    1    1    2    0    0  0.19136604028E+03  0.10284749686E+03  0.52843177117E+02  0.29471167325E+03  0.19200000000E+03 0.  0.
<mgrwt>
<rscale>  0 0.60959781E+03</rscale>
<asrwt>0</asrwt>
<pdfrwt beam="1">  1        2 0.26406977E-01 0.60959781E+03</pdfrwt>
<pdfrwt beam="2">  1       -2 0.71797949E-01 0.60959781E+03</pdfrwt>
<totfact> 0.36538170E+02</totfact>
</mgrwt>
</event>
<event>
 4    1  0.2058931E-005  0.1559628E+04  0.7818608E-02  0.8845742E-01
         -2   -1    0    0    0  501 -0.00000000000E+00  0.00000000000E+00  0.15870749147E+03  0.15870749149E+03  0.25500000000E-02 0. -1.
          2   -1    0    0  501    0  0.00000000000E+00 -0.00000000000E+00 -0.38316370653E+04  0.38316370653E+04  0.25500000000E-02 0.  1.
    5000001    1    1    2    0    0  0.56173279092E+03 -0.49641100699E+03 -0.15900231242E+04  0.17683340046E+04  0.19200000000E+03 0.  0.
   -5000001    1    1    2    0    0 -0.56173279092E+03  0.49641100699E+03 -0.20829064496E+04  0.22220105522E+04  0.19200000000E+03 0.  0.
<mgrwt>
<rscale>  0 0.15596275E+04</rscale>
<asrwt>0</asrwt>
<pdfrwt beam="1">  1        2 0.54737667E+00 0.15596275E+04</pdfrwt>
<pdfrwt beam="2">  1       -2 0.22672501E-01 0.15596275E+04</pdfrwt>
<totfact> 0.12361850E+01</totfact>
</mgrwt>
</event>
<event>
 4    1  0.2058931E-005  0.4212173E+03  0.7818608E-02  0.1036671E+00
         -2   -1    0    0    0  501 -0.00000000000E+00  0.00000000000E+00  0.11688671812E+03  0.11688671814E+03  0.25500000000E-02 0. -1.
          2   -1    0    0  501    0  0.00000000000E+00 -0.00000000000E+00 -0.37947849987E+03  0.37947849988E+03  0.25500000000E-02 0.  1.
    5000001    1    1    2    0    0 -0.81515104426E+02 -0.18631627471E+02 -0.15764972834E+03  0.26212456321E+03  0.19200000000E+03 0.  0.
   -5000001    1    1    2    0    0  0.81515104426E+02  0.18631627471E+02 -0.10494205341E+03  0.23424065481E+03  0.19200000000E+03 0.  0.
<mgrwt>
<rscale>  0 0.42121727E+03</rscale>
<asrwt>0</asrwt>
<pdfrwt beam="1">  1        2 0.54211214E-01 0.42121727E+03</pdfrwt>
<pdfrwt beam="2">  1       -2 0.16698103E-01 0.42121727E+03</pdfrwt>
<totfact> 0.26436237E+03</totfact>
</mgrwt>
</event>
<event>
 4    1  0.2058931E-005  0.9020138E+03  0.7818608E-02  0.9423068E-01
         -2   -1    0    0    0  501 -0.00000000000E+00  0.00000000000E+00  0.16890531821E+03  0.16890531823E+03  0.25500000000E-02 0. -1.
          2   -1    0    0  501    0  0.00000000000E+00 -0.00000000000E+00 -0.12042678382E+04  0.12042678382E+04  0.25500000000E-02 0.  1.
    5000001    1    1    2    0    0  0.24880413265E+03  0.32142956216E+03 -0.46231357852E+03  0.64483975121E+03  0.19200000000E+03 0.  0.
   -5000001    1    1    2    0    0 -0.24880413265E+03 -0.32142956216E+03 -0.57304894150E+03  0.72833340525E+03  0.19200000000E+03 0.  0.
<mgrwt>
<rscale>  0 0.90201384E+03</rscale>
<asrwt>0</asrwt>
<pdfrwt beam="1">  1        2 0.17203826E+00 0.90201384E+03</pdfrwt>
<pdfrwt beam="2">  1       -2 0.24129332E-01 0.90201384E+03</pdfrwt>
<totfact> 0.32476392E+02</totfact>
</mgrwt>
</event>
<event>
 4    1  0.2058931E-005  0.5311646E+03  0.7818608E-02  0.1005950E+00
          2   -1    0    0  501    0  0.00000000000E+00  0.00000000000E+00  0.13470129217E+04  0.13470129217E+04  0.25500000000E-02 0.  1.
         -2   -1    0    0    0  501 -0.00000000000E+00 -0.00000000000E+00 -0.52363246048E+02  0.52363246110E+02  0.25500000000E-02 0. -1.
    5000001    1    1    2    0    0 -0.13265939038E+01 -0.47627244138E+02  0.18048368118E+03  0.26778437857E+03  0.19200000000E+03 0.  0.
   -5000001    1    1    2    0    0  0.13265939038E+01  0.47627244138E+02  0.11141659945E+04  0.11315917893E+04  0.19200000000E+03 0.  0.
<mgrwt>
<rscale>  0 0.53116464E+03</rscale>
<asrwt>0</asrwt>
<pdfrwt beam="1">  1        2 0.19243042E+00 0.53116464E+03</pdfrwt>
<pdfrwt beam="2">  1       -2 0.74804636E-02 0.53116464E+03</pdfrwt>
<totfact> 0.19575535E+03</totfact>
</mgrwt>
</event>
<event>
 4    1  0.2058931E-005  0.4218357E+03  0.7818608E-02  0.1036471E+00
          2   -1    0    0  501    0  0.00000000000E+00  0.00000000000E+00  0.30478266538E+03  0.30478266539E+03  0.25500000000E-02 0.  1.
         -2   -1    0    0    0  501 -0.00000000000E+00 -0.00000000000E+00 -0.14596082726E+03  0.14596082728E+03  0.25500000000E-02 0. -1.
    5000001    1    1    2    0    0  0.75367183496E+02 -0.34810462452E+02  0.50533957178E+02  0.21519679708E+03  0.19200000000E+03 0.  0.
   -5000001    1    1    2    0    0 -0.75367183496E+02  0.34810462452E+02  0.10828788094E+03  0.23554669559E+03  0.19200000000E+03 0.  0.
<mgrwt>
<rscale>  0 0.42183566E+03</rscale>
<asrwt>0</asrwt>
<pdfrwt beam="1">  1        2 0.43540381E-01 0.42183566E+03</pdfrwt>
<pdfrwt beam="2">  1       -2 0.20851547E-01 0.42183566E+03</pdfrwt>
<totfact> 0.22961777E+03</totfact>
</mgrwt>
</event>
<event>
 4    1  0.2058931E-005  0.1123871E+04  0.7818608E-02  0.9182233E-01
          2   -1    0    0  501    0  0.00000000000E+00  0.00000000000E+00  0.23471115608E+04  0.23471115608E+04  0.25500000000E-02 0.  1.
         -2   -1    0    0    0  501 -0.00000000000E+00 -0.00000000000E+00 -0.13453618449E+03  0.13453618452E+03  0.25500000000E-02 0. -1.
    5000001    1    1    2    0    0  0.15975310643E+03  0.47883178541E+03  0.14491271487E+04  0.15464910045E+04  0.19200000000E+03 0.  0.
   -5000001    1    1    2    0    0 -0.15975310643E+03 -0.47883178541E+03  0.76344822754E+03  0.93515674080E+03  0.19200000000E+03 0.  0.
<mgrwt>
<rscale>  0 0.11238709E+04</rscale>
<asrwt>0</asrwt>
<pdfrwt beam="1">  1        2 0.33530162E+00 0.11238709E+04</pdfrwt>
<pdfrwt beam="2">  1       -2 0.19219457E-01 0.11238709E+04</pdfrwt>
<totfact> 0.12101138E+02</totfact>
</mgrwt>
</event>
<event>
 4    1  0.2058931E-005  0.9919853E+03  0.7818608E-02  0.9317379E-01
          2   -1    0    0  501    0  0.00000000000E+00  0.00000000000E+00  0.19230910904E+04  0.19230910904E+04  0.25500000000E-02 0.  1.
         -2   -1    0    0    0  501 -0.00000000000E+00 -0.00000000000E+00 -0.12792358397E+03  0.12792358399E+03  0.25500000000E-02 0. -1.
    5000001    1    1    2    0    0 -0.28403785458E+03 -0.29522104735E+03  0.13178265248E+04  0.13933282883E+04  0.19200000000E+03 0.  0.
   -5000001    1    1    2    0    0  0.28403785458E+03  0.29522104735E+03  0.47734098160E+03  0.65768638602E+03  0.19200000000E+03 0.  0.
<mgrwt>
<rscale>  0 0.99198529E+03</rscale>
<asrwt>0</asrwt>
<pdfrwt beam="1">  1        2 0.27472726E+00 0.99198529E+03</pdfrwt>
<pdfrwt beam="2">  1       -2 0.18274800E-01 0.99198529E+03</pdfrwt>
<totfact> 0.21993609E+02</totfact>
</mgrwt>
</event>
<event>
 4    1  0.2058931E-005  0.5146587E+03  0.7818608E-02  0.1010022E+00
         -2   -1    0    0    0  501 -0.00000000000E+00  0.00000000000E+00  0.30631717715E+03  0.30631717717E+03  0.25500000000E-02 0. -1.
          2   -1    0    0  501    0  0.00000000000E+00 -0.00000000000E+00 -0.21617593159E+03  0.21617593161E+03  0.25500000000E-02 0.  1.
    5000001    1    1    2    0    0 -0.14012305061E+03 -0.47613071385E+01  0.14504432748E+03  0.27849415845E+03  0.19200000000E+03 0.  0.
   -5000001    1    1    2    0    0  0.14012305061E+03  0.47613071385E+01 -0.54903081915E+02  0.24399895033E+03  0.19200000000E+03 0.  0.
<mgrwt>
<rscale>  0 0.51465873E+03</rscale>
<asrwt>0</asrwt>
<pdfrwt beam="1">  1        2 0.30882276E-01 0.51465873E+03</pdfrwt>
<pdfrwt beam="2">  1       -2 0.43759596E-01 0.51465873E+03</pdfrwt>
<totfact> 0.85584693E+02</totfact>
</mgrwt>
</event>
<event>
 4    1  0.2058931E-005  0.5786568E+03  0.7818608E-02  0.9950703E-01
          2   -1    0    0  501    0  0.00000000000E+00  0.00000000000E+00  0.33335857482E+03  0.33335857483E+03  0.25500000000E-02 0.  1.
         -2   -1    0    0    0  501 -0.00000000000E+00 -0.00000000000E+00 -0.25111376311E+03  0.25111376313E+03  0.25500000000E-02 0. -1.
    5000001    1    1    2    0    0  0.18065498036E+03  0.43757168497E+02 -0.70879412935E+02  0.27647568230E+03  0.19200000000E+03 0.  0.
   -5000001    1    1    2    0    0 -0.18065498036E+03 -0.43757168497E+02  0.15312422465E+03  0.30799665566E+03  0.19200000000E+03 0.  0.
<mgrwt>
<rscale>  0 0.57865681E+03</rscale>
<asrwt>0</asrwt>
<pdfrwt beam="1">  1        2 0.47622654E-01 0.57865681E+03</pdfrwt>
<pdfrwt beam="2">  1       -2 0.35873395E-01 0.57865681E+03</pdfrwt>
<totfact> 0.77814979E+02</totfact>
</mgrwt>
</event>
<event>
 4    1  0.2058931E-005  0.4253158E+03  0.7818608E-02  0.1035350E+00
          2   -1    0    0  501    0  0.00000000000E+00  0.00000000000E+00  0.62288692345E+03  0.62288692345E+03  0.25500000000E-02 0.  1.
         -2   -1    0    0    0  501 -0.00000000000E+00 -0.00000000000E+00 -0.72602884573E+02  0.72602884617E+02  0.25500000000E-02 0. -1.
    5000001    1    1    2    0    0  0.72913155477E+02 -0.68881330726E+01  0.18564221866E+03  0.27693105273E+03  0.19200000000E+03 0.  0.
   -5000001    1    1    2    0    0 -0.72913155477E+02  0.68881330726E+01  0.36464182022E+03  0.41855875534E+03  0.19200000000E+03 0.  0.
<mgrwt>
<rscale>  0 0.42531582E+03</rscale>
<asrwt>0</asrwt>
<pdfrwt beam="1">  1        2 0.88983850E-01 0.42531582E+03</pdfrwt>
<pdfrwt beam="2">  1       -2 0.10371840E-01 0.42531582E+03</pdfrwt>
<totfact> 0.33201761E+03</totfact>
</mgrwt>
</event>
<event>
 4    1  0.2058931E-005  0.4590515E+03  0.7818608E-02  0.1025057E+00
          2   -1    0    0  501    0  0.00000000000E+00  0.00000000000E+00  0.90857564088E+03  0.90857564088E+03  0.25500000000E-02 0.  1.
         -2   -1    0    0    0  501 -0.00000000000E+00 -0.00000000000E+00 -0.57983135383E+02  0.57983135440E+02  0.25500000000E-02 0. -1.
    5000001    1    1    2    0    0 -0.11883262060E+03 -0.35952745968E+02  0.38296080874E+03  0.44602328717E+03  0.19200000000E+03 0.  0.
   -5000001    1    1    2    0    0  0.11883262060E+03  0.35952745968E+02  0.46763169675E+03  0.52053548915E+03  0.19200000000E+03 0.  0.
<mgrwt>
<rscale>  0 0.45905148E+03</rscale>
<asrwt>0</asrwt>
<pdfrwt beam="1">  1        2 0.12979652E+00 0.45905148E+03</pdfrwt>
<pdfrwt beam="2">  1       -2 0.82833051E-02 0.45905148E+03</pdfrwt>
<totfact> 0.29794270E+03</totfact>
</mgrwt>
</event>
<event>
 4    1  0.2058931E-005  0.5098946E+03  0.7818608E-02  0.1011228E+00
         -2   -1    0    0    0  501 -0.00000000000E+00  0.00000000000E+00  0.33224221412E+02  0.33224221510E+02  0.25500000000E-02 0. -1.
          2   -1    0    0  501    0  0.00000000000E+00 -0.00000000000E+00 -0.19563479036E+04  0.19563479036E+04  0.25500000000E-02 0.  1.
    5000001    1    1    2    0    0  0.66291894667E+02 -0.12081966657E+03 -0.58848103154E+03  0.63416553959E+03  0.19200000000E+03 0.  0.
   -5000001    1    1    2    0    0 -0.66291894667E+02  0.12081966657E+03 -0.13346426507E+04  0.13554065856E+04  0.19200000000E+03 0.  0.
<mgrwt>
<rscale>  0 0.50989464E+03</rscale>
<asrwt>0</asrwt>
<pdfrwt beam="1">  1        2 0.27947820E+00 0.50989464E+03</pdfrwt>
<pdfrwt beam="2">  1       -2 0.47463186E-02 0.50989464E+03</pdfrwt>
<totfact> 0.19448867E+03</totfact>
</mgrwt>
</event>
<event>
 4    1  0.2058931E-005  0.6177768E+03  0.7818608E-02  0.9869196E-01
         -2   -1    0    0    0  501 -0.00000000000E+00  0.00000000000E+00  0.34248802745E+02  0.34248802840E+02  0.25500000000E-02 0. -1.
          2   -1    0    0  501    0  0.00000000000E+00 -0.00000000000E+00 -0.27858501147E+04  0.27858501147E+04  0.25500000000E-02 0.  1.
    5000001    1    1    2    0    0  0.18350995836E+03  0.15769886450E+03 -0.13676416955E+04  0.14020886720E+04  0.19200000000E+03 0.  0.
   -5000001    1    1    2    0    0 -0.18350995836E+03 -0.15769886450E+03 -0.13839596164E+04  0.14180102456E+04  0.19200000000E+03 0.  0.
<mgrwt>
<rscale>  0 0.61777676E+03</rscale>
<asrwt>0</asrwt>
<pdfrwt beam="1">  1        2 0.39797844E+00 0.61777676E+03</pdfrwt>
<pdfrwt beam="2">  1       -2 0.48926879E-02 0.61777676E+03</pdfrwt>
<totfact> 0.69627885E+02</totfact>
</mgrwt>
</event>
<event>
 4    1  0.2058931E-005  0.5498844E+03  0.7818608E-02  0.1001521E+00
         -2   -1    0    0    0  501 -0.00000000000E+00  0.00000000000E+00  0.11567470553E+03  0.11567470556E+03  0.25500000000E-02 0. -1.
          2   -1    0    0  501    0  0.00000000000E+00 -0.00000000000E+00 -0.65349826568E+03  0.65349826569E+03  0.25500000000E-02 0.  1.
    5000001    1    1    2    0    0 -0.13077738099E+03 -0.14619208808E+03 -0.29122103588E+03  0.40018563409E+03  0.19200000000E+03 0.  0.
   -5000001    1    1    2    0    0  0.13077738099E+03  0.14619208808E+03 -0.24660252427E+03  0.36898733715E+03  0.19200000000E+03 0.  0.
<mgrwt>
<rscale>  0 0.54988442E+03</rscale>
<asrwt>0</asrwt>
<pdfrwt beam="1">  1        2 0.93356893E-01 0.54988442E+03</pdfrwt>
<pdfrwt beam="2">  1       -2 0.16524958E-01 0.54988442E+03</pdfrwt>
<totfact> 0.14543958E+03</totfact>
</mgrwt>
</event>
<event>
 4    1  0.2058931E-005  0.5529846E+03  0.7818608E-02  0.1000805E+00
         -2   -1    0    0    0  501 -0.00000000000E+00  0.00000000000E+00  0.39896932454E+03  0.39896932455E+03  0.25500000000E-02 0. -1.
          2   -1    0    0  501    0  0.00000000000E+00 -0.00000000000E+00 -0.19161373864E+03  0.19161373866E+03  0.25500000000E-02 0.  1.
    5000001    1    1    2    0    0  0.15796789784E+03 -0.78203975985E+02  0.51311087684E+01  0.26069147835E+03  0.19200000000E+03 0.  0.
   -5000001    1    1    2    0    0 -0.15796789784E+03  0.78203975985E+02  0.20222447713E+03  0.32989158486E+03  0.19200000000E+03 0.  0.
<mgrwt>
<rscale>  0 0.55298464E+03</rscale>
<asrwt>0</asrwt>
<pdfrwt beam="1">  1        2 0.27373392E-01 0.55298464E+03</pdfrwt>
<pdfrwt beam="2">  1       -2 0.56995617E-01 0.55298464E+03</pdfrwt>
<totfact> 0.57419107E+02</totfact>
</mgrwt>
</event>
<event>
 4    1  0.2058931E-005  0.7081176E+03  0.7818608E-02  0.9703450E-01
          2   -1    0    0  501    0  0.00000000000E+00  0.00000000000E+00  0.78551425458E+03  0.78551425458E+03  0.25500000000E-02 0.  1.
         -2   -1    0    0    0  501 -0.00000000000E+00 -0.00000000000E+00 -0.15958671135E+03  0.15958671137E+03  0.25500000000E-02 0. -1.
    5000001    1    1    2    0    0 -0.23815317437E+03  0.13146747312E+03  0.15228738943E+03  0.36613669569E+03  0.19200000000E+03 0.  0.
   -5000001    1    1    2    0    0  0.23815317437E+03 -0.13146747312E+03  0.47364015380E+03  0.57896427026E+03  0.19200000000E+03 0.  0.
<mgrwt>
<rscale>  0 0.70811761E+03</rscale>
<asrwt>0</asrwt>
<pdfrwt beam="1">  1        2 0.11221632E+00 0.70811761E+03</pdfrwt>
<pdfrwt beam="2">  1       -2 0.22798102E-01 0.70811761E+03</pdfrwt>
<totfact> 0.66074745E+02</totfact>
</mgrwt>
</event>
<event>
 4    1  0.2058931E-005  0.5695884E+03  0.7818608E-02  0.9970590E-01
          2   -1    0    0  501    0  0.00000000000E+00  0.00000000000E+00  0.30139908319E+03  0.30139908320E+03  0.25500000000E-02 0.  1.
         -2   -1    0    0    0  501 -0.00000000000E+00 -0.00000000000E+00 -0.26910410047E+03  0.26910410048E+03  0.25500000000E-02 0. -1.
    5000001    1    1    2    0    0 -0.88292725097E+02  0.14229650620E+03  0.14363045754E+03  0.29246813385E+03  0.19200000000E+03 0.  0.
   -5000001    1    1    2    0    0  0.88292725097E+02 -0.14229650620E+03 -0.11133547482E+03  0.27803504983E+03  0.19200000000E+03 0.  0.
<mgrwt>
<rscale>  0 0.56958837E+03</rscale>
<asrwt>0</asrwt>
<pdfrwt beam="1">  1        2 0.43057012E-01 0.56958837E+03</pdfrwt>
<pdfrwt beam="2">  1       -2 0.38443443E-01 0.56958837E+03</pdfrwt>
<totfact> 0.76180397E+02</totfact>
</mgrwt>
</event>
<event>
 4    1  0.2058931E-005  0.4569132E+03  0.7818608E-02  0.1025680E+00
          2   -1    0    0  501    0  0.00000000000E+00  0.00000000000E+00  0.50945818498E+02  0.50945818562E+02  0.25500000000E-02 0.  1.
         -2   -1    0    0    0  501 -0.00000000000E+00 -0.00000000000E+00 -0.10244692047E+04  0.10244692047E+04  0.25500000000E-02 0. -1.
    5000001    1    1    2    0    0  0.11727140165E+03 -0.38990844145E+02 -0.50430463769E+03  0.55358832644E+03  0.19200000000E+03 0.  0.
   -5000001    1    1    2    0    0 -0.11727140165E+03  0.38990844145E+02 -0.46921874854E+03  0.52182669686E+03  0.19200000000E+03 0.  0.
<mgrwt>
<rscale>  0 0.45691322E+03</rscale>
<asrwt>0</asrwt>
<pdfrwt beam="1">  1        2 0.72779747E-02 0.45691322E+03</pdfrwt>
<pdfrwt beam="2">  1       -2 0.14635273E+00 0.45691322E+03</pdfrwt>
<totfact> 0.32549292E+02</totfact>
</mgrwt>
</event>
<event>
 4    1  0.2058931E-005  0.5046648E+03  0.7818608E-02  0.1012568E+00
         -2   -1    0    0    0  501 -0.00000000000E+00  0.00000000000E+00  0.17393346373E+02  0.17393346559E+02  0.25500000000E-02 0. -1.
          2   -1    0    0  501    0  0.00000000000E+00 -0.00000000000E+00 -0.36606899804E+04  0.36606899804E+04  0.25500000000E-02 0.  1.
    5000001    1    1    2    0    0  0.16086864373E+03 -0.25138793363E+02 -0.16960526760E+04  0.17146338849E+04  0.19200000000E+03 0.  0.
   -5000001    1    1    2    0    0 -0.16086864373E+03  0.25138793363E+02 -0.19472439580E+04  0.19634494420E+04  0.19200000000E+03 0.  0.
<mgrwt>
<rscale>  0 0.50466484E+03</rscale>
<asrwt>0</asrwt>
<pdfrwt beam="1">  1        2 0.52295522E+00 0.50466484E+03</pdfrwt>
<pdfrwt beam="2">  1       -2 0.24847661E-02 0.50466484E+03</pdfrwt>
<totfact> 0.63502403E+02</totfact>
</mgrwt>
</event>
<event>
 4    1  0.2058931E-005  0.1150870E+04  0.7818608E-02  0.9156981E-01
          2   -1    0    0  501    0  0.00000000000E+00  0.00000000000E+00  0.67469568316E+03  0.67469568316E+03  0.25500000000E-02 0.  1.
         -2   -1    0    0    0  501 -0.00000000000E+00 -0.00000000000E+00 -0.49077758059E+03  0.49077758060E+03  0.25500000000E-02 0. -1.
    5000001    1    1    2    0    0  0.30871308765E+03  0.38594875436E+03 -0.13448799457E+03  0.54700204036E+03  0.19200000000E+03 0.  0.
   -5000001    1    1    2    0    0 -0.30871308765E+03 -0.38594875436E+03  0.31840609713E+03  0.61847122340E+03  0.19200000000E+03 0.  0.
<mgrwt>
<rscale>  0 0.11508701E+04</rscale>
<asrwt>0</asrwt>
<pdfrwt beam="1">  1        2 0.96385098E-01 0.11508701E+04</pdfrwt>
<pdfrwt beam="2">  1       -2 0.70111083E-01 0.11508701E+04</pdfrwt>
<totfact> 0.86454210E+01</totfact>
</mgrwt>
</event>
<event>
 4    1  0.2058931E-005  0.6945384E+03  0.7818608E-02  0.9726618E-01
         -2   -1    0    0    0  501 -0.00000000000E+00  0.00000000000E+00  0.78361245921E+02  0.78361245963E+02  0.25500000000E-02 0. -1.
          2   -1    0    0  501    0  0.00000000000E+00 -0.00000000000E+00 -0.15389736376E+04  0.15389736376E+04  0.25500000000E-02 0.  1.
    5000001    1    1    2    0    0  0.23680575386E+03  0.16455657196E+03 -0.67441568943E+03  0.75819282019E+03  0.19200000000E+03 0.  0.
   -5000001    1    1    2    0    0 -0.23680575386E+03 -0.16455657196E+03 -0.78619670228E+03  0.85914206341E+03  0.19200000000E+03 0.  0.
<mgrwt>
<rscale>  0 0.69453838E+03</rscale>
<asrwt>0</asrwt>
<pdfrwt beam="1">  1        2 0.21985336E+00 0.69453838E+03</pdfrwt>
<pdfrwt beam="2">  1       -2 0.11194465E-01 0.69453838E+03</pdfrwt>
<totfact> 0.80550659E+02</totfact>
</mgrwt>
</event>
<event>
 4    1  0.2058931E-005  0.5013772E+03  0.7818608E-02  0.1013420E+00
         -2   -1    0    0    0  501 -0.00000000000E+00  0.00000000000E+00  0.33633280417E+02  0.33633280513E+02  0.25500000000E-02 0.  1.
          2   -1    0    0  501    0  0.00000000000E+00 -0.00000000000E+00 -0.18685294299E+04  0.18685294299E+04  0.25500000000E-02 0. -1.
    5000001    1    1    2    0    0 -0.15787315863E+03  0.18590112917E+02 -0.10186278172E+04  0.10486830582E+04  0.19200000000E+03 0.  0.
   -5000001    1    1    2    0    0  0.15787315863E+03 -0.18590112917E+02 -0.81626833228E+03  0.85347965225E+03  0.19200000000E+03 0.  0.
<mgrwt>
<rscale>  0 0.50137720E+03</rscale>
<asrwt>0</asrwt>
<pdfrwt beam="1">  1        2 0.26693271E+00 0.50137720E+03</pdfrwt>
<pdfrwt beam="2">  1       -2 0.48047555E-02 0.50137720E+03</pdfrwt>
<totfact> 0.21121707E+03</totfact>
</mgrwt>
</event>
<event>
 4    1  0.2058931E-005  0.4754163E+03  0.7818608E-02  0.1020403E+00
         -2   -1    0    0    0  501 -0.00000000000E+00  0.00000000000E+00  0.22507781411E+03  0.22507781413E+03  0.25500000000E-02 0. -1.
          2   -1    0    0  501    0  0.00000000000E+00 -0.00000000000E+00 -0.25104724670E+03  0.25104724671E+03  0.25500000000E-02 0.  1.
    5000001    1    1    2    0    0  0.82640209878E+02  0.49286883969E+02 -0.11503149141E+03  0.24362849841E+03  0.19200000000E+03 0.  0.
   -5000001    1    1    2    0    0 -0.82640209878E+02 -0.49286883969E+02  0.89062058824E+02  0.23249656243E+03  0.19200000000E+03 0.  0.
<mgrwt>
<rscale>  0 0.47541630E+03</rscale>
<asrwt>0</asrwt>
<pdfrwt beam="1">  1        2 0.35863892E-01 0.47541630E+03</pdfrwt>
<pdfrwt beam="2">  1       -2 0.32153974E-01 0.47541630E+03</pdfrwt>
<totfact> 0.13066655E+03</totfact>
</mgrwt>
</event>
<event>
 4    1  0.2058931E-005  0.4770748E+03  0.7818608E-02  0.1019942E+00
         -2   -1    0    0    0  501 -0.00000000000E+00  0.00000000000E+00  0.24121719084E+02  0.24121719219E+02  0.25500000000E-02 0. -1.
          2   -1    0    0  501    0  0.00000000000E+00 -0.00000000000E+00 -0.23588737197E+04  0.23588737197E+04  0.25500000000E-02 0.  1.
    5000001    1    1    2    0    0 -0.16674583455E+02  0.13641906686E+03 -0.99814259572E+03  0.10256904235E+04  0.19200000000E+03 0.  0.
   -5000001    1    1    2    0    0  0.16674583455E+02 -0.13641906686E+03 -0.13366094049E+04  0.13573050153E+04  0.19200000000E+03 0.  0.
<mgrwt>
<rscale>  0 0.47707479E+03</rscale>
<asrwt>0</asrwt>
<pdfrwt beam="1">  1        2 0.33698181E+00 0.47707479E+03</pdfrwt>
<pdfrwt beam="2">  1       -2 0.34459614E-02 0.47707479E+03</pdfrwt>
<totfact> 0.19995617E+03</totfact>
</mgrwt>
</event>
<event>
 4    1  0.2058931E-005  0.4647578E+03  0.7818608E-02  0.1023410E+00
         -2   -1    0    0    0  501 -0.00000000000E+00  0.00000000000E+00  0.56839704318E+03  0.56839704319E+03  0.25500000000E-02 0. -1.
          2   -1    0    0  501    0  0.00000000000E+00 -0.00000000000E+00 -0.95003920799E+02  0.95003920833E+02  0.25500000000E-02 0.  1.
    5000001    1    1    2    0    0 -0.18857400166E+02 -0.84295663782E+02  0.96297030837E+02  0.23151345236E+03  0.19200000000E+03 0.  0.
   -5000001    1    1    2    0    0  0.18857400166E+02  0.84295663782E+02  0.37709609155E+03  0.43188751167E+03  0.19200000000E+03 0.  0.
<mgrwt>
<rscale>  0 0.46475778E+03</rscale>
<asrwt>0</asrwt>
<pdfrwt beam="1">  1        2 0.13571989E-01 0.46475778E+03</pdfrwt>
<pdfrwt beam="2">  1       -2 0.81199578E-01 0.46475778E+03</pdfrwt>
<totfact> 0.61004048E+02</totfact>
</mgrwt>
</event>
<event>
 4    1  0.2058931E-005  0.6664840E+03  0.7818608E-02  0.9776330E-01
         -2   -1    0    0    0  501 -0.00000000000E+00  0.00000000000E+00  0.18372103679E+03  0.18372103680E+03  0.25500000000E-02 0. -1.
          2   -1    0    0  501    0  0.00000000000E+00 -0.00000000000E+00 -0.60445033795E+03  0.60445033796E+03  0.25500000000E-02 0.  1.
    5000001    1    1    2    0    0  0.22470860190E+03  0.15375777569E+03 -0.20193313558E+03  0.38958490808E+03  0.19200000000E+03 0.  0.
   -5000001    1    1    2    0    0 -0.22470860190E+03 -0.15375777569E+03 -0.21879616558E+03  0.39858646669E+03  0.19200000000E+03 0.  0.
<mgrwt>
<rscale>  0 0.66648404E+03</rscale>
<asrwt>0</asrwt>
<pdfrwt beam="1">  1        2 0.86350047E-01 0.66648404E+03</pdfrwt>
<pdfrwt beam="2">  1       -2 0.26245863E-01 0.66648404E+03</pdfrwt>
<totfact> 0.70826370E+02</totfact>
</mgrwt>
</event>
<event>
 4    1  0.2058931E-005  0.5039975E+03  0.7818608E-02  0.1012741E+00
          2   -1    0    0  501    0  0.00000000000E+00  0.00000000000E+00  0.89778521408E+03  0.89778521409E+03  0.25500000000E-02 0.  1.
         -2   -1    0    0    0  501 -0.00000000000E+00 -0.00000000000E+00 -0.70733377211E+02  0.70733377257E+02  0.25500000000E-02 0. -1.
    5000001    1    1    2    0    0  0.95854777302E+02  0.11370276776E+03  0.28428824905E+03  0.37389873799E+03  0.19200000000E+03 0.  0.
   -5000001    1    1    2    0    0 -0.95854777302E+02 -0.11370276776E+03  0.54276358783E+03  0.59461985335E+03  0.19200000000E+03 0.  0.
<mgrwt>
<rscale>  0 0.50399754E+03</rscale>
<asrwt>0</asrwt>
<pdfrwt beam="1">  1        2 0.12825502E+00 0.50399754E+03</pdfrwt>
<pdfrwt beam="2">  1       -2 0.10104769E-01 0.50399754E+03</pdfrwt>
<totfact> 0.22024547E+03</totfact>
</mgrwt>
</event>
<event>
 4    1  0.2058931E-005  0.4969645E+03  0.7818608E-02  0.1014574E+00
          2   -1    0    0  501    0  0.00000000000E+00  0.00000000000E+00  0.63487873756E+02  0.63487873807E+02  0.25500000000E-02 0.  1.
         -2   -1    0    0    0  501 -0.00000000000E+00 -0.00000000000E+00 -0.97252333893E+03  0.97252333893E+03  0.25500000000E-02 0. -1.
    5000001    1    1    2    0    0  0.88946659490E+02  0.58895795467E+02 -0.21230703171E+03  0.30548076645E+03  0.19200000000E+03 0.  0.
   -5000001    1    1    2    0    0 -0.88946659490E+02 -0.58895795467E+02 -0.69672843346E+03  0.73053044629E+03  0.19200000000E+03 0.  0.
<mgrwt>
<rscale>  0 0.49696454E+03</rscale>
<asrwt>0</asrwt>
<pdfrwt beam="1">  1        2 0.90696968E-02 0.49696454E+03</pdfrwt>
<pdfrwt beam="2">  1       -2 0.13893190E+00 0.49696454E+03</pdfrwt>
<totfact> 0.28008495E+02</totfact>
</mgrwt>
</event>
<event>
 4    1  0.2058931E-005  0.4607331E+03  0.7818608E-02  0.1024569E+00
         -2   -1    0    0    0  501 -0.00000000000E+00  0.00000000000E+00  0.65842213252E+03  0.65842213253E+03  0.25500000000E-02 0. -1.
          2   -1    0    0  501    0  0.00000000000E+00 -0.00000000000E+00 -0.80599867260E+02  0.80599867300E+02  0.25500000000E-02 0.  1.
    5000001    1    1    2    0    0 -0.87991089726E+02  0.83168260585E+02  0.22585595819E+03  0.32020978325E+03  0.19200000000E+03 0.  0.
   -5000001    1    1    2    0    0  0.87991089726E+02 -0.83168260585E+02  0.35196630707E+03  0.41881221657E+03  0.19200000000E+03 0.  0.
<mgrwt>
<rscale>  0 0.46073305E+03</rscale>
<asrwt>0</asrwt>
<pdfrwt beam="1">  1        2 0.11514267E-01 0.46073305E+03</pdfrwt>
<pdfrwt beam="2">  1       -2 0.94060303E-01 0.46073305E+03</pdfrwt>
<totfact> 0.53475362E+02</totfact>
</mgrwt>
</event>
<event>
 4    1  0.2058931E-005  0.6663389E+03  0.7818608E-02  0.9776594E-01
          2   -1    0    0  501    0  0.00000000000E+00  0.00000000000E+00  0.17533203120E+04  0.17533203120E+04  0.25500000000E-02 0.  1.
         -2   -1    0    0    0  501 -0.00000000000E+00 -0.00000000000E+00 -0.63309535978E+02  0.63309536030E+02  0.25500000000E-02 0. -1.
    5000001    1    1    2    0    0 -0.15261446615E+03  0.22242512970E+03  0.74395682647E+03  0.81430944564E+03  0.19200000000E+03 0.  0.
   -5000001    1    1    2    0    0  0.15261446615E+03 -0.22242512970E+03  0.94605394955E+03  0.10023204024E+04  0.19200000000E+03 0.  0.
<mgrwt>
<rscale>  0 0.66633894E+03</rscale>
<asrwt>0</asrwt>
<pdfrwt beam="1">  1        2 0.25047435E+00 0.66633894E+03</pdfrwt>
<pdfrwt beam="2">  1       -2 0.90442188E-02 0.66633894E+03</pdfrwt>
<totfact> 0.88539995E+02</totfact>
</mgrwt>
</event>
<event>
 4    1  0.2058931E-005  0.5202852E+03  0.7818608E-02  0.1008616E+00
          2   -1    0    0  501    0  0.00000000000E+00  0.00000000000E+00  0.39505479431E+03  0.39505479432E+03  0.25500000000E-02 0.  1.
         -2   -1    0    0    0  501 -0.00000000000E+00 -0.00000000000E+00 -0.17130322871E+03  0.17130322873E+03  0.25500000000E-02 0. -1.
    5000001    1    1    2    0    0  0.18901030642E+02 -0.15673925666E+03  0.19538787290E+03  0.31617220690E+03  0.19200000000E+03 0.  0.
   -5000001    1    1    2    0    0 -0.18901030642E+02  0.15673925666E+03  0.28363692701E+02  0.25018581615E+03  0.19200000000E+03 0.  0.
<mgrwt>
<rscale>  0 0.52028516E+03</rscale>
<asrwt>0</asrwt>
<pdfrwt beam="1">  1        2 0.56436398E-01 0.52028516E+03</pdfrwt>
<pdfrwt beam="2">  1       -2 0.24471890E-01 0.52028516E+03</pdfrwt>
<totfact> 0.13048962E+03</totfact>
</mgrwt>
</event>
<event>
 4    1  0.2058931E-005  0.1193295E+04  0.7818608E-02  0.9118746E-01
         -2   -1    0    0    0  501 -0.00000000000E+00  0.00000000000E+00  0.60801659173E+03  0.60801659174E+03  0.25500000000E-02 0. -1.
          2   -1    0    0  501    0  0.00000000000E+00 -0.00000000000E+00 -0.58549104845E+03  0.58549104846E+03  0.25500000000E-02 0.  1.
    5000001    1    1    2    0    0  0.43235185384E+03  0.14370360237E+03  0.34530643364E+03  0.60305835868E+03  0.19200000000E+03 0.  0.
   -5000001    1    1    2    0    0 -0.43235185384E+03 -0.14370360237E+03 -0.32278089036E+03  0.59044928151E+03  0.19200000000E+03 0.  0.
<mgrwt>
<rscale>  0 0.11932951E+04</rscale>
<asrwt>0</asrwt>
<pdfrwt beam="1">  1        2 0.83641579E-01 0.11932951E+04</pdfrwt>
<pdfrwt beam="2">  1       -2 0.86859513E-01 0.11932951E+04</pdfrwt>
<totfact> 0.63323687E+01</totfact>
</mgrwt>
</event>
<event>
 4    1  0.2058931E-005  0.4947148E+03  0.7818608E-02  0.1015168E+00
          2   -1    0    0  501    0  0.00000000000E+00  0.00000000000E+00  0.21317818743E+03  0.21317818745E+03  0.25500000000E-02 0.  1.
         -2   -1    0    0    0  501 -0.00000000000E+00 -0.00000000000E+00 -0.28701665230E+03  0.28701665231E+03  0.25500000000E-02 0. -1.
    5000001    1    1    2    0    0 -0.83955239579E+02  0.13132670171E+03 -0.31713916003E+02  0.24932901416E+03  0.19200000000E+03 0.  0.
   -5000001    1    1    2    0    0  0.83955239579E+02 -0.13132670171E+03 -0.42124548869E+02  0.25086582560E+03  0.19200000000E+03 0.  0.
<mgrwt>
<rscale>  0 0.49471483E+03</rscale>
<asrwt>0</asrwt>
<pdfrwt beam="1">  1        2 0.30454027E-01 0.49471483E+03</pdfrwt>
<pdfrwt beam="2">  1       -2 0.41002378E-01 0.49471483E+03</pdfrwt>
<totfact> 0.98730413E+02</totfact>
</mgrwt>
</event>
<event>
 4    1  0.2058931E-005  0.7692656E+03  0.7818608E-02  0.9605601E-01
         -2   -1    0    0    0  501 -0.00000000000E+00  0.00000000000E+00  0.59002033370E+02  0.59002033425E+02  0.25500000000E-02 0. -1.
          2   -1    0    0  501    0  0.00000000000E+00 -0.00000000000E+00 -0.25074119650E+04  0.25074119650E+04  0.25500000000E-02 0.  1.
    5000001    1    1    2    0    0 -0.12427741505E+03  0.24640199130E+03 -0.60077893157E+03  0.68844617932E+03  0.19200000000E+03 0.  0.
   -5000001    1    1    2    0    0  0.12427741505E+03 -0.24640199130E+03 -0.18476310000E+04  0.18779678191E+04  0.19200000000E+03 0.  0.
<mgrwt>
<rscale>  0 0.76926564E+03</rscale>
<asrwt>0</asrwt>
<pdfrwt beam="1">  1        2 0.35820164E+00 0.76926564E+03</pdfrwt>
<pdfrwt beam="2">  1       -2 0.84288635E-02 0.76926564E+03</pdfrwt>
<totfact> 0.40765141E+02</totfact>
</mgrwt>
</event>
<event>
 4    1  0.2058931E-005  0.7796482E+03  0.7818608E-02  0.9589952E-01
         -2   -1    0    0    0  501 -0.00000000000E+00  0.00000000000E+00  0.10612153113E+03  0.10612153116E+03  0.25500000000E-02 0. -1.
          2   -1    0    0  501    0  0.00000000000E+00 -0.00000000000E+00 -0.14319698229E+04  0.14319698229E+04  0.25500000000E-02 0.  1.
    5000001    1    1    2    0    0 -0.18534384954E+02  0.31318804400E+03 -0.91762619300E+03  0.98860108457E+03  0.19200000000E+03 0.  0.
   -5000001    1    1    2    0    0  0.18534384954E+02 -0.31318804400E+03 -0.40822209874E+03  0.54949026946E+03  0.19200000000E+03 0.  0.
<mgrwt>
<rscale>  0 0.77964820E+03</rscale>
<asrwt>0</asrwt>
<pdfrwt beam="1">  1        2 0.20456711E+00 0.77964820E+03</pdfrwt>
<pdfrwt beam="2">  1       -2 0.15160220E-01 0.77964820E+03</pdfrwt>
<totfact> 0.55103925E+02</totfact>
</mgrwt>
</event>
<event>
 4    1  0.2058931E-005  0.4410067E+03  0.7818608E-02  0.1030438E+00
         -2   -1    0    0    0  501 -0.00000000000E+00  0.00000000000E+00  0.15711157779E+02  0.15711157986E+02  0.25500000000E-02 0. -1.
          2   -1    0    0  501    0  0.00000000000E+00 -0.00000000000E+00 -0.30947259091E+04  0.30947259091E+04  0.25500000000E-02 0.  1.
    5000001    1    1    2    0    0 -0.59963233352E+02 -0.89490559561E+02 -0.16269132046E+04  0.16417413697E+04  0.19200000000E+03 0.  0.
   -5000001    1    1    2    0    0  0.59963233352E+02  0.89490559561E+02 -0.14521015467E+04  0.14686956974E+04  0.19200000000E+03 0.  0.
<mgrwt>
<rscale>  0 0.44100670E+03</rscale>
<asrwt>0</asrwt>
<pdfrwt beam="1">  1        2 0.44210331E+00 0.44100670E+03</pdfrwt>
<pdfrwt beam="2">  1       -2 0.22444531E-02 0.44100670E+03</pdfrwt>
<totfact> 0.15798956E+03</totfact>
</mgrwt>
</event>
<event>
 4    1  0.2058931E-005  0.6895811E+03  0.7818608E-02  0.9735218E-01
          2   -1    0    0  501    0  0.00000000000E+00  0.00000000000E+00  0.30121151367E+03  0.30121151368E+03  0.25500000000E-02 0.  1.
         -2   -1    0    0    0  501 -0.00000000000E+00 -0.00000000000E+00 -0.39467451299E+03  0.39467451300E+03  0.25500000000E-02 0. -1.
    5000001    1    1    2    0    0  0.27029047726E+03  0.29392940986E+01  0.48742864913E+02  0.33512005077E+03  0.19200000000E+03 0.  0.
   -5000001    1    1    2    0    0 -0.27029047726E+03 -0.29392940986E+01 -0.14220586424E+03  0.36076597591E+03  0.19200000000E+03 0.  0.
<mgrwt>
<rscale>  0 0.68958105E+03</rscale>
<asrwt>0</asrwt>
<pdfrwt beam="1">  1        2 0.43030217E-01 0.68958105E+03</pdfrwt>
<pdfrwt beam="2">  1       -2 0.56382073E-01 0.68958105E+03</pdfrwt>
<totfact> 0.35354062E+02</totfact>
</mgrwt>
</event>
<event>
 4    1  0.2058931E-005  0.8691762E+03  0.7818608E-02  0.9464955E-01
         -2   -1    0    0    0  501 -0.00000000000E+00  0.00000000000E+00  0.18986291815E+03  0.18986291816E+03  0.25500000000E-02 0. -1.
          2   -1    0    0  501    0  0.00000000000E+00 -0.00000000000E+00 -0.99475362301E+03  0.99475362301E+03  0.25500000000E-02 0.  1.
    5000001    1    1    2    0    0 -0.27147218822E+03  0.27419235963E+03 -0.32626530777E+03  0.54054754658E+03  0.19200000000E+03 0.  0.
   -5000001    1    1    2    0    0  0.27147218822E+03 -0.27419235963E+03 -0.47862539709E+03  0.64406899460E+03  0.19200000000E+03 0.  0.
<mgrwt>
<rscale>  0 0.86917622E+03</rscale>
<asrwt>0</asrwt>
<pdfrwt beam="1">  1        2 0.14210766E+00 0.86917622E+03</pdfrwt>
<pdfrwt beam="2">  1       -2 0.27123274E-01 0.86917622E+03</pdfrwt>
<totfact> 0.34981180E+02</totfact>
</mgrwt>
</event>
<event>
 4    1  0.2058931E-005  0.1141128E+04  0.7818608E-02  0.9166007E-01
          2   -1    0    0  501    0  0.00000000000E+00  0.00000000000E+00  0.78995453012E+03  0.78995453013E+03  0.25500000000E-02 0. -1.
         -2   -1    0    0    0  501 -0.00000000000E+00 -0.00000000000E+00 -0.41210393841E+03  0.41210393842E+03  0.25500000000E-02 0.  1.
    5000001    1    1    2    0    0  0.28923569578E+03 -0.45278012941E+03  0.18523995835E+03  0.59987079898E+03  0.19200000000E+03 0.  0.
   -5000001    1    1    2    0    0 -0.28923569578E+03  0.45278012941E+03  0.19261063336E+03  0.60218766957E+03  0.19200000000E+03 0.  0.
<mgrwt>
<rscale>  0 0.11411282E+04</rscale>
<asrwt>0</asrwt>
<pdfrwt beam="1">  1        2 0.11285065E+00 0.11411282E+04</pdfrwt>
<pdfrwt beam="2">  1       -2 0.58871991E-01 0.11411282E+04</pdfrwt>
<totfact> 0.10322318E+02</totfact>
</mgrwt>
</event>
<event>
 4    1  0.2058931E-005  0.4442047E+03  0.7818608E-02  0.1029464E+00
          2   -1    0    0  501    0  0.00000000000E+00  0.00000000000E+00  0.17608818606E+04  0.17608818606E+04  0.25500000000E-02 0.  1.
         -2   -1    0    0    0  501 -0.00000000000E+00 -0.00000000000E+00 -0.28014059499E+02  0.28014059615E+02  0.25500000000E-02 0. -1.
    5000001    1    1    2    0    0  0.96918146555E+02  0.23265707132E+01  0.10894583148E+04  0.11104872623E+04  0.19200000000E+03 0.  0.
   -5000001    1    1    2    0    0 -0.96918146555E+02 -0.23265707132E+01  0.64340948632E+03  0.67840865793E+03  0.19200000000E+03 0.  0.
<mgrwt>
<rscale>  0 0.44420468E+03</rscale>
<asrwt>0</asrwt>
<pdfrwt beam="1">  1        2 0.25155451E+00 0.44420468E+03</pdfrwt>
<pdfrwt beam="2">  1       -2 0.40020091E-02 0.44420468E+03</pdfrwt>
<totfact> 0.31697414E+03</totfact>
</mgrwt>
</event>
<event>
 4    1  0.2058931E-005  0.5651485E+03  0.7818608E-02  0.9980472E-01
          2   -1    0    0  501    0  0.00000000000E+00  0.00000000000E+00  0.14014144738E+04  0.14014144738E+04  0.25500000000E-02 0.  1.
         -2   -1    0    0    0  501 -0.00000000000E+00 -0.00000000000E+00 -0.56976873265E+02  0.56976873322E+02  0.25500000000E-02 0. -1.
    5000001    1    1    2    0    0  0.33214888374E+02  0.19289701551E+03  0.49583843849E+03  0.56659707419E+03  0.19200000000E+03 0.  0.
   -5000001    1    1    2    0    0 -0.33214888374E+02 -0.19289701551E+03  0.84859916201E+03  0.89179427290E+03  0.19200000000E+03 0.  0.
<mgrwt>
<rscale>  0 0.56514853E+03</rscale>
<asrwt>0</asrwt>
<pdfrwt beam="1">  1        2 0.20020204E+00 0.56514853E+03</pdfrwt>
<pdfrwt beam="2">  1       -2 0.81395545E-02 0.56514853E+03</pdfrwt>
<totfact> 0.16001556E+03</totfact>
</mgrwt>
</event>
<event>
 4    1  0.2058931E-005  0.4514598E+03  0.7818608E-02  0.1027288E+00
         -2   -1    0    0    0  501 -0.00000000000E+00  0.00000000000E+00  0.31597740064E+02  0.31597740167E+02  0.25500000000E-02 0. -1.
          2   -1    0    0  501    0  0.00000000000E+00 -0.00000000000E+00 -0.16125834168E+04  0.16125834168E+04  0.25500000000E-02 0.  1.
    5000001    1    1    2    0    0 -0.10369629365E+03 -0.37008289684E+02 -0.62895168530E+03  0.66675839498E+03  0.19200000000E+03 0.  0.
   -5000001    1    1    2    0    0  0.10369629365E+03  0.37008289684E+02 -0.95203399146E+03  0.97742276202E+03  0.19200000000E+03 0.  0.
<mgrwt>
<rscale>  0 0.45145982E+03</rscale>
<asrwt>0</asrwt>
<pdfrwt beam="1">  1        2 0.23036901E+00 0.45145982E+03</pdfrwt>
<pdfrwt beam="2">  1       -2 0.45139639E-02 0.45145982E+03</pdfrwt>
<totfact> 0.31314295E+03</totfact>
</mgrwt>
</event>
<event>
 4    1  0.2058931E-005  0.6630680E+03  0.7818608E-02  0.9782562E-01
         -2   -1    0    0    0  501 -0.00000000000E+00  0.00000000000E+00  0.80761300446E+02  0.80761300486E+02  0.25500000000E-02 0. -1.
          2   -1    0    0  501    0  0.00000000000E+00 -0.00000000000E+00 -0.13609834049E+04  0.13609834049E+04  0.25500000000E-02 0.  1.
    5000001    1    1    2    0    0 -0.17954108973E+03 -0.18929277641E+03 -0.48660669892E+03  0.58456551175E+03  0.19200000000E+03 0.  0.
   -5000001    1    1    2    0    0  0.17954108973E+03  0.18929277641E+03 -0.79361540558E+03  0.85717919368E+03  0.19200000000E+03 0.  0.
<mgrwt>
<rscale>  0 0.66306799E+03</rscale>
<asrwt>0</asrwt>
<pdfrwt beam="1">  1        2 0.19442619E+00 0.66306799E+03</pdfrwt>
<pdfrwt beam="2">  1       -2 0.11537329E-01 0.66306799E+03</pdfrwt>
<totfact> 0.95321945E+02</totfact>
</mgrwt>
</event>
<event>
 4    1  0.2058931E-005  0.9616933E+03  0.7818608E-02  0.9351586E-01
         -2   -1    0    0    0  501 -0.00000000000E+00  0.00000000000E+00  0.24839188494E+03  0.24839188495E+03  0.25500000000E-02 0. -1.
          2   -1    0    0  501    0  0.00000000000E+00 -0.00000000000E+00 -0.93084169743E+03  0.93084169743E+03  0.25500000000E-02 0.  1.
    5000001    1    1    2    0    0 -0.34105862907E+03 -0.49025895998E+02 -0.67843138602E+03  0.78476599855E+03  0.19200000000E+03 0.  0.
   -5000001    1    1    2    0    0  0.34105862907E+03  0.49025895998E+02 -0.40184264709E+01  0.39446758383E+03  0.19200000000E+03 0.  0.
<mgrwt>
<rscale>  0 0.96169335E+03</rscale>
<asrwt>0</asrwt>
<pdfrwt beam="1">  1        2 0.13297738E+00 0.96169335E+03</pdfrwt>
<pdfrwt beam="2">  1       -2 0.35484555E-01 0.96169335E+03</pdfrwt>
<totfact> 0.23122267E+02</totfact>
</mgrwt>
</event>
<event>
 4    1  0.2058931E-005  0.5987956E+03  0.7818608E-02  0.9907908E-01
          2   -1    0    0  501    0  0.00000000000E+00  0.00000000000E+00  0.96947178245E+03  0.96947178245E+03  0.25500000000E-02 0.  1.
         -2   -1    0    0    0  501 -0.00000000000E+00 -0.00000000000E+00 -0.92461741861E+02  0.92461741896E+02  0.25500000000E-02 0. -1.
    5000001    1    1    2    0    0  0.30832987384E+02  0.17721603496E+03  0.69192122996E+03  0.74025345972E+03  0.19200000000E+03 0.  0.
   -5000001    1    1    2    0    0 -0.30832987384E+02 -0.17721603496E+03  0.18508881063E+03  0.32168006463E+03  0.19200000000E+03 0.  0.
<mgrwt>
<rscale>  0 0.59879562E+03</rscale>
<asrwt>0</asrwt>
<pdfrwt beam="1">  1        2 0.13849597E+00 0.59879562E+03</pdfrwt>
<pdfrwt beam="2">  1       -2 0.13208820E-01 0.59879562E+03</pdfrwt>
<totfact> 0.12786031E+03</totfact>
</mgrwt>
</event>
<event>
 4    1  0.2058931E-005  0.8698129E+03  0.7818608E-02  0.9464124E-01
         -2   -1    0    0    0  501 -0.00000000000E+00  0.00000000000E+00  0.10094084595E+03  0.10094084598E+03  0.25500000000E-02 0. -1.
          2   -1    0    0  501    0  0.00000000000E+00 -0.00000000000E+00 -0.18738067225E+04  0.18738067225E+04  0.25500000000E-02 0.  1.
    5000001    1    1    2    0    0  0.64393536018E+02 -0.33471437531E+03 -0.45507709175E+03  0.60011615539E+03  0.19200000000E+03 0.  0.
   -5000001    1    1    2    0    0 -0.64393536018E+02  0.33471437531E+03 -0.13177887848E+04  0.13746314131E+04  0.19200000000E+03 0.  0.
<mgrwt>
<rscale>  0 0.86981294E+03</rscale>
<asrwt>0</asrwt>
<pdfrwt beam="1">  1        2 0.26768665E+00 0.86981294E+03</pdfrwt>
<pdfrwt beam="2">  1       -2 0.14420122E-01 0.86981294E+03</pdfrwt>
<totfact> 0.35229120E+02</totfact>
</mgrwt>
</event>
<event>
 4    1  0.2058931E-005  0.7505250E+03  0.7818608E-02  0.9634527E-01
          2   -1    0    0  501    0  0.00000000000E+00  0.00000000000E+00  0.30953544262E+04  0.30953544263E+04  0.25500000000E-02 0.  1.
         -2   -1    0    0    0  501 -0.00000000000E+00 -0.00000000000E+00 -0.45494610419E+02  0.45494610491E+02  0.25500000000E-02 0. -1.
    5000001    1    1    2    0    0 -0.30357668710E+03  0.13172375342E+02  0.19761517353E+04  0.20085746183E+04  0.19200000000E+03 0.  0.
   -5000001    1    1    2    0    0  0.30357668710E+03 -0.13172375342E+02  0.10737080805E+04  0.11322744184E+04  0.19200000000E+03 0.  0.
<mgrwt>
<rscale>  0 0.75052500E+03</rscale>
<asrwt>0</asrwt>
<pdfrwt beam="1">  1        2 0.44219377E+00 0.75052500E+03</pdfrwt>
<pdfrwt beam="2">  1       -2 0.64992260E-02 0.75052500E+03</pdfrwt>
<totfact> 0.29971793E+02</totfact>
</mgrwt>
</event>
<event>
 4    1  0.2058931E-005  0.1389381E+04  0.7818608E-02  0.8961541E-01
          2   -1    0    0  501    0  0.00000000000E+00  0.00000000000E+00  0.21278243668E+04  0.21278243668E+04  0.25500000000E-02 0.  1.
         -2   -1    0    0    0  501 -0.00000000000E+00 -0.00000000000E+00 -0.22680205445E+03  0.22680205447E+03  0.25500000000E-02 0. -1.
    5000001    1    1    2    0    0 -0.59916791748E+03 -0.18457333569E+03  0.13394192247E+04  0.14913005630E+04  0.19200000000E+03 0.  0.
   -5000001    1    1    2    0    0  0.59916791748E+03  0.18457333569E+03  0.56160308767E+03  0.86332585833E+03  0.19200000000E+03 0.  0.
<mgrwt>
<rscale>  0 0.13893811E+04</rscale>
<asrwt>0</asrwt>
<pdfrwt beam="1">  1        2 0.30397491E+00 0.13893811E+04</pdfrwt>
<pdfrwt beam="2">  1       -2 0.32400294E-01 0.13893811E+04</pdfrwt>
<totfact> 0.59651013E+01</totfact>
</mgrwt>
</event>
<event>
 4    1  0.2058931E-005  0.9393271E+03  0.7818608E-02  0.9377713E-01
         -2   -1    0    0    0  501 -0.00000000000E+00  0.00000000000E+00  0.38419161351E+03  0.38419161352E+03  0.25500000000E-02 0.  1.
          2   -1    0    0  501    0  0.00000000000E+00 -0.00000000000E+00 -0.57415058447E+03  0.57415058448E+03  0.25500000000E-02 0. -1.
    5000001    1    1    2    0    0 -0.35852608509E+03  0.10038810927E+02  0.14445862511E+03  0.43171058104E+03  0.19200000000E+03 0.  0.
   -5000001    1    1    2    0    0  0.35852608509E+03 -0.10038810927E+02 -0.33441759607E+03  0.52663161696E+03  0.19200000000E+03 0.  0.
<mgrwt>
<rscale>  0 0.93932708E+03</rscale>
<asrwt>0</asrwt>
<pdfrwt beam="1">  1        2 0.82021512E-01 0.93932708E+03</pdfrwt>
<pdfrwt beam="2">  1       -2 0.54884516E-01 0.93932708E+03</pdfrwt>
<totfact> 0.17877557E+02</totfact>
</mgrwt>
</event>
<event>
 4    1  0.2058931E-005  0.5257906E+03  0.7818608E-02  0.1007258E+00
          2   -1    0    0  501    0  0.00000000000E+00  0.00000000000E+00  0.43008403128E+02  0.43008403204E+02  0.25500000000E-02 0.  1.
         -2   -1    0    0    0  501 -0.00000000000E+00 -0.00000000000E+00 -0.16069866243E+04  0.16069866243E+04  0.25500000000E-02 0. -1.
    5000001    1    1    2    0    0 -0.16782343195E+03  0.56802780152E+02 -0.69003257320E+03  0.73783481364E+03  0.19200000000E+03 0.  0.
   -5000001    1    1    2    0    0  0.16782343195E+03 -0.56802780152E+02 -0.87394564796E+03  0.91216021385E+03  0.19200000000E+03 0.  0.
<mgrwt>
<rscale>  0 0.52579056E+03</rscale>
<asrwt>0</asrwt>
<pdfrwt beam="1">  1        2 0.61440586E-02 0.52579056E+03</pdfrwt>
<pdfrwt beam="2">  1       -2 0.22956948E+00 0.52579056E+03</pdfrwt>
<totfact> 0.11190162E+02</totfact>
</mgrwt>
</event>
<event>
 4    1  0.2058931E-005  0.6207890E+03  0.7818608E-02  0.9863190E-01
         -2   -1    0    0    0  501 -0.00000000000E+00  0.00000000000E+00  0.35244616839E+03  0.35244616840E+03  0.25500000000E-02 0.  1.
          2   -1    0    0  501    0  0.00000000000E+00 -0.00000000000E+00 -0.27336020299E+03  0.27336020300E+03  0.25500000000E-02 0. -1.
    5000001    1    1    2    0    0  0.15565741344E+03  0.13204515364E+03 -0.95010892239E+02  0.29589900744E+03  0.19200000000E+03 0.  0.
   -5000001    1    1    2    0    0 -0.15565741344E+03 -0.13204515364E+03  0.17409685764E+03  0.32990736397E+03  0.19200000000E+03 0.  0.
<mgrwt>
<rscale>  0 0.62078903E+03</rscale>
<asrwt>0</asrwt>
<pdfrwt beam="1">  1        2 0.39051457E-01 0.62078903E+03</pdfrwt>
<pdfrwt beam="2">  1       -2 0.50349453E-01 0.62078903E+03</pdfrwt>
<totfact> 0.49748955E+02</totfact>
</mgrwt>
</event>
<event>
 4    1  0.2058931E-005  0.5908792E+03  0.7818608E-02  0.9924512E-01
         -2   -1    0    0    0  501 -0.00000000000E+00  0.00000000000E+00  0.36251127855E+02  0.36251127945E+02  0.25500000000E-02 0. -1.
          2   -1    0    0  501    0  0.00000000000E+00 -0.00000000000E+00 -0.24077750313E+04  0.24077750313E+04  0.25500000000E-02 0.  1.
    5000001    1    1    2    0    0 -0.10051133975E+03 -0.14383876540E+03 -0.60626648868E+03  0.65970840161E+03  0.19200000000E+03 0.  0.
   -5000001    1    1    2    0    0  0.10051133975E+03  0.14383876540E+03 -0.17652574148E+04  0.17843177576E+04  0.19200000000E+03 0.  0.
<mgrwt>
<rscale>  0 0.59087921E+03</rscale>
<asrwt>0</asrwt>
<pdfrwt beam="1">  1        2 0.34396776E+00 0.59087921E+03</pdfrwt>
<pdfrwt beam="2">  1       -2 0.51787341E-02 0.59087921E+03</pdfrwt>
<totfact> 0.10030669E+03</totfact>
</mgrwt>
</event>
<event>
 4    1  0.2058931E-005  0.4380954E+03  0.7818608E-02  0.1031333E+00
         -2   -1    0    0    0  501 -0.00000000000E+00  0.00000000000E+00  0.13443507539E+02  0.13443507781E+02  0.25500000000E-02 0.  1.
          2   -1    0    0  501    0  0.00000000000E+00 -0.00000000000E+00 -0.35691507276E+04  0.35691507276E+04  0.25500000000E-02 0. -1.
    5000001    1    1    2    0    0 -0.19270390081E+02 -0.76424755793E+02 -0.12050781292E+04  0.12228202602E+04  0.19200000000E+03 0.  0.
   -5000001    1    1    2    0    0  0.19270390081E+02  0.76424755793E+02 -0.23506290909E+04  0.23597739752E+04  0.19200000000E+03 0.  0.
<mgrwt>
<rscale>  0 0.43809545E+03</rscale>
<asrwt>0</asrwt>
<pdfrwt beam="1">  1        2 0.50987807E+00 0.43809545E+03</pdfrwt>
<pdfrwt beam="2">  1       -2 0.19205034E-02 0.43809545E+03</pdfrwt>
<totfact> 0.10698643E+03</totfact>
</mgrwt>
</event>
<event>
 4    1  0.2058931E-005  0.5206272E+03  0.7818608E-02  0.1008531E+00
          2   -1    0    0  501    0  0.00000000000E+00  0.00000000000E+00  0.45205774956E+03  0.45205774957E+03  0.25500000000E-02 0.  1.
         -2   -1    0    0    0  501 -0.00000000000E+00 -0.00000000000E+00 -0.14989937368E+03  0.14989937371E+03  0.25500000000E-02 0. -1.
    5000001    1    1    2    0    0  0.23331881170E+02  0.17414317301E+03  0.15730045879E+03  0.30410139053E+03  0.19200000000E+03 0.  0.
   -5000001    1    1    2    0    0 -0.23331881170E+02 -0.17414317301E+03  0.14485791709E+03  0.29785573274E+03  0.19200000000E+03 0.  0.
<mgrwt>
<rscale>  0 0.52062721E+03</rscale>
<asrwt>0</asrwt>
<pdfrwt beam="1">  1        2 0.64579679E-01 0.52062721E+03</pdfrwt>
<pdfrwt beam="2">  1       -2 0.21414196E-01 0.52062721E+03</pdfrwt>
<totfact> 0.14223872E+03</totfact>
</mgrwt>
</event>
<event>
 4    1  0.2058931E-005  0.6404821E+03  0.7818608E-02  0.9824805E-01
          2   -1    0    0  501    0  0.00000000000E+00  0.00000000000E+00  0.10525442370E+03  0.10525442373E+03  0.25500000000E-02 0.  1.
         -2   -1    0    0    0  501 -0.00000000000E+00 -0.00000000000E+00 -0.97434688598E+03  0.97434688599E+03  0.25500000000E-02 0. -1.
    5000001    1    1    2    0    0 -0.20508754707E+03 -0.66523234447E+02 -0.66813564140E+03  0.72784303115E+03  0.19200000000E+03 0.  0.
   -5000001    1    1    2    0    0  0.20508754707E+03  0.66523234447E+02 -0.20095682087E+03  0.35175827857E+03  0.19200000000E+03 0.  0.
<mgrwt>
<rscale>  0 0.64048207E+03</rscale>
<asrwt>0</asrwt>
<pdfrwt beam="1">  1        2 0.15036347E-01 0.64048207E+03</pdfrwt>
<pdfrwt beam="2">  1       -2 0.13919241E+00 0.64048207E+03</pdfrwt>
<totfact> 0.14783341E+02</totfact>
</mgrwt>
</event>
<event>
 4    1  0.2058931E-005  0.4495174E+03  0.7818608E-02  0.1027866E+00
          2   -1    0    0  501    0  0.00000000000E+00  0.00000000000E+00  0.96521038715E+03  0.96521038716E+03  0.25500000000E-02 0.  1.
         -2   -1    0    0    0  501 -0.00000000000E+00 -0.00000000000E+00 -0.52337275538E+02  0.52337275600E+02  0.25500000000E-02 0. -1.
    5000001    1    1    2    0    0 -0.97959152201E+02  0.61957903953E+02  0.48983621800E+03  0.53873768926E+03  0.19200000000E+03 0.  0.
   -5000001    1    1    2    0    0  0.97959152201E+02 -0.61957903953E+02  0.42303689362E+03  0.47880997350E+03  0.19200000000E+03 0.  0.
<mgrwt>
<rscale>  0 0.44951744E+03</rscale>
<asrwt>0</asrwt>
<pdfrwt beam="1">  1        2 0.13788718E+00 0.44951744E+03</pdfrwt>
<pdfrwt beam="2">  1       -2 0.74767544E-02 0.44951744E+03</pdfrwt>
<totfact> 0.32290787E+03</totfact>
</mgrwt>
</event>
<event>
 4    1  0.2058931E-005  0.9886039E+03  0.7818608E-02  0.9321133E-01
         -2   -1    0    0    0  501 -0.00000000000E+00  0.00000000000E+00  0.85738596793E+02  0.85738596831E+02  0.25500000000E-02 0. -1.
          2   -1    0    0  501    0  0.00000000000E+00 -0.00000000000E+00 -0.28497601356E+04  0.28497601356E+04  0.25500000000E-02 0.  1.
    5000001    1    1    2    0    0 -0.14883562808E+03  0.40260601911E+03 -0.92947375506E+03  0.10416473070E+04  0.19200000000E+03 0.  0.
   -5000001    1    1    2    0    0  0.14883562808E+03 -0.40260601911E+03 -0.18345477838E+04  0.18938514255E+04  0.19200000000E+03 0.  0.
<mgrwt>
<rscale>  0 0.98860394E+03</rscale>
<asrwt>0</asrwt>
<pdfrwt beam="1">  1        2 0.40710853E+00 0.98860394E+03</pdfrwt>
<pdfrwt beam="2">  1       -2 0.12248373E-01 0.98860394E+03</pdfrwt>
<totfact> 0.14324100E+02</totfact>
</mgrwt>
</event>
<event>
 4    1  0.2058931E-005  0.5236777E+03  0.7818608E-02  0.1007777E+00
         -2   -1    0    0    0  501 -0.00000000000E+00  0.00000000000E+00  0.77524244343E+02  0.77524244385E+02  0.25500000000E-02 0. -1.
          2   -1    0    0  501    0  0.00000000000E+00 -0.00000000000E+00 -0.88436316003E+03  0.88436316003E+03  0.25500000000E-02 0.  1.
    5000001    1    1    2    0    0 -0.71372216284E+02 -0.16038821459E+03 -0.45782118680E+03  0.52657631139E+03  0.19200000000E+03 0.  0.
   -5000001    1    1    2    0    0  0.71372216284E+02  0.16038821459E+03 -0.34901772889E+03  0.43531109303E+03  0.19200000000E+03 0.  0.
<mgrwt>
<rscale>  0 0.52367771E+03</rscale>
<asrwt>0</asrwt>
<pdfrwt beam="1">  1        2 0.12633759E+00 0.52367771E+03</pdfrwt>
<pdfrwt beam="2">  1       -2 0.11074893E-01 0.52367771E+03</pdfrwt>
<totfact> 0.19361808E+03</totfact>
</mgrwt>
</event>
<event>
 4    1  0.2058931E-005  0.5739877E+03  0.7818608E-02  0.9960893E-01
          2   -1    0    0  501    0  0.00000000000E+00  0.00000000000E+00  0.31967336542E+03  0.31967336543E+03  0.25500000000E-02 0.  1.
         -2   -1    0    0    0  501 -0.00000000000E+00 -0.00000000000E+00 -0.25765511476E+03  0.25765511477E+03  0.25500000000E-02 0. -1.
    5000001    1    1    2    0    0 -0.55176162685E+02 -0.20510398698E+03  0.50857791028E+02  0.29079643965E+03  0.19200000000E+03 0.  0.
   -5000001    1    1    2    0    0  0.55176162685E+02  0.20510398698E+03  0.11160459633E+02  0.28653204055E+03  0.19200000000E+03 0.  0.
<mgrwt>
<rscale>  0 0.57398773E+03</rscale>
<asrwt>0</asrwt>
<pdfrwt beam="1">  1        2 0.45667624E-01 0.57398773E+03</pdfrwt>
<pdfrwt beam="2">  1       -2 0.36807874E-01 0.57398773E+03</pdfrwt>
<totfact> 0.77600335E+02</totfact>
</mgrwt>
</event>
<event>
 4    1  0.2058931E-005  0.7757863E+03  0.7818608E-02  0.9595742E-01
         -2   -1    0    0    0  501 -0.00000000000E+00  0.00000000000E+00  0.39139904194E+03  0.39139904195E+03  0.25500000000E-02 0. -1.
          2   -1    0    0  501    0  0.00000000000E+00 -0.00000000000E+00 -0.38441862738E+03  0.38441862739E+03  0.25500000000E-02 0.  1.
    5000001    1    1    2    0    0 -0.14508247126E+02  0.33386710644E+03 -0.40321935613E+02  0.38751463519E+03  0.19200000000E+03 0.  0.
   -5000001    1    1    2    0    0  0.14508247126E+02 -0.33386710644E+03  0.47302350176E+02  0.38830303415E+03  0.19200000000E+03 0.  0.
<mgrwt>
<rscale>  0 0.77578627E+03</rscale>
<asrwt>0</asrwt>
<pdfrwt beam="1">  1        2 0.54916947E-01 0.77578627E+03</pdfrwt>
<pdfrwt beam="2">  1       -2 0.55914149E-01 0.77578627E+03</pdfrwt>
<totfact> 0.27363672E+02</totfact>
</mgrwt>
</event>
<event>
 4    1  0.2058931E-005  0.6165386E+03  0.7818608E-02  0.9871676E-01
         -2   -1    0    0    0  501 -0.00000000000E+00  0.00000000000E+00  0.14098661747E+03  0.14098661749E+03  0.25500000000E-02 0.  1.
          2   -1    0    0  501    0  0.00000000000E+00 -0.00000000000E+00 -0.67403531858E+03  0.67403531859E+03  0.25500000000E-02 0. -1.
    5000001    1    1    2    0    0  0.63113601761E+02 -0.19565572257E+03 -0.99827389612E+02  0.29848617425E+03  0.19200000000E+03 0.  0.
   -5000001    1    1    2    0    0 -0.63113601761E+02  0.19565572257E+03 -0.43322131151E+03  0.51653576183E+03  0.19200000000E+03 0.  0.
<mgrwt>
<rscale>  0 0.61653859E+03</rscale>
<asrwt>0</asrwt>
<pdfrwt beam="1">  1        2 0.96290758E-01 0.61653859E+03</pdfrwt>
<pdfrwt beam="2">  1       -2 0.20140946E-01 0.61653859E+03</pdfrwt>
<totfact> 0.99614373E+02</totfact>
</mgrwt>
</event>
<event>
 4    1  0.2058931E-005  0.5671197E+03  0.7818608E-02  0.9976073E-01
          2   -1    0    0  501    0  0.00000000000E+00  0.00000000000E+00  0.22171414580E+04  0.22171414581E+04  0.25500000000E-02 0.  1.
         -2   -1    0    0    0  501 -0.00000000000E+00 -0.00000000000E+00 -0.36265702990E+02  0.36265703079E+02  0.25500000000E-02 0. -1.
    5000001    1    1    2    0    0 -0.11694480501E+03 -0.17082112381E+03  0.98634857841E+03  0.10259646494E+04  0.19200000000E+03 0.  0.
   -5000001    1    1    2    0    0  0.11694480501E+03  0.17082112381E+03  0.11945271767E+04  0.12274425117E+04  0.19200000000E+03 0.  0.
<mgrwt>
<rscale>  0 0.56711972E+03</rscale>
<asrwt>0</asrwt>
<pdfrwt beam="1">  1        2 0.31673449E+00 0.56711972E+03</pdfrwt>
<pdfrwt beam="2">  1       -2 0.51808148E-02 0.56711972E+03</pdfrwt>
<totfact> 0.12536797E+03</totfact>
</mgrwt>
</event>
<event>
 4    1  0.2058931E-005  0.4644827E+03  0.7818608E-02  0.1023489E+00
          2   -1    0    0  501    0  0.00000000000E+00  0.00000000000E+00  0.71756277468E+02  0.71756277514E+02  0.25500000000E-02 0.  1.
         -2   -1    0    0    0  501 -0.00000000000E+00 -0.00000000000E+00 -0.75165605755E+03  0.75165605756E+03  0.25500000000E-02 0. -1.
    5000001    1    1    2    0    0 -0.30239602846E+02 -0.11033413906E+03 -0.22805592091E+03  0.31931420088E+03  0.19200000000E+03 0.  0.
   -5000001    1    1    2    0    0  0.30239602846E+02  0.11033413906E+03 -0.45184385917E+03  0.50409813419E+03  0.19200000000E+03 0.  0.
<mgrwt>
<rscale>  0 0.46448268E+03</rscale>
<asrwt>0</asrwt>
<pdfrwt beam="1">  1        2 0.10250897E-01 0.46448268E+03</pdfrwt>
<pdfrwt beam="2">  1       -2 0.10737943E+00 0.46448268E+03</pdfrwt>
<totfact> 0.45294052E+02</totfact>
</mgrwt>
</event>
<event>
 4    1  0.2058931E-005  0.5408087E+03  0.7818608E-02  0.1003644E+00
          2   -1    0    0  501    0  0.00000000000E+00  0.00000000000E+00  0.28948541596E+04  0.28948541596E+04  0.25500000000E-02 0.  1.
         -2   -1    0    0    0  501 -0.00000000000E+00 -0.00000000000E+00 -0.25258100082E+02  0.25258100211E+02  0.25500000000E-02 0. -1.
    5000001    1    1    2    0    0  0.32438799771E+02  0.17707637541E+03  0.17696645085E+04  0.17891296183E+04  0.19200000000E+03 0.  0.
   -5000001    1    1    2    0    0 -0.32438799771E+02 -0.17707637541E+03  0.10999315510E+04  0.11309826414E+04  0.19200000000E+03 0.  0.
<mgrwt>
<rscale>  0 0.54080871E+03</rscale>
<asrwt>0</asrwt>
<pdfrwt beam="1">  1        2 0.41355064E+00 0.54080871E+03</pdfrwt>
<pdfrwt beam="2">  1       -2 0.36082996E-02 0.54080871E+03</pdfrwt>
<totfact> 0.97994328E+02</totfact>
</mgrwt>
</event>
<event>
 4    1  0.2058931E-005  0.6686754E+03  0.7818608E-02  0.9772354E-01
         -2   -1    0    0    0  501 -0.00000000000E+00  0.00000000000E+00  0.87119461603E+02  0.87119461640E+02  0.25500000000E-02 0. -1.
          2   -1    0    0  501    0  0.00000000000E+00 -0.00000000000E+00 -0.12830854164E+04  0.12830854164E+04  0.25500000000E-02 0.  1.
    5000001    1    1    2    0    0  0.17445816632E+03 -0.19604966110E+03 -0.75732318284E+03  0.82418051705E+03  0.19200000000E+03 0.  0.
   -5000001    1    1    2    0    0 -0.17445816632E+03  0.19604966110E+03 -0.43864277196E+03  0.54602436100E+03  0.19200000000E+03 0.  0.
<mgrwt>
<rscale>  0 0.66867544E+03</rscale>
<asrwt>0</asrwt>
<pdfrwt beam="1">  1        2 0.18329790E+00 0.66867544E+03</pdfrwt>
<pdfrwt beam="2">  1       -2 0.12445638E-01 0.66867544E+03</pdfrwt>
<totfact> 0.92704896E+02</totfact>
</mgrwt>
</event>
<event>
 4    1  0.2058931E-005  0.4086533E+03  0.7818608E-02  0.1040824E+00
         -2   -1    0    0    0  501 -0.00000000000E+00  0.00000000000E+00  0.37504072692E+03  0.37504072693E+03  0.25500000000E-02 0. -1.
          2   -1    0    0  501    0  0.00000000000E+00 -0.00000000000E+00 -0.11131957902E+03  0.11131957905E+03  0.25500000000E-02 0.  1.
    5000001    1    1    2    0    0  0.31521456511E+02 -0.47863303555E+02  0.17947978813E+03  0.26900091523E+03  0.19200000000E+03 0.  0.
   -5000001    1    1    2    0    0 -0.31521456511E+02  0.47863303555E+02  0.84241359775E+02  0.21735939074E+03  0.19200000000E+03 0.  0.
<mgrwt>
<rscale>  0 0.40865328E+03</rscale>
<asrwt>0</asrwt>
<pdfrwt beam="1">  1        2 0.15902797E-01 0.40865328E+03</pdfrwt>
<pdfrwt beam="2">  1       -2 0.53577246E-01 0.40865328E+03</pdfrwt>
<totfact> 0.12236365E+03</totfact>
</mgrwt>
</event>
<event>
 4    1  0.2058931E-005  0.5952825E+03  0.7818608E-02  0.9915242E-01
          2   -1    0    0  501    0  0.00000000000E+00  0.00000000000E+00  0.11915909258E+04  0.11915909258E+04  0.25500000000E-02 0.  1.
         -2   -1    0    0    0  501 -0.00000000000E+00 -0.00000000000E+00 -0.74346258018E+02  0.74346258062E+02  0.25500000000E-02 0. -1.
    5000001    1    1    2    0    0 -0.17121977349E+03  0.14648284330E+03  0.49297593543E+03  0.57503278787E+03  0.19200000000E+03 0.  0.
   -5000001    1    1    2    0    0  0.17121977349E+03 -0.14648284330E+03  0.62426873240E+03  0.69090439604E+03  0.19200000000E+03 0.  0.
<mgrwt>
<rscale>  0 0.59528254E+03</rscale>
<asrwt>0</asrwt>
<pdfrwt beam="1">  1        2 0.17022727E+00 0.59528254E+03</pdfrwt>
<pdfrwt beam="2">  1       -2 0.10620895E-01 0.59528254E+03</pdfrwt>
<totfact> 0.13549356E+03</totfact>
</mgrwt>
</event>
<event>
 4    1  0.2058931E-005  0.5231017E+03  0.7818608E-02  0.1007919E+00
         -2   -1    0    0    0  501 -0.00000000000E+00  0.00000000000E+00  0.31262966531E+02  0.31262966635E+02  0.25500000000E-02 0. -1.
          2   -1    0    0  501    0  0.00000000000E+00 -0.00000000000E+00 -0.21881750726E+04  0.21881750726E+04  0.25500000000E-02 0.  1.
    5000001    1    1    2    0    0  0.41217490929E+01 -0.16818498969E+03 -0.83688719702E+03  0.87495563322E+03  0.19200000000E+03 0.  0.
   -5000001    1    1    2    0    0 -0.41217490929E+01  0.16818498969E+03 -0.13200249090E+04  0.13444824060E+04  0.19200000000E+03 0.  0.
<mgrwt>
<rscale>  0 0.52310169E+03</rscale>
<asrwt>0</asrwt>
<pdfrwt beam="1">  1        2 0.31259634E+00 0.52310169E+03</pdfrwt>
<pdfrwt beam="2">  1       -2 0.44661395E-02 0.52310169E+03</pdfrwt>
<totfact> 0.16347190E+03</totfact>
</mgrwt>
</event>
<event>
 4    1  0.2058931E-005  0.5178511E+03  0.7818608E-02  0.1009222E+00
          2   -1    0    0  501    0  0.00000000000E+00  0.00000000000E+00  0.37290550616E+04  0.37290550616E+04  0.25500000000E-02 0.  1.
         -2   -1    0    0    0  501 -0.00000000000E+00 -0.00000000000E+00 -0.17978400580E+02  0.17978400761E+02  0.25500000000E-02 0. -1.
    5000001    1    1    2    0    0 -0.15898482371E+03  0.69028395297E+02  0.19403393219E+04  0.19575039662E+04  0.19200000000E+03 0.  0.
   -5000001    1    1    2    0    0  0.15898482371E+03 -0.69028395297E+02  0.17707373391E+04  0.17895294962E+04  0.19200000000E+03 0.  0.
<mgrwt>
<rscale>  0 0.51785112E+03</rscale>
<asrwt>0</asrwt>
<pdfrwt beam="1">  1        2 0.53272231E+00 0.51785112E+03</pdfrwt>
<pdfrwt beam="2">  1       -2 0.25683422E-02 0.51785112E+03</pdfrwt>
<totfact> 0.54735803E+02</totfact>
</mgrwt>
</event>
<event>
 4    1  0.2058931E-005  0.4653742E+03  0.7818608E-02  0.1023234E+00
         -2   -1    0    0    0  501 -0.00000000000E+00  0.00000000000E+00  0.37602907551E+02  0.37602907637E+02  0.25500000000E-02 0. -1.
          2   -1    0    0  501    0  0.00000000000E+00 -0.00000000000E+00 -0.14398694546E+04  0.14398694546E+04  0.25500000000E-02 0.  1.
    5000001    1    1    2    0    0  0.63386498327E+02  0.10427972388E+03 -0.54601652727E+03  0.59151513678E+03  0.19200000000E+03 0.  0.
   -5000001    1    1    2    0    0 -0.63386498327E+02 -0.10427972388E+03 -0.85625001981E+03  0.88595722549E+03  0.19200000000E+03 0.  0.
<mgrwt>
<rscale>  0 0.46537416E+03</rscale>
<asrwt>0</asrwt>
<pdfrwt beam="1">  1        2 0.20569560E+00 0.46537416E+03</pdfrwt>
<pdfrwt beam="2">  1       -2 0.53718448E-02 0.46537416E+03</pdfrwt>
<totfact> 0.29381384E+03</totfact>
</mgrwt>
</event>
<event>
 4    1  0.2058931E-005  0.5279582E+03  0.7818608E-02  0.1006729E+00
         -2   -1    0    0    0  501 -0.00000000000E+00  0.00000000000E+00  0.46000116811E+02  0.46000116882E+02  0.25500000000E-02 0. -1.
          2   -1    0    0  501    0  0.00000000000E+00 -0.00000000000E+00 -0.15148867394E+04  0.15148867394E+04  0.25500000000E-02 0.  1.
    5000001    1    1    2    0    0 -0.13123031045E+03  0.10478391452E+03 -0.93539346808E+03  0.96954938154E+03  0.19200000000E+03 0.  0.
   -5000001    1    1    2    0    0  0.13123031045E+03 -0.10478391452E+03 -0.53349315448E+03  0.59133747471E+03  0.19200000000E+03 0.  0.
<mgrwt>
<rscale>  0 0.52795821E+03</rscale>
<asrwt>0</asrwt>
<pdfrwt beam="1">  1        2 0.21641236E+00 0.52795821E+03</pdfrwt>
<pdfrwt beam="2">  1       -2 0.65714462E-02 0.52795821E+03</pdfrwt>
<totfact> 0.19597006E+03</totfact>
</mgrwt>
</event>
<event>
 4    1  0.2058931E-005  0.5596137E+03  0.7818608E-02  0.9992929E-01
         -2   -1    0    0    0  501 -0.00000000000E+00  0.00000000000E+00  0.32432702386E+02  0.32432702486E+02  0.25500000000E-02 0. -1.
          2   -1    0    0  501    0  0.00000000000E+00 -0.00000000000E+00 -0.24139790289E+04  0.24139790289E+04  0.25500000000E-02 0.  1.
    5000001    1    1    2    0    0 -0.89060615221E+02 -0.15721013806E+03 -0.16004244165E+04  0.16219954173E+04  0.19200000000E+03 0.  0.
   -5000001    1    1    2    0    0  0.89060615221E+02  0.15721013806E+03 -0.78112190999E+03  0.82441631410E+03  0.19200000000E+03 0.  0.
<mgrwt>
<rscale>  0 0.55961367E+03</rscale>
<asrwt>0</asrwt>
<pdfrwt beam="1">  1        2 0.34485403E+00 0.55961367E+03</pdfrwt>
<pdfrwt beam="2">  1       -2 0.46332447E-02 0.55961367E+03</pdfrwt>
<totfact> 0.11856892E+03</totfact>
</mgrwt>
</event>
<event>
 4    1  0.2058931E-005  0.5733881E+03  0.7818608E-02  0.9962209E-01
         -2   -1    0    0    0  501 -0.00000000000E+00  0.00000000000E+00  0.57466403012E+02  0.57466403068E+02  0.25500000000E-02 0. -1.
          2   -1    0    0  501    0  0.00000000000E+00 -0.00000000000E+00 -0.14302873372E+04  0.14302873372E+04  0.25500000000E-02 0.  1.
    5000001    1    1    2    0    0 -0.17644672362E+03 -0.74108807466E+02 -0.44434127475E+03  0.52050814601E+03  0.19200000000E+03 0.  0.
   -5000001    1    1    2    0    0  0.17644672362E+03  0.74108807466E+02 -0.92847965945E+03  0.96724559427E+03  0.19200000000E+03 0.  0.
<mgrwt>
<rscale>  0 0.57338807E+03</rscale>
<asrwt>0</asrwt>
<pdfrwt beam="1">  1        2 0.20432674E+00 0.57338807E+03</pdfrwt>
<pdfrwt beam="2">  1       -2 0.82094871E-02 0.57338807E+03</pdfrwt>
<totfact> 0.15236346E+03</totfact>
</mgrwt>
</event>
<event>
 4    1  0.2058931E-005  0.1051118E+04  0.7818608E-02  0.9254191E-01
         -2   -1    0    0    0  501 -0.00000000000E+00  0.00000000000E+00  0.13022920116E+03  0.13022920118E+03  0.25500000000E-02 0. -1.
          2   -1    0    0  501    0  0.00000000000E+00 -0.00000000000E+00 -0.21209689115E+04  0.21209689115E+04  0.25500000000E-02 0.  1.
    5000001    1    1    2    0    0  0.24340360128E+03 -0.31430024168E+03 -0.38463025907E+03  0.58552061554E+03  0.19200000000E+03 0.  0.
   -5000001    1    1    2    0    0 -0.24340360128E+03  0.31430024168E+03 -0.16061094513E+04  0.16656774971E+04  0.19200000000E+03 0.  0.
<mgrwt>
<rscale>  0 0.10511177E+04</rscale>
<asrwt>0</asrwt>
<pdfrwt beam="1">  1        2 0.30299554E+00 0.10511177E+04</pdfrwt>
<pdfrwt beam="2">  1       -2 0.18604173E-01 0.10511177E+04</pdfrwt>
<totfact> 0.16826097E+02</totfact>
</mgrwt>
</event>
<event>
 4    1  0.2058931E-005  0.1074464E+04  0.7818608E-02  0.9230445E-01
          2   -1    0    0  501    0  0.00000000000E+00  0.00000000000E+00  0.19463523624E+03  0.19463523626E+03  0.25500000000E-02 0.  1.
         -2   -1    0    0    0  501 -0.00000000000E+00 -0.00000000000E+00 -0.14828670947E+04  0.14828670947E+04  0.25500000000E-02 0. -1.
    5000001    1    1    2    0    0  0.93900182292E+02  0.49036231087E+03 -0.72189272655E+03  0.89847957617E+03  0.19200000000E+03 0.  0.
   -5000001    1    1    2    0    0 -0.93900182292E+02 -0.49036231087E+03 -0.56633913193E+03  0.77902275481E+03  0.19200000000E+03 0.  0.
<mgrwt>
<rscale>  0 0.10744639E+04</rscale>
<asrwt>0</asrwt>
<pdfrwt beam="1">  1        2 0.27805035E-01 0.10744639E+04</pdfrwt>
<pdfrwt beam="2">  1       -2 0.21183815E+00 0.10744639E+04</pdfrwt>
<totfact> 0.21554809E+01</totfact>
</mgrwt>
</event>
<event>
 4    1  0.2058931E-005  0.6684557E+03  0.7818608E-02  0.9772752E-01
          2   -1    0    0  501    0  0.00000000000E+00  0.00000000000E+00  0.24290437203E+04  0.24290437203E+04  0.25500000000E-02 0.  1.
         -2   -1    0    0    0  501 -0.00000000000E+00 -0.00000000000E+00 -0.45988576172E+02  0.45988576243E+02  0.25500000000E-02 0. -1.
    5000001    1    1    2    0    0  0.26234242295E+03  0.28377597189E+02  0.14589225071E+04  0.14949741525E+04  0.19200000000E+03 0.  0.
   -5000001    1    1    2    0    0 -0.26234242295E+03 -0.28377597189E+02  0.92413263702E+03  0.98005814404E+03  0.19200000000E+03 0.  0.
<mgrwt>
<rscale>  0 0.66845572E+03</rscale>
<asrwt>0</asrwt>
<pdfrwt beam="1">  1        2 0.34700635E+00 0.66845572E+03</pdfrwt>
<pdfrwt beam="2">  1       -2 0.65697947E-02 0.66845572E+03</pdfrwt>
<totfact> 0.67036402E+02</totfact>
</mgrwt>
</event>
<event>
 4    1  0.2058931E-005  0.4293975E+03  0.7818608E-02  0.1034050E+00
          2   -1    0    0  501    0  0.00000000000E+00  0.00000000000E+00  0.10253736657E+03  0.10253736660E+03  0.25500000000E-02 0.  1.
         -2   -1    0    0    0  501 -0.00000000000E+00 -0.00000000000E+00 -0.44954886560E+03  0.44954886561E+03  0.25500000000E-02 0. -1.
    5000001    1    1    2    0    0 -0.56701041157E+02 -0.63172898449E+02 -0.11563773769E+03  0.23967041859E+03  0.19200000000E+03 0.  0.
   -5000001    1    1    2    0    0  0.56701041157E+02  0.63172898449E+02 -0.23137376134E+03  0.31241581363E+03  0.19200000000E+03 0.  0.
<mgrwt>
<rscale>  0 0.42939752E+03</rscale>
<asrwt>0</asrwt>
<pdfrwt beam="1">  1        2 0.14648195E-01 0.42939752E+03</pdfrwt>
<pdfrwt beam="2">  1       -2 0.64221265E-01 0.42939752E+03</pdfrwt>
<totfact> 0.92665430E+02</totfact>
</mgrwt>
</event>
<event>
 4    1  0.2058931E-005  0.7519115E+03  0.7818608E-02  0.9632356E-01
          2   -1    0    0  501    0  0.00000000000E+00  0.00000000000E+00  0.99534452397E+03  0.99534452397E+03  0.25500000000E-02 0.  1.
         -2   -1    0    0    0  501 -0.00000000000E+00 -0.00000000000E+00 -0.14200383013E+03  0.14200383016E+03  0.25500000000E-02 0. -1.
    5000001    1    1    2    0    0  0.32083167733E+03 -0.34146210988E+01  0.48591579652E+03  0.61312542446E+03  0.19200000000E+03 0.  0.
   -5000001    1    1    2    0    0 -0.32083167733E+03  0.34146210988E+01  0.36742489731E+03  0.52422292966E+03  0.19200000000E+03 0.  0.
<mgrwt>
<rscale>  0 0.75191152E+03</rscale>
<asrwt>0</asrwt>
<pdfrwt beam="1">  1        2 0.14219207E+00 0.75191152E+03</pdfrwt>
<pdfrwt beam="2">  1       -2 0.20286262E-01 0.75191152E+03</pdfrwt>
<totfact> 0.59048244E+02</totfact>
</mgrwt>
</event>
<event>
 4    1  0.2058931E-005  0.5263085E+03  0.7818608E-02  0.1007131E+00
         -2   -1    0    0    0  501 -0.00000000000E+00  0.00000000000E+00  0.72870882360E+02  0.72870882405E+02  0.25500000000E-02 0. -1.
          2   -1    0    0  501    0  0.00000000000E+00 -0.00000000000E+00 -0.95031332259E+03  0.95031332259E+03  0.25500000000E-02 0.  1.
    5000001    1    1    2    0    0 -0.12680114170E+03 -0.24892737933E+02 -0.68222017076E+03  0.72040720383E+03  0.19200000000E+03 0.  0.
   -5000001    1    1    2    0    0  0.12680114170E+03  0.24892737933E+02 -0.19522226947E+03  0.30277700117E+03  0.19200000000E+03 0.  0.
<mgrwt>
<rscale>  0 0.52630854E+03</rscale>
<asrwt>0</asrwt>
<pdfrwt beam="1">  1        2 0.13575904E+00 0.52630854E+03</pdfrwt>
<pdfrwt beam="2">  1       -2 0.10410127E-01 0.52630854E+03</pdfrwt>
<totfact> 0.19441031E+03</totfact>
</mgrwt>
</event>
<event>
 4    1  0.2058931E-005  0.5901811E+03  0.7818608E-02  0.9925989E-01
         -2   -1    0    0    0  501 -0.00000000000E+00  0.00000000000E+00  0.49933560581E+02  0.49933560646E+02  0.25500000000E-02 0. -1.
          2   -1    0    0  501    0  0.00000000000E+00 -0.00000000000E+00 -0.17438861661E+04  0.17438861661E+04  0.25500000000E-02 0.  1.
    5000001    1    1    2    0    0  0.49938745058E+02  0.16045429670E+03 -0.39641097400E+03  0.47142880681E+03  0.19200000000E+03 0.  0.
   -5000001    1    1    2    0    0 -0.49938745058E+02 -0.16045429670E+03 -0.12975416315E+04  0.13223909199E+04  0.19200000000E+03 0.  0.
<mgrwt>
<rscale>  0 0.59018114E+03</rscale>
<asrwt>0</asrwt>
<pdfrwt beam="1">  1        2 0.24912656E+00 0.59018114E+03</pdfrwt>
<pdfrwt beam="2">  1       -2 0.71333669E-02 0.59018114E+03</pdfrwt>
<totfact> 0.13122287E+03</totfact>
</mgrwt>
</event>
<event>
 4    1  0.2058931E-005  0.4369781E+03  0.7818608E-02  0.1031678E+00
          2   -1    0    0  501    0  0.00000000000E+00  0.00000000000E+00  0.16655193723E+04  0.16655193723E+04  0.25500000000E-02 0.  1.
         -2   -1    0    0    0  501 -0.00000000000E+00 -0.00000000000E+00 -0.28662209768E+02  0.28662209882E+02  0.25500000000E-02 0. -1.
    5000001    1    1    2    0    0  0.99952919807E+02  0.29708625342E+02  0.82046954988E+03  0.84906270138E+03  0.19200000000E+03 0.  0.
   -5000001    1    1    2    0    0 -0.99952919807E+02 -0.29708625342E+02  0.81638761269E+03  0.84511888084E+03  0.19200000000E+03 0.  0.
<mgrwt>
<rscale>  0 0.43697810E+03</rscale>
<asrwt>0</asrwt>
<pdfrwt beam="1">  1        2 0.23793149E+00 0.43697810E+03</pdfrwt>
<pdfrwt beam="2">  1       -2 0.40945988E-02 0.43697810E+03</pdfrwt>
<totfact> 0.34183600E+03</totfact>
</mgrwt>
</event>
<event>
 4    1  0.2058931E-005  0.5635191E+03  0.7818608E-02  0.9984123E-01
         -2   -1    0    0    0  501 -0.00000000000E+00  0.00000000000E+00  0.97136192181E+02  0.97136192214E+02  0.25500000000E-02 0. -1.
          2   -1    0    0  501    0  0.00000000000E+00 -0.00000000000E+00 -0.81729014980E+03  0.81729014981E+03  0.25500000000E-02 0.  1.
    5000001    1    1    2    0    0  0.17115005926E+03 -0.28776447898E+00 -0.17341611984E+03  0.31020892349E+03  0.19200000000E+03 0.  0.
   -5000001    1    1    2    0    0 -0.17115005926E+03  0.28776447898E+00 -0.54673783778E+03  0.60421741853E+03  0.19200000000E+03 0.  0.
<mgrwt>
<rscale>  0 0.56351913E+03</rscale>
<asrwt>0</asrwt>
<pdfrwt beam="1">  1        2 0.11675573E+00 0.56351913E+03</pdfrwt>
<pdfrwt beam="2">  1       -2 0.13876599E-01 0.56351913E+03</pdfrwt>
<totfact> 0.14792136E+03</totfact>
</mgrwt>
</event>
<event>
 4    1  0.2058931E-005  0.5490154E+03  0.7818608E-02  0.1001722E+00
         -2   -1    0    0    0  501 -0.00000000000E+00  0.00000000000E+00  0.60518030814E+02  0.60518030868E+02  0.25500000000E-02 0.  1.
          2   -1    0    0  501    0  0.00000000000E+00 -0.00000000000E+00 -0.12451573425E+04  0.12451573425E+04  0.25500000000E-02 0. -1.
    5000001    1    1    2    0    0  0.17677434221E+03 -0.35283448490E+02 -0.40815965707E+03  0.48574931339E+03  0.19200000000E+03 0.  0.
   -5000001    1    1    2    0    0 -0.17677434221E+03  0.35283448490E+02 -0.77647965461E+03  0.81992605997E+03  0.19200000000E+03 0.  0.
<mgrwt>
<rscale>  0 0.54901537E+03</rscale>
<asrwt>0</asrwt>
<pdfrwt beam="1">  1        2 0.17787960E+00 0.54901537E+03</pdfrwt>
<pdfrwt beam="2">  1       -2 0.86454338E-02 0.54901537E+03</pdfrwt>
<totfact> 0.17652985E+03</totfact>
</mgrwt>
</event>
<event>
 4    1  0.2058931E-005  0.1360320E+04  0.7818608E-02  0.8983053E-01
         -2   -1    0    0    0  501 -0.00000000000E+00  0.00000000000E+00  0.71947781473E+03  0.71947781474E+03  0.25500000000E-02 0. -1.
          2   -1    0    0  501    0  0.00000000000E+00 -0.00000000000E+00 -0.64299063673E+03  0.64299063673E+03  0.25500000000E-02 0.  1.
    5000001    1    1    2    0    0 -0.22919194435E+03 -0.56865016723E+03  0.26189326184E+03  0.69378962276E+03  0.19200000000E+03 0.  0.
   -5000001    1    1    2    0    0  0.22919194435E+03  0.56865016723E+03 -0.18540608383E+03  0.66867882872E+03  0.19200000000E+03 0.  0.
<mgrwt>
<rscale>  0 0.13603198E+04</rscale>
<asrwt>0</asrwt>
<pdfrwt beam="1">  1        2 0.91855805E-01 0.13603198E+04</pdfrwt>
<pdfrwt beam="2">  1       -2 0.10278255E+00 0.13603198E+04</pdfrwt>
<totfact> 0.37776675E+01</totfact>
</mgrwt>
</event>
<event>
 4    1  0.2058931E-005  0.9892284E+03  0.7818608E-02  0.9320438E-01
         -2   -1    0    0    0  501 -0.00000000000E+00  0.00000000000E+00  0.64557273257E+03  0.64557273258E+03  0.25500000000E-02 0. -1.
          2   -1    0    0  501    0  0.00000000000E+00 -0.00000000000E+00 -0.37895529449E+03  0.37895529450E+03  0.25500000000E-02 0.  1.
    5000001    1    1    2    0    0  0.42329094135E+03 -0.14249995956E+03  0.38966231330E+02  0.48771285270E+03  0.19200000000E+03 0.  0.
   -5000001    1    1    2    0    0 -0.42329094135E+03  0.14249995956E+03  0.22765120675E+03  0.53681517438E+03  0.19200000000E+03 0.  0.
<mgrwt>
<rscale>  0 0.98922840E+03</rscale>
<asrwt>0</asrwt>
<pdfrwt beam="1">  1        2 0.54136471E-01 0.98922840E+03</pdfrwt>
<pdfrwt beam="2">  1       -2 0.92224676E-01 0.98922840E+03</pdfrwt>
<totfact> 0.91742030E+01</totfact>
</mgrwt>
</event>
<event>
 4    1  0.2058931E-005  0.6037022E+03  0.7818608E-02  0.9897755E-01
          2   -1    0    0  501    0  0.00000000000E+00  0.00000000000E+00  0.95359805965E+03  0.95359805965E+03  0.25500000000E-02 0.  1.
         -2   -1    0    0    0  501 -0.00000000000E+00 -0.00000000000E+00 -0.95547672883E+02  0.95547672917E+02  0.25500000000E-02 0. -1.
    5000001    1    1    2    0    0  0.78563842616E+02  0.18079271246E+03  0.21342075505E+03  0.34823943046E+03  0.19200000000E+03 0.  0.
   -5000001    1    1    2    0    0 -0.78563842616E+02 -0.18079271246E+03  0.64462963172E+03  0.70090630211E+03  0.19200000000E+03 0.  0.
<mgrwt>
<rscale>  0 0.60370216E+03</rscale>
<asrwt>0</asrwt>
<pdfrwt beam="1">  1        2 0.13622829E+00 0.60370216E+03</pdfrwt>
<pdfrwt beam="2">  1       -2 0.13649668E-01 0.60370216E+03</pdfrwt>
<totfact> 0.12383255E+03</totfact>
</mgrwt>
</event>
<event>
 4    1  0.2058931E-005  0.1562186E+04  0.7818608E-02  0.8844121E-01
         -2   -1    0    0    0  501 -0.00000000000E+00  0.00000000000E+00  0.20894341567E+03  0.20894341568E+03  0.25500000000E-02 0. -1.
          2   -1    0    0  501    0  0.00000000000E+00 -0.00000000000E+00 -0.29199602396E+04  0.29199602396E+04  0.25500000000E-02 0.  1.
    5000001    1    1    2    0    0  0.43743187625E+03 -0.29770506168E+03 -0.27085406429E+03  0.62466060725E+03  0.19200000000E+03 0.  0.
   -5000001    1    1    2    0    0 -0.43743187625E+03  0.29770506168E+03 -0.24401627596E+04  0.25042430480E+04  0.19200000000E+03 0.  0.
<mgrwt>
<rscale>  0 0.15621862E+04</rscale>
<asrwt>0</asrwt>
<pdfrwt beam="1">  1        2 0.41713715E+00 0.15621862E+04</pdfrwt>
<pdfrwt beam="2">  1       -2 0.29849061E-01 0.15621862E+04</pdfrwt>
<totfact> 0.26161454E+01</totfact>
</mgrwt>
</event>
<event>
 4    1  0.2058931E-005  0.1069763E+04  0.7818608E-02  0.9235174E-01
          2   -1    0    0  501    0  0.00000000000E+00  0.00000000000E+00  0.52592044706E+03  0.52592044707E+03  0.25500000000E-02 0.  1.
         -2   -1    0    0    0  501 -0.00000000000E+00 -0.00000000000E+00 -0.54399541179E+03  0.54399541180E+03  0.25500000000E-02 0. -1.
    5000001    1    1    2    0    0 -0.32972173584E+03  0.34546231125E+03 -0.15457003306E+03  0.53741652998E+03  0.19200000000E+03 0.  0.
   -5000001    1    1    2    0    0  0.32972173584E+03 -0.34546231125E+03  0.13649506832E+03  0.53249932888E+03  0.19200000000E+03 0.  0.
<mgrwt>
<rscale>  0 0.10697632E+04</rscale>
<asrwt>0</asrwt>
<pdfrwt beam="1">  1        2 0.75131492E-01 0.10697632E+04</pdfrwt>
<pdfrwt beam="2">  1       -2 0.77713631E-01 0.10697632E+04</pdfrwt>
<totfact> 0.93036680E+01</totfact>
</mgrwt>
</event>
<event>
 4    1  0.2058931E-005  0.6833887E+03  0.7818608E-02  0.9746069E-01
         -2   -1    0    0    0  501 -0.00000000000E+00  0.00000000000E+00  0.37508345027E+02  0.37508345114E+02  0.25500000000E-02 0. -1.
          2   -1    0    0  501    0  0.00000000000E+00 -0.00000000000E+00 -0.31127744785E+04  0.31127744785E+04  0.25500000000E-02 0.  1.
    5000001    1    1    2    0    0 -0.11448323987E+03  0.21255900672E+03 -0.22151834168E+04  0.22365574693E+04  0.19200000000E+03 0.  0.
   -5000001    1    1    2    0    0  0.11448323987E+03 -0.21255900672E+03 -0.86008271671E+03  0.91372535433E+03  0.19200000000E+03 0.  0.
<mgrwt>
<rscale>  0 0.68338867E+03</rscale>
<asrwt>0</asrwt>
<pdfrwt beam="1">  1        2 0.44468191E+00 0.68338867E+03</pdfrwt>
<pdfrwt beam="2">  1       -2 0.53583370E-02 0.68338867E+03</pdfrwt>
<totfact> 0.39956707E+02</totfact>
</mgrwt>
</event>
<event>
 4    1  0.2058931E-005  0.7697736E+03  0.7818608E-02  0.9604829E-01
         -2   -1    0    0    0  501 -0.00000000000E+00  0.00000000000E+00  0.10570259089E+03  0.10570259092E+03  0.25500000000E-02 0. -1.
          2   -1    0    0  501    0  0.00000000000E+00 -0.00000000000E+00 -0.14014590756E+04  0.14014590756E+04  0.25500000000E-02 0.  1.
    5000001    1    1    2    0    0  0.57196996370E+02 -0.29213482062E+03 -0.94260732341E+03  0.10069691236E+04  0.19200000000E+03 0.  0.
   -5000001    1    1    2    0    0 -0.57196996370E+02  0.29213482062E+03 -0.35314916125E+03  0.50019254283E+03  0.19200000000E+03 0.  0.
<mgrwt>
<rscale>  0 0.76977362E+03</rscale>
<asrwt>0</asrwt>
<pdfrwt beam="1">  1        2 0.20020843E+00 0.76977362E+03</pdfrwt>
<pdfrwt beam="2">  1       -2 0.15100371E-01 0.76977362E+03</pdfrwt>
<totfact> 0.57621691E+02</totfact>
</mgrwt>
</event>
<event>
 4    1  0.2058931E-005  0.1057569E+04  0.7818608E-02  0.9247565E-01
         -2   -1    0    0    0  501 -0.00000000000E+00  0.00000000000E+00  0.42983793085E+03  0.42983793085E+03  0.25500000000E-02 0. -1.
          2   -1    0    0  501    0  0.00000000000E+00 -0.00000000000E+00 -0.65050753972E+03  0.65050753973E+03  0.25500000000E-02 0.  1.
    5000001    1    1    2    0    0  0.21959475258E+03  0.27126783878E+03 -0.46558996666E+03  0.61273657698E+03  0.19200000000E+03 0.  0.
   -5000001    1    1    2    0    0 -0.21959475258E+03 -0.27126783878E+03  0.24492035778E+03  0.46760889360E+03  0.19200000000E+03 0.  0.
<mgrwt>
<rscale>  0 0.10575686E+04</rscale>
<asrwt>0</asrwt>
<pdfrwt beam="1">  1        2 0.92929648E-01 0.10575686E+04</pdfrwt>
<pdfrwt beam="2">  1       -2 0.61405419E-01 0.10575686E+04</pdfrwt>
<totfact> 0.12092645E+02</totfact>
</mgrwt>
</event>
<event>
 4    1  0.2058931E-005  0.1035412E+04  0.7818608E-02  0.9270536E-01
          2   -1    0    0  501    0  0.00000000000E+00  0.00000000000E+00  0.30285293466E+04  0.30285293466E+04  0.25500000000E-02 0.  1.
         -2   -1    0    0    0  501 -0.00000000000E+00 -0.00000000000E+00 -0.88498273539E+02  0.88498273576E+02  0.25500000000E-02 0. -1.
    5000001    1    1    2    0    0  0.37781099986E+03 -0.17362617424E+03  0.21966968262E+04  0.22439314041E+04  0.19200000000E+03 0.  0.
   -5000001    1    1    2    0    0 -0.37781099986E+03  0.17362617424E+03  0.74333424685E+03  0.87309621608E+03  0.19200000000E+03 0.  0.
<mgrwt>
<rscale>  0 0.10354122E+04</rscale>
<asrwt>0</asrwt>
<pdfrwt beam="1">  1        2 0.43264695E+00 0.10354122E+04</pdfrwt>
<pdfrwt beam="2">  1       -2 0.12642614E-01 0.10354122E+04</pdfrwt>
<totfact> 0.10800026E+02</totfact>
</mgrwt>
</event>
<event>
 4    1  0.2058931E-005  0.1341255E+04  0.7818608E-02  0.8997474E-01
          2   -1    0    0  501    0  0.00000000000E+00  0.00000000000E+00  0.65413458544E+03  0.65413458545E+03  0.25500000000E-02 0.  1.
         -2   -1    0    0    0  501 -0.00000000000E+00 -0.00000000000E+00 -0.68753668939E+03  0.68753668940E+03  0.25500000000E-02 0. -1.
    5000001    1    1    2    0    0 -0.43836840701E+03 -0.19428580452E+03 -0.44457622703E+03  0.68148797182E+03  0.19200000000E+03 0.  0.
   -5000001    1    1    2    0    0  0.43836840701E+03  0.19428580452E+03  0.41117412308E+03  0.66018330302E+03  0.19200000000E+03 0.  0.
<mgrwt>
<rscale>  0 0.13412554E+04</rscale>
<asrwt>0</asrwt>
<pdfrwt beam="1">  1        2 0.93447798E-01 0.13412554E+04</pdfrwt>
<pdfrwt beam="2">  1       -2 0.98219527E-01 0.13412554E+04</pdfrwt>
<totfact> 0.41268669E+01</totfact>
</mgrwt>
</event>
<event>
 4    1  0.2058931E-005  0.4531361E+03  0.7818608E-02  0.1026791E+00
         -2   -1    0    0    0  501 -0.00000000000E+00  0.00000000000E+00  0.72751726588E+02  0.72751726633E+02  0.25500000000E-02 0. -1.
          2   -1    0    0  501    0  0.00000000000E+00 -0.00000000000E+00 -0.70559253652E+03  0.70559253653E+03  0.25500000000E-02 0.  1.
    5000001    1    1    2    0    0 -0.89496177627E+02  0.32463435790E+02 -0.44270967245E+03  0.49185291964E+03  0.19200000000E+03 0.  0.
   -5000001    1    1    2    0    0  0.89496177627E+02 -0.32463435790E+02 -0.19013113748E+03  0.28649134352E+03  0.19200000000E+03 0.  0.
<mgrwt>
<rscale>  0 0.45313607E+03</rscale>
<asrwt>0</asrwt>
<pdfrwt beam="1">  1        2 0.10079893E+00 0.45313607E+03</pdfrwt>
<pdfrwt beam="2">  1       -2 0.10393104E-01 0.45313607E+03</pdfrwt>
<totfact> 0.28541407E+03</totfact>
</mgrwt>
</event>
<event>
 4    1  0.2058931E-005  0.4447115E+03  0.7818608E-02  0.1029311E+00
          2   -1    0    0  501    0  0.00000000000E+00  0.00000000000E+00  0.33671086803E+03  0.33671086804E+03  0.25500000000E-02 0. -1.
         -2   -1    0    0    0  501 -0.00000000000E+00 -0.00000000000E+00 -0.14683840231E+03  0.14683840233E+03  0.25500000000E-02 0.  1.
    5000001    1    1    2    0    0  0.10189025916E+02  0.10226163766E+03  0.14376735234E+03  0.26094886546E+03  0.19200000000E+03 0.  0.
   -5000001    1    1    2    0    0 -0.10189025916E+02 -0.10226163766E+03  0.46105113376E+02  0.22260040491E+03  0.19200000000E+03 0.  0.
<mgrwt>
<rscale>  0 0.44471153E+03</rscale>
<asrwt>0</asrwt>
<pdfrwt beam="1">  1        2 0.48101552E-01 0.44471153E+03</pdfrwt>
<pdfrwt beam="2">  1       -2 0.20976915E-01 0.44471153E+03</pdfrwt>
<totfact> 0.20392254E+03</totfact>
</mgrwt>
</event>
<event>
 4    1  0.2058931E-005  0.9485139E+03  0.7818608E-02  0.9366889E-01
         -2   -1    0    0    0  501 -0.00000000000E+00  0.00000000000E+00  0.31685650317E+03  0.31685650318E+03  0.25500000000E-02 0. -1.
          2   -1    0    0  501    0  0.00000000000E+00 -0.00000000000E+00 -0.70984700797E+03  0.70984700797E+03  0.25500000000E-02 0.  1.
    5000001    1    1    2    0    0 -0.37014991128E+03  0.21518224989E+03 -0.27102837418E+03  0.54188074066E+03  0.19200000000E+03 0.  0.
   -5000001    1    1    2    0    0  0.37014991128E+03 -0.21518224989E+03 -0.12196213062E+03  0.48482277050E+03  0.19200000000E+03 0.  0.
<mgrwt>
<rscale>  0 0.94851387E+03</rscale>
<asrwt>0</asrwt>
<pdfrwt beam="1">  1        2 0.10140672E+00 0.94851387E+03</pdfrwt>
<pdfrwt beam="2">  1       -2 0.45265215E-01 0.94851387E+03</pdfrwt>
<totfact> 0.20474626E+02</totfact>
</mgrwt>
</event>
<event>
 4    1  0.2058931E-005  0.6457737E+03  0.7818608E-02  0.9814742E-01
          2   -1    0    0  501    0  0.00000000000E+00  0.00000000000E+00  0.56274069179E+03  0.56274069179E+03  0.25500000000E-02 0.  1.
         -2   -1    0    0    0  501 -0.00000000000E+00 -0.00000000000E+00 -0.18526456160E+03  0.18526456162E+03  0.25500000000E-02 0. -1.
    5000001    1    1    2    0    0 -0.22850251274E+03  0.10387341500E+03  0.26547392135E+03  0.41272689226E+03  0.19200000000E+03 0.  0.
   -5000001    1    1    2    0    0  0.22850251274E+03 -0.10387341500E+03  0.11200220883E+03  0.33527836115E+03  0.19200000000E+03 0.  0.
<mgrwt>
<rscale>  0 0.64577367E+03</rscale>
<asrwt>0</asrwt>
<pdfrwt beam="1">  1        2 0.80391527E-01 0.64577367E+03</pdfrwt>
<pdfrwt beam="2">  1       -2 0.26466366E-01 0.64577367E+03</pdfrwt>
<totfact> 0.75895917E+02</totfact>
</mgrwt>
</event>
<event>
 4    1  0.2058931E-005  0.6504141E+03  0.7818608E-02  0.9806002E-01
         -2   -1    0    0    0  501 -0.00000000000E+00  0.00000000000E+00  0.10739623016E+03  0.10739623019E+03  0.25500000000E-02 0. -1.
          2   -1    0    0  501    0  0.00000000000E+00 -0.00000000000E+00 -0.98476114495E+03  0.98476114495E+03  0.25500000000E-02 0.  1.
    5000001    1    1    2    0    0 -0.15280653882E+03  0.19530395100E+03 -0.58315142816E+03  0.66213522769E+03  0.19200000000E+03 0.  0.
   -5000001    1    1    2    0    0  0.15280653882E+03 -0.19530395100E+03 -0.29421348662E+03  0.43002214744E+03  0.19200000000E+03 0.  0.
<mgrwt>
<rscale>  0 0.65041413E+03</rscale>
<asrwt>0</asrwt>
<pdfrwt beam="1">  1        2 0.14068016E+00 0.65041413E+03</pdfrwt>
<pdfrwt beam="2">  1       -2 0.15342319E-01 0.65041413E+03</pdfrwt>
<totfact> 0.97226934E+02</totfact>
</mgrwt>
</event>
<event>
 4    1  0.2058931E-005  0.4099137E+03  0.7818608E-02  0.1040400E+00
         -2   -1    0    0    0  501 -0.00000000000E+00  0.00000000000E+00  0.22340252085E+02  0.22340252231E+02  0.25500000000E-02 0. -1.
          2   -1    0    0  501    0  0.00000000000E+00 -0.00000000000E+00 -0.18803416809E+04  0.18803416809E+04  0.25500000000E-02 0.  1.
    5000001    1    1    2    0    0 -0.19546002212E+02  0.50920489727E+02 -0.11451431063E+04  0.11624077066E+04  0.19200000000E+03 0.  0.
   -5000001    1    1    2    0    0  0.19546002212E+02 -0.50920489727E+02 -0.71285832252E+03  0.74027422653E+03  0.19200000000E+03 0.  0.
<mgrwt>
<rscale>  0 0.40991369E+03</rscale>
<asrwt>0</asrwt>
<pdfrwt beam="1">  1        2 0.26862014E+00 0.40991369E+03</pdfrwt>
<pdfrwt beam="2">  1       -2 0.31914658E-02 0.40991369E+03</pdfrwt>
<totfact> 0.38978569E+03</totfact>
</mgrwt>
</event>
<event>
 4    1  0.2058931E-005  0.6818986E+03  0.7818608E-02  0.9748699E-01
         -2   -1    0    0    0  501 -0.00000000000E+00  0.00000000000E+00  0.18083227632E+03  0.18083227633E+03  0.25500000000E-02 0. -1.
          2   -1    0    0  501    0  0.00000000000E+00 -0.00000000000E+00 -0.64284105768E+03  0.64284105769E+03  0.25500000000E-02 0.  1.
    5000001    1    1    2    0    0 -0.27239910166E+03 -0.31537041290E+02 -0.30916063759E+03  0.45567549352E+03  0.19200000000E+03 0.  0.
   -5000001    1    1    2    0    0  0.27239910166E+03  0.31537041290E+02 -0.15284814377E+03  0.36799784050E+03  0.19200000000E+03 0.  0.
<mgrwt>
<rscale>  0 0.68189856E+03</rscale>
<asrwt>0</asrwt>
<pdfrwt beam="1">  1        2 0.91834435E-01 0.68189856E+03</pdfrwt>
<pdfrwt beam="2">  1       -2 0.25833183E-01 0.68189856E+03</pdfrwt>
<totfact> 0.67707760E+02</totfact>
</mgrwt>
</event>
<event>
 4    1  0.2058931E-005  0.6952374E+03  0.7818608E-02  0.9725412E-01
         -2   -1    0    0    0  501 -0.00000000000E+00  0.00000000000E+00  0.13097645014E+03  0.13097645016E+03  0.25500000000E-02 0. -1.
          2   -1    0    0  501    0  0.00000000000E+00 -0.00000000000E+00 -0.92259913661E+03  0.92259913661E+03  0.25500000000E-02 0.  1.
    5000001    1    1    2    0    0 -0.10426821453E+03 -0.23717539343E+03 -0.19909431304E+03  0.37898096693E+03  0.19200000000E+03 0.  0.
   -5000001    1    1    2    0    0  0.10426821453E+03  0.23717539343E+03 -0.59252837343E+03  0.67459461984E+03  0.19200000000E+03 0.  0.
<mgrwt>
<rscale>  0 0.69523740E+03</rscale>
<asrwt>0</asrwt>
<pdfrwt beam="1">  1        2 0.13179987E+00 0.69523740E+03</pdfrwt>
<pdfrwt beam="2">  1       -2 0.18710922E-01 0.69523740E+03</pdfrwt>
<totfact> 0.75651465E+02</totfact>
</mgrwt>
</event>
<event>
 4    1  0.2058931E-005  0.5274326E+03  0.7818608E-02  0.1006857E+00
         -2   -1    0    0    0  501 -0.00000000000E+00  0.00000000000E+00  0.63239910155E+02  0.63239910207E+02  0.25500000000E-02 0. -1.
          2   -1    0    0  501    0  0.00000000000E+00 -0.00000000000E+00 -0.10997216028E+04  0.10997216028E+04  0.25500000000E-02 0.  1.
    5000001    1    1    2    0    0  0.11381238889E+03 -0.12270977566E+03 -0.66894297499E+03  0.71579302364E+03  0.19200000000E+03 0.  0.
   -5000001    1    1    2    0    0 -0.11381238889E+03  0.12270977566E+03 -0.36753871765E+03  0.44716848936E+03  0.19200000000E+03 0.  0.
<mgrwt>
<rscale>  0 0.52743263E+03</rscale>
<asrwt>0</asrwt>
<pdfrwt beam="1">  1        2 0.15710307E+00 0.52743263E+03</pdfrwt>
<pdfrwt beam="2">  1       -2 0.90342735E-02 0.52743263E+03</pdfrwt>
<totfact> 0.19878621E+03</totfact>
</mgrwt>
</event>
<event>
 4    1  0.2058931E-005  0.5136130E+03  0.7818608E-02  0.1010286E+00
          2   -1    0    0  501    0  0.00000000000E+00  0.00000000000E+00  0.11818329749E+04  0.11818329749E+04  0.25500000000E-02 0.  1.
         -2   -1    0    0    0  501 -0.00000000000E+00 -0.00000000000E+00 -0.55802789423E+02  0.55802789482E+02  0.25500000000E-02 0. -1.
    5000001    1    1    2    0    0 -0.12793934331E+03 -0.10449251244E+03  0.66520356862E+03  0.71179136580E+03  0.19200000000E+03 0.  0.
   -5000001    1    1    2    0    0  0.12793934331E+03  0.10449251244E+03  0.46082661688E+03  0.52584439861E+03  0.19200000000E+03 0.  0.
<mgrwt>
<rscale>  0 0.51361299E+03</rscale>
<asrwt>0</asrwt>
<pdfrwt beam="1">  1        2 0.16883328E+00 0.51361299E+03</pdfrwt>
<pdfrwt beam="2">  1       -2 0.79718272E-02 0.51361299E+03</pdfrwt>
<totfact> 0.21795956E+03</totfact>
</mgrwt>
</event>
<event>
 4    1  0.2058931E-005  0.5577466E+03  0.7818608E-02  0.9997166E-01
          2   -1    0    0  501    0  0.00000000000E+00  0.00000000000E+00  0.11224166544E+03  0.11224166547E+03  0.25500000000E-02 0.  1.
         -2   -1    0    0    0  501 -0.00000000000E+00 -0.00000000000E+00 -0.69288270778E+03  0.69288270779E+03  0.25500000000E-02 0. -1.
    5000001    1    1    2    0    0  0.11822405224E+03  0.13128748067E+03 -0.43244036573E+03  0.50505643152E+03  0.19200000000E+03 0.  0.
   -5000001    1    1    2    0    0 -0.11822405224E+03 -0.13128748067E+03 -0.14820067661E+03  0.30006794174E+03  0.19200000000E+03 0.  0.
<mgrwt>
<rscale>  0 0.55774657E+03</rscale>
<asrwt>0</asrwt>
<pdfrwt beam="1">  1        2 0.16034524E-01 0.55774657E+03</pdfrwt>
<pdfrwt beam="2">  1       -2 0.98983241E-01 0.55774657E+03</pdfrwt>
<totfact> 0.31655922E+02</totfact>
</mgrwt>
</event>
<event>
 4    1  0.2058931E-005  0.7428401E+03  0.7818608E-02  0.9646651E-01
         -2   -1    0    0    0  501 -0.00000000000E+00  0.00000000000E+00  0.61924982445E+02  0.61924982498E+02  0.25500000000E-02 0. -1.
          2   -1    0    0  501    0  0.00000000000E+00 -0.00000000000E+00 -0.22277414170E+04  0.22277414170E+04  0.25500000000E-02 0.  1.
    5000001    1    1    2    0    0  0.28222395234E+03  0.14306137435E+03 -0.98681453373E+03  0.10539373037E+04  0.19200000000E+03 0.  0.
   -5000001    1    1    2    0    0 -0.28222395234E+03 -0.14306137435E+03 -0.11790019009E+04  0.12357290959E+04  0.19200000000E+03 0.  0.
<mgrwt>
<rscale>  0 0.74284009E+03</rscale>
<asrwt>0</asrwt>
<pdfrwt beam="1">  1        2 0.31824872E+00 0.74284009E+03</pdfrwt>
<pdfrwt beam="2">  1       -2 0.88464275E-02 0.74284009E+03</pdfrwt>
<totfact> 0.52548683E+02</totfact>
</mgrwt>
</event>
<event>
 4    1  0.2058931E-005  0.4641916E+03  0.7818608E-02  0.1023573E+00
         -2   -1    0    0    0  501 -0.00000000000E+00  0.00000000000E+00  0.21205298641E+02  0.21205298794E+02  0.25500000000E-02 0. -1.
          2   -1    0    0  501    0  0.00000000000E+00 -0.00000000000E+00 -0.25403300447E+04  0.25403300447E+04  0.25500000000E-02 0.  1.
    5000001    1    1    2    0    0 -0.10094484395E+03  0.82547168198E+02 -0.12636953448E+04  0.12848322151E+04  0.19200000000E+03 0.  0.
   -5000001    1    1    2    0    0  0.10094484395E+03 -0.82547168198E+02 -0.12554294012E+04  0.12767031283E+04  0.19200000000E+03 0.  0.
<mgrwt>
<rscale>  0 0.46419159E+03</rscale>
<asrwt>0</asrwt>
<pdfrwt beam="1">  1        2 0.36290410E+00 0.46419159E+03</pdfrwt>
<pdfrwt beam="2">  1       -2 0.30293300E-02 0.46419159E+03</pdfrwt>
<totfact> 0.19682360E+03</totfact>
</mgrwt>
</event>
<event>
 4    1  0.2058931E-005  0.1079883E+04  0.7818608E-02  0.9225024E-01
         -2   -1    0    0    0  501 -0.00000000000E+00  0.00000000000E+00  0.22247619141E+03  0.22247619143E+03  0.25500000000E-02 0. -1.
          2   -1    0    0  501    0  0.00000000000E+00 -0.00000000000E+00 -0.13104183279E+04  0.13104183279E+04  0.25500000000E-02 0.  1.
    5000001    1    1    2    0    0  0.44820023264E+03 -0.23115177287E+03 -0.57084008269E+03  0.78551702123E+03  0.19200000000E+03 0.  0.
   -5000001    1    1    2    0    0 -0.44820023264E+03  0.23115177287E+03 -0.51710205383E+03  0.74737749813E+03  0.19200000000E+03 0.  0.
<mgrwt>
<rscale>  0 0.10798831E+04</rscale>
<asrwt>0</asrwt>
<pdfrwt beam="1">  1        2 0.18720261E+00 0.10798831E+04</pdfrwt>
<pdfrwt beam="2">  1       -2 0.31782314E-01 0.10798831E+04</pdfrwt>
<totfact> 0.16910522E+02</totfact>
</mgrwt>
</event>
<event>
 4    1  0.2058931E-005  0.5551423E+03  0.7818608E-02  0.1000311E+00
         -2   -1    0    0    0  501 -0.00000000000E+00  0.00000000000E+00  0.11651963003E+03  0.11651963006E+03  0.25500000000E-02 0. -1.
          2   -1    0    0  501    0  0.00000000000E+00 -0.00000000000E+00 -0.66122545350E+03  0.66122545350E+03  0.25500000000E-02 0.  1.
    5000001    1    1    2    0    0 -0.72521772152E+02 -0.18480517826E+03 -0.23349276029E+03  0.36165623243E+03  0.19200000000E+03 0.  0.
   -5000001    1    1    2    0    0  0.72521772152E+02  0.18480517826E+03 -0.31121306317E+03  0.41608885113E+03  0.19200000000E+03 0.  0.
<mgrwt>
<rscale>  0 0.55514231E+03</rscale>
<asrwt>0</asrwt>
<pdfrwt beam="1">  1        2 0.94460777E-01 0.55514231E+03</pdfrwt>
<pdfrwt beam="2">  1       -2 0.16645662E-01 0.55514231E+03</pdfrwt>
<totfact> 0.14163739E+03</totfact>
</mgrwt>
</event>
<event>
 4    1  0.2058931E-005  0.4323160E+03  0.7818608E-02  0.1033131E+00
         -2   -1    0    0    0  501 -0.00000000000E+00  0.00000000000E+00  0.15776332042E+02  0.15776332248E+02  0.25500000000E-02 0. -1.
          2   -1    0    0  501    0  0.00000000000E+00 -0.00000000000E+00 -0.29616700741E+04  0.29616700741E+04  0.25500000000E-02 0.  1.
    5000001    1    1    2    0    0  0.75992299897E+02  0.53393394013E+02 -0.12309515883E+04  0.12492923985E+04  0.19200000000E+03 0.  0.
   -5000001    1    1    2    0    0 -0.75992299897E+02 -0.53393394013E+02 -0.17149421537E+04  0.17281540078E+04  0.19200000000E+03 0.  0.
<mgrwt>
<rscale>  0 0.43231605E+03</rscale>
<asrwt>0</asrwt>
<pdfrwt beam="1">  1        2 0.42309537E+00 0.43231605E+03</pdfrwt>
<pdfrwt beam="2">  1       -2 0.22537636E-02 0.43231605E+03</pdfrwt>
<totfact> 0.18545535E+03</totfact>
</mgrwt>
</event>
<event>
 4    1  0.2058931E-005  0.5537910E+03  0.7818608E-02  0.1000620E+00
          2   -1    0    0  501    0  0.00000000000E+00  0.00000000000E+00  0.12036319411E+04  0.12036319411E+04  0.25500000000E-02 0.  1.
         -2   -1    0    0    0  501 -0.00000000000E+00 -0.00000000000E+00 -0.63699802513E+02  0.63699802564E+02  0.25500000000E-02 0. -1.
    5000001    1    1    2    0    0  0.84632206452E+01 -0.12124790269E+03  0.20787873260E+03  0.30797767367E+03  0.19200000000E+03 0.  0.
   -5000001    1    1    2    0    0 -0.84632206452E+01  0.12124790269E+03  0.93205340601E+03  0.95935407002E+03  0.19200000000E+03 0.  0.
<mgrwt>
<rscale>  0 0.55379100E+03</rscale>
<asrwt>0</asrwt>
<pdfrwt beam="1">  1        2 0.17194741E+00 0.55379100E+03</pdfrwt>
<pdfrwt beam="2">  1       -2 0.90999725E-02 0.55379100E+03</pdfrwt>
<totfact> 0.17144610E+03</totfact>
</mgrwt>
</event>
<event>
 4    1  0.2058931E-005  0.4640445E+03  0.7818608E-02  0.1023615E+00
          2   -1    0    0  501    0  0.00000000000E+00  0.00000000000E+00  0.46530081447E+03  0.46530081448E+03  0.25500000000E-02 0.  1.
         -2   -1    0    0    0  501 -0.00000000000E+00 -0.00000000000E+00 -0.11569790609E+03  0.11569790612E+03  0.25500000000E-02 0. -1.
    5000001    1    1    2    0    0  0.11125635176E+03 -0.21530469877E+02  0.25525164521E+03  0.33890845271E+03  0.19200000000E+03 0.  0.
   -5000001    1    1    2    0    0 -0.11125635176E+03  0.21530469877E+02  0.94351263173E+02  0.24209026788E+03  0.19200000000E+03 0.  0.
<mgrwt>
<rscale>  0 0.46404452E+03</rscale>
<asrwt>0</asrwt>
<pdfrwt beam="1">  1        2 0.66471545E-01 0.46404452E+03</pdfrwt>
<pdfrwt beam="2">  1       -2 0.16528272E-01 0.46404452E+03</pdfrwt>
<totfact> 0.21493721E+03</totfact>
</mgrwt>
</event>
<event>
 4    1  0.2058931E-005  0.4889377E+03  0.7818608E-02  0.1016707E+00
         -2   -1    0    0    0  501 -0.00000000000E+00  0.00000000000E+00  0.49993583682E+02  0.49993583747E+02  0.25500000000E-02 0. -1.
          2   -1    0    0  501    0  0.00000000000E+00 -0.00000000000E+00 -0.11954537180E+04  0.11954537180E+04  0.25500000000E-02 0.  1.
    5000001    1    1    2    0    0 -0.82969603032E+02 -0.12253690431E+03 -0.65335239427E+03  0.69687344550E+03  0.19200000000E+03 0.  0.
   -5000001    1    1    2    0    0  0.82969603032E+02  0.12253690431E+03 -0.49210774006E+03  0.54857385626E+03  0.19200000000E+03 0.  0.
<mgrwt>
<rscale>  0 0.48893769E+03</rscale>
<asrwt>0</asrwt>
<pdfrwt beam="1">  1        2 0.17077908E+00 0.48893769E+03</pdfrwt>
<pdfrwt beam="2">  1       -2 0.71419413E-02 0.48893769E+03</pdfrwt>
<totfact> 0.25488772E+03</totfact>
</mgrwt>
</event>
<event>
 4    1  0.2058931E-005  0.4826903E+03  0.7818608E-02  0.1018398E+00
          2   -1    0    0  501    0  0.00000000000E+00  0.00000000000E+00  0.95023566378E+03  0.95023566379E+03  0.25500000000E-02 0.  1.
         -2   -1    0    0    0  501 -0.00000000000E+00 -0.00000000000E+00 -0.61297937187E+02  0.61297937240E+02  0.25500000000E-02 0. -1.
    5000001    1    1    2    0    0  0.21506853746E+02 -0.14455928072E+03  0.43429796379E+03  0.49682859393E+03  0.19200000000E+03 0.  0.
   -5000001    1    1    2    0    0 -0.21506853746E+02  0.14455928072E+03  0.45463976281E+03  0.51470500709E+03  0.19200000000E+03 0.  0.
<mgrwt>
<rscale>  0 0.48269032E+03</rscale>
<asrwt>0</asrwt>
<pdfrwt beam="1">  1        2 0.13574794E+00 0.48269032E+03</pdfrwt>
<pdfrwt beam="2">  1       -2 0.87568487E-02 0.48269032E+03</pdfrwt>
<totfact> 0.25681661E+03</totfact>
</mgrwt>
</event>
<event>
 4    1  0.2058931E-005  0.5764436E+03  0.7818608E-02  0.9955520E-01
         -2   -1    0    0    0  501 -0.00000000000E+00  0.00000000000E+00  0.63715783501E+02  0.63715783552E+02  0.25500000000E-02 0. -1.
          2   -1    0    0  501    0  0.00000000000E+00 -0.00000000000E+00 -0.13037869940E+04  0.13037869941E+04  0.25500000000E-02 0.  1.
    5000001    1    1    2    0    0 -0.14308680785E+03 -0.14858366583E+03 -0.47657716025E+03  0.55366120508E+03  0.19200000000E+03 0.  0.
   -5000001    1    1    2    0    0  0.14308680785E+03  0.14858366583E+03 -0.76349405029E+03  0.81384157252E+03  0.19200000000E+03 0.  0.
<mgrwt>
<rscale>  0 0.57644361E+03</rscale>
<asrwt>0</asrwt>
<pdfrwt beam="1">  1        2 0.18625527E+00 0.57644361E+03</pdfrwt>
<pdfrwt beam="2">  1       -2 0.91022556E-02 0.57644361E+03</pdfrwt>
<totfact> 0.15088539E+03</totfact>
</mgrwt>
</event>
<event>
 4    1  0.2058931E-005  0.5530972E+03  0.7818608E-02  0.1000780E+00
         -2   -1    0    0    0  501 -0.00000000000E+00  0.00000000000E+00  0.56463461083E+02  0.56463461141E+02  0.25500000000E-02 0. -1.
          2   -1    0    0  501    0  0.00000000000E+00 -0.00000000000E+00 -0.13544887824E+04  0.13544887824E+04  0.25500000000E-02 0.  1.
    5000001    1    1    2    0    0 -0.12477085378E+03  0.15488513765E+03 -0.62959269856E+03  0.68761045505E+03  0.19200000000E+03 0.  0.
   -5000001    1    1    2    0    0  0.12477085378E+03 -0.15488513765E+03 -0.66843262279E+03  0.72334178853E+03  0.19200000000E+03 0.  0.
<mgrwt>
<rscale>  0 0.55309719E+03</rscale>
<asrwt>0</asrwt>
<pdfrwt beam="1">  1        2 0.19349838E+00 0.55309719E+03</pdfrwt>
<pdfrwt beam="2">  1       -2 0.80662095E-02 0.55309719E+03</pdfrwt>
<totfact> 0.17200281E+03</totfact>
</mgrwt>
</event>
<event>
 4    1  0.2058931E-005  0.6764496E+03  0.7818608E-02  0.9758376E-01
         -2   -1    0    0    0  501 -0.00000000000E+00  0.00000000000E+00  0.45216024364E+03  0.45216024365E+03  0.25500000000E-02 0. -1.
          2   -1    0    0  501    0  0.00000000000E+00 -0.00000000000E+00 -0.25299882775E+03  0.25299882776E+03  0.25500000000E-02 0.  1.
    5000001    1    1    2    0    0  0.77032700434E+02 -0.26721942980E+03  0.85145585063E+02  0.34850255559E+03  0.19200000000E+03 0.  0.
   -5000001    1    1    2    0    0 -0.77032700434E+02  0.26721942980E+03  0.11401583083E+03  0.35665651582E+03  0.19200000000E+03 0.  0.
<mgrwt>
<rscale>  0 0.67644959E+03</rscale>
<asrwt>0</asrwt>
<pdfrwt beam="1">  1        2 0.36142690E-01 0.67644959E+03</pdfrwt>
<pdfrwt beam="2">  1       -2 0.64594320E-01 0.67644959E+03</pdfrwt>
<totfact> 0.32219826E+02</totfact>
</mgrwt>
</event>
<event>
 4    1  0.2058931E-005  0.4646130E+03  0.7818608E-02  0.1023452E+00
         -2   -1    0    0    0  501 -0.00000000000E+00  0.00000000000E+00  0.17103379534E+03  0.17103379536E+03  0.25500000000E-02 0. -1.
          2   -1    0    0  501    0  0.00000000000E+00 -0.00000000000E+00 -0.31553012888E+03  0.31553012889E+03  0.25500000000E-02 0.  1.
    5000001    1    1    2    0    0  0.10258005621E+03  0.79374542397E+02 -0.54745388511E+02  0.23808411009E+03  0.19200000000E+03 0.  0.
   -5000001    1    1    2    0    0 -0.10258005621E+03 -0.79374542397E+02 -0.89750945027E+02  0.24847981416E+03  0.19200000000E+03 0.  0.
<mgrwt>
<rscale>  0 0.46461302E+03</rscale>
<asrwt>0</asrwt>
<pdfrwt beam="1">  1        2 0.45075733E-01 0.46461302E+03</pdfrwt>
<pdfrwt beam="2">  1       -2 0.24433399E-01 0.46461302E+03</pdfrwt>
<totfact> 0.16746411E+03</totfact>
</mgrwt>
</event>
<event>
 4    1  0.2058931E-005  0.6932437E+03  0.7818608E-02  0.9728857E-01
         -2   -1    0    0    0  501 -0.00000000000E+00  0.00000000000E+00  0.13000992213E+03  0.13000992215E+03  0.25500000000E-02 0. -1.
          2   -1    0    0  501    0  0.00000000000E+00 -0.00000000000E+00 -0.92413496482E+03  0.92413496482E+03  0.25500000000E-02 0.  1.
    5000001    1    1    2    0    0  0.19040758910E+03  0.20316543648E+03 -0.51238229993E+03  0.61394695687E+03  0.19200000000E+03 0.  0.
   -5000001    1    1    2    0    0 -0.19040758910E+03 -0.20316543648E+03 -0.28174274277E+03  0.44019793011E+03  0.19200000000E+03 0.  0.
<mgrwt>
<rscale>  0 0.69324372E+03</rscale>
<asrwt>0</asrwt>
<pdfrwt beam="1">  1        2 0.13201928E+00 0.69324372E+03</pdfrwt>
<pdfrwt beam="2">  1       -2 0.18572847E-01 0.69324372E+03</pdfrwt>
<totfact> 0.76458748E+02</totfact>
</mgrwt>
</event>
<event>
 4    1  0.2058931E-005  0.6482674E+03  0.7818608E-02  0.9810036E-01
         -2   -1    0    0    0  501 -0.00000000000E+00  0.00000000000E+00  0.85121517526E+03  0.85121517527E+03  0.25500000000E-02 0. -1.
          2   -1    0    0  501    0  0.00000000000E+00 -0.00000000000E+00 -0.12342668271E+03  0.12342668274E+03  0.25500000000E-02 0.  1.
    5000001    1    1    2    0    0  0.21806815308E+03  0.14250205142E+03  0.33624898380E+03  0.46667754729E+03  0.19200000000E+03 0.  0.
   -5000001    1    1    2    0    0 -0.21806815308E+03 -0.14250205142E+03  0.39153950876E+03  0.50796431072E+03  0.19200000000E+03 0.  0.
<mgrwt>
<rscale>  0 0.64826743E+03</rscale>
<asrwt>0</asrwt>
<pdfrwt beam="1">  1        2 0.17632383E-01 0.64826743E+03</pdfrwt>
<pdfrwt beam="2">  1       -2 0.12160217E+00 0.64826743E+03</pdfrwt>
<totfact> 0.17161156E+02</totfact>
</mgrwt>
</event>
<event>
 4    1  0.2058931E-005  0.4280567E+03  0.7818608E-02  0.1034476E+00
         -2   -1    0    0    0  501 -0.00000000000E+00  0.00000000000E+00  0.20299067710E+02  0.20299067870E+02  0.25500000000E-02 0. -1.
          2   -1    0    0  501    0  0.00000000000E+00 -0.00000000000E+00 -0.22566617888E+04  0.22566617888E+04  0.25500000000E-02 0.  1.
    5000001    1    1    2    0    0 -0.84064550196E+02 -0.32314511978E+02 -0.96465217267E+03  0.98768866072E+03  0.19200000000E+03 0.  0.
   -5000001    1    1    2    0    0  0.84064550196E+02  0.32314511978E+02 -0.12717105485E+04  0.12892721960E+04  0.19200000000E+03 0.  0.
<mgrwt>
<rscale>  0 0.42805668E+03</rscale>
<asrwt>0</asrwt>
<pdfrwt beam="1">  1        2 0.32238010E+00 0.42805668E+03</pdfrwt>
<pdfrwt beam="2">  1       -2 0.28998683E-02 0.42805668E+03</pdfrwt>
<totfact> 0.29278712E+03</totfact>
</mgrwt>
</event>
<event>
 4    1  0.2058931E-005  0.5034545E+03  0.7818608E-02  0.1012881E+00
          2   -1    0    0  501    0  0.00000000000E+00  0.00000000000E+00  0.76417280954E+03  0.76417280954E+03  0.25500000000E-02 0.  1.
         -2   -1    0    0    0  501 -0.00000000000E+00 -0.00000000000E+00 -0.82921842689E+02  0.82921842729E+02  0.25500000000E-02 0. -1.
    5000001    1    1    2    0    0 -0.14017844562E+03  0.78819008381E+02  0.29805345259E+03  0.38931002209E+03  0.19200000000E+03 0.  0.
   -5000001    1    1    2    0    0  0.14017844562E+03 -0.78819008381E+02  0.38319751425E+03  0.45778463018E+03  0.19200000000E+03 0.  0.
<mgrwt>
<rscale>  0 0.50345454E+03</rscale>
<asrwt>0</asrwt>
<pdfrwt beam="1">  1        2 0.10916753E+00 0.50345454E+03</pdfrwt>
<pdfrwt beam="2">  1       -2 0.11845979E-01 0.50345454E+03</pdfrwt>
<totfact> 0.20924370E+03</totfact>
</mgrwt>
</event>
<event>
 4    1  0.2058931E-005  0.5533838E+03  0.7818608E-02  0.1000714E+00
          2   -1    0    0  501    0  0.00000000000E+00  0.00000000000E+00  0.77479151132E+02  0.77479151174E+02  0.25500000000E-02 0.  1.
         -2   -1    0    0    0  501 -0.00000000000E+00 -0.00000000000E+00 -0.98811632948E+03  0.98811632948E+03  0.25500000000E-02 0. -1.
    5000001    1    1    2    0    0 -0.11519700745E+03 -0.16238461592E+03 -0.46963816629E+03  0.54503497250E+03  0.19200000000E+03 0.  0.
   -5000001    1    1    2    0    0  0.11519700745E+03  0.16238461592E+03 -0.44099901206E+03  0.52056050816E+03  0.19200000000E+03 0.  0.
<mgrwt>
<rscale>  0 0.55338383E+03</rscale>
<asrwt>0</asrwt>
<pdfrwt beam="1">  1        2 0.11068451E-01 0.55338383E+03</pdfrwt>
<pdfrwt beam="2">  1       -2 0.14115947E+00 0.55338383E+03</pdfrwt>
<totfact> 0.20866452E+02</totfact>
</mgrwt>
</event>
<event>
 4    1  0.2058931E-005  0.8188171E+03  0.7818608E-02  0.9533172E-01
         -2   -1    0    0    0  501 -0.00000000000E+00  0.00000000000E+00  0.31937564884E+03  0.31937564885E+03  0.25500000000E-02 0. -1.
          2   -1    0    0  501    0  0.00000000000E+00 -0.00000000000E+00 -0.52482204212E+03  0.52482204212E+03  0.25500000000E-02 0.  1.
    5000001    1    1    2    0    0 -0.99094432444E+02  0.33939960018E+03 -0.24614843640E+02  0.40309017065E+03  0.19200000000E+03 0.  0.
   -5000001    1    1    2    0    0  0.99094432444E+02 -0.33939960018E+03 -0.18083154964E+03  0.44110752033E+03  0.19200000000E+03 0.  0.
<mgrwt>
<rscale>  0 0.81881715E+03</rscale>
<asrwt>0</asrwt>
<pdfrwt beam="1">  1        2 0.74974577E-01 0.81881715E+03</pdfrwt>
<pdfrwt beam="2">  1       -2 0.45625093E-01 0.81881715E+03</pdfrwt>
<totfact> 0.29072232E+02</totfact>
</mgrwt>
</event>
<event>
 4    1  0.2058931E-005  0.5469168E+03  0.7818608E-02  0.1002210E+00
          2   -1    0    0  501    0  0.00000000000E+00  0.00000000000E+00  0.11262055492E+03  0.11262055495E+03  0.25500000000E-02 0.  1.
         -2   -1    0    0    0  501 -0.00000000000E+00 -0.00000000000E+00 -0.66399503066E+03  0.66399503067E+03  0.25500000000E-02 0. -1.
    5000001    1    1    2    0    0  0.11259291690E+02 -0.88895754763E+02 -0.52116980696E+03  0.56259327631E+03  0.19200000000E+03 0.  0.
   -5000001    1    1    2    0    0 -0.11259291690E+02  0.88895754763E+02 -0.30204668776E+02  0.21402230930E+03  0.19200000000E+03 0.  0.
<mgrwt>
<rscale>  0 0.54691677E+03</rscale>
<asrwt>0</asrwt>
<pdfrwt beam="1">  1        2 0.16088651E-01 0.54691677E+03</pdfrwt>
<pdfrwt beam="2">  1       -2 0.94856431E-01 0.54691677E+03</pdfrwt>
<totfact> 0.34830401E+02</totfact>
</mgrwt>
</event>
<event>
 4    1  0.2058931E-005  0.5197298E+03  0.7818608E-02  0.1008754E+00
         -2   -1    0    0    0  501 -0.00000000000E+00  0.00000000000E+00  0.72849525866E+02  0.72849525910E+02  0.25500000000E-02 0. -1.
          2   -1    0    0  501    0  0.00000000000E+00 -0.00000000000E+00 -0.92697616224E+03  0.92697616225E+03  0.25500000000E-02 0.  1.
    5000001    1    1    2    0    0 -0.17144821265E+03  0.23906374245E+02 -0.37617428770E+03  0.45643958974E+03  0.19200000000E+03 0.  0.
   -5000001    1    1    2    0    0  0.17144821265E+03 -0.23906374245E+02 -0.47795234868E+03  0.54338609842E+03  0.19200000000E+03 0.  0.
<mgrwt>
<rscale>  0 0.51972983E+03</rscale>
<asrwt>0</asrwt>
<pdfrwt beam="1">  1        2 0.13242516E+00 0.51972983E+03</pdfrwt>
<pdfrwt beam="2">  1       -2 0.10407076E-01 0.51972983E+03</pdfrwt>
<totfact> 0.20117761E+03</totfact>
</mgrwt>
</event>
<event>
 4    1  0.2058931E-005  0.6254910E+03  0.7818608E-02  0.9853887E-01
         -2   -1    0    0    0  501 -0.00000000000E+00  0.00000000000E+00  0.44748573746E+02  0.44748573819E+02  0.25500000000E-02 0. -1.
          2   -1    0    0  501    0  0.00000000000E+00 -0.00000000000E+00 -0.21857626352E+04  0.21857626352E+04  0.25500000000E-02 0.  1.
    5000001    1    1    2    0    0  0.20863363102E+03 -0.91779000734E+02 -0.14087034609E+04  0.14398822236E+04  0.19200000000E+03 0.  0.
   -5000001    1    1    2    0    0 -0.20863363102E+03  0.91779000734E+02 -0.73231060054E+03  0.79062898545E+03  0.19200000000E+03 0.  0.
<mgrwt>
<rscale>  0 0.62549104E+03</rscale>
<asrwt>0</asrwt>
<pdfrwt beam="1">  1        2 0.31225174E+00 0.62549104E+03</pdfrwt>
<pdfrwt beam="2">  1       -2 0.63926548E-02 0.62549104E+03</pdfrwt>
<totfact> 0.93286344E+02</totfact>
</mgrwt>
</event>
<event>
 4    1  0.2058931E-005  0.4544465E+03  0.7818608E-02  0.1026404E+00
          2   -1    0    0  501    0  0.00000000000E+00  0.00000000000E+00  0.18235151710E+04  0.18235151710E+04  0.25500000000E-02 0.  1.
         -2   -1    0    0    0  501 -0.00000000000E+00 -0.00000000000E+00 -0.28313671702E+02  0.28313671817E+02  0.25500000000E-02 0. -1.
    5000001    1    1    2    0    0 -0.51422742190E+02 -0.83218992278E+02  0.11913537699E+04  0.12106847254E+04  0.19200000000E+03 0.  0.
   -5000001    1    1    2    0    0  0.51422742190E+02  0.83218992278E+02  0.60384772934E+03  0.64114411744E+03  0.19200000000E+03 0.  0.
<mgrwt>
<rscale>  0 0.45444652E+03</rscale>
<asrwt>0</asrwt>
<pdfrwt beam="1">  1        2 0.26050224E+00 0.45444652E+03</pdfrwt>
<pdfrwt beam="2">  1       -2 0.40448092E-02 0.45444652E+03</pdfrwt>
<totfact> 0.29011441E+03</totfact>
</mgrwt>
</event>
<event>
 4    1  0.2058931E-005  0.5298920E+03  0.7818608E-02  0.1006258E+00
         -2   -1    0    0    0  501 -0.00000000000E+00  0.00000000000E+00  0.55878305078E+02  0.55878305137E+02  0.25500000000E-02 0. -1.
          2   -1    0    0  501    0  0.00000000000E+00 -0.00000000000E+00 -0.12562367250E+04  0.12562367250E+04  0.25500000000E-02 0.  1.
    5000001    1    1    2    0    0  0.40542142929E+02  0.17675352045E+03 -0.54783206809E+03  0.60816892980E+03  0.19200000000E+03 0.  0.
   -5000001    1    1    2    0    0 -0.40542142929E+02 -0.17675352045E+03 -0.65252635181E+03  0.70394610032E+03  0.19200000000E+03 0.  0.
<mgrwt>
<rscale>  0 0.52989199E+03</rscale>
<asrwt>0</asrwt>
<pdfrwt beam="1">  1        2 0.17946237E+00 0.52989199E+03</pdfrwt>
<pdfrwt beam="2">  1       -2 0.79826158E-02 0.52989199E+03</pdfrwt>
<totfact> 0.19774805E+03</totfact>
</mgrwt>
</event>
<event>
 4    1  0.2058931E-005  0.7496910E+03  0.7818608E-02  0.9635835E-01
          2   -1    0    0  501    0  0.00000000000E+00  0.00000000000E+00  0.23363378095E+04  0.23363378095E+04  0.25500000000E-02 0.  1.
         -2   -1    0    0    0  501 -0.00000000000E+00 -0.00000000000E+00 -0.60140768415E+02  0.60140768469E+02  0.25500000000E-02 0. -1.
    5000001    1    1    2    0    0 -0.19516582340E+03 -0.25576301925E+03  0.11760200175E+04  0.12342574700E+04  0.19200000000E+03 0.  0.
   -5000001    1    1    2    0    0  0.19516582340E+03  0.25576301925E+03  0.11001770236E+04  0.11622211080E+04  0.19200000000E+03 0.  0.
<mgrwt>
<rscale>  0 0.74969101E+03</rscale>
<asrwt>0</asrwt>
<pdfrwt beam="1">  1        2 0.33376252E+00 0.74969101E+03</pdfrwt>
<pdfrwt beam="2">  1       -2 0.85915389E-02 0.74969101E+03</pdfrwt>
<totfact> 0.48472969E+02</totfact>
</mgrwt>
</event>
<event>
 4    1  0.2058931E-005  0.6946468E+03  0.7818608E-02  0.9726431E-01
          2   -1    0    0  501    0  0.00000000000E+00  0.00000000000E+00  0.79251568328E+03  0.79251568329E+03  0.25500000000E-02 0.  1.
         -2   -1    0    0    0  501 -0.00000000000E+00 -0.00000000000E+00 -0.15221599044E+03  0.15221599046E+03  0.25500000000E-02 0. -1.
    5000001    1    1    2    0    0  0.61607925221E+02 -0.26508833945E+03  0.18618852587E+03  0.38157244571E+03  0.19200000000E+03 0.  0.
   -5000001    1    1    2    0    0 -0.61607925221E+02  0.26508833945E+03  0.45411116697E+03  0.56315922804E+03  0.19200000000E+03 0.  0.
<mgrwt>
<rscale>  0 0.69464684E+03</rscale>
<asrwt>0</asrwt>
<pdfrwt beam="1">  1        2 0.11321653E+00 0.69464684E+03</pdfrwt>
<pdfrwt beam="2">  1       -2 0.21745141E-01 0.69464684E+03</pdfrwt>
<totfact> 0.71065388E+02</totfact>
</mgrwt>
</event>
<event>
 4    1  0.2058931E-005  0.7577108E+03  0.7818608E-02  0.9623330E-01
          2   -1    0    0  501    0  0.00000000000E+00  0.00000000000E+00  0.10071457045E+04  0.10071457046E+04  0.25500000000E-02 0.  1.
         -2   -1    0    0    0  501 -0.00000000000E+00 -0.00000000000E+00 -0.14251303928E+03  0.14251303930E+03  0.25500000000E-02 0. -1.
    5000001    1    1    2    0    0  0.73464752817E+02  0.16451399422E+03  0.18999149317E+02  0.26398274920E+03  0.19200000000E+03 0.  0.
   -5000001    1    1    2    0    0 -0.73464752817E+02 -0.16451399422E+03  0.84563351596E+03  0.88567599465E+03  0.19200000000E+03 0.  0.
<mgrwt>
<rscale>  0 0.75771075E+03</rscale>
<asrwt>0</asrwt>
<pdfrwt beam="1">  1        2 0.14387796E+00 0.75771075E+03</pdfrwt>
<pdfrwt beam="2">  1       -2 0.20359006E-01 0.75771075E+03</pdfrwt>
<totfact> 0.57696018E+02</totfact>
</mgrwt>
</event>
<event>
 4    1  0.2058931E-005  0.4371279E+03  0.7818608E-02  0.1031632E+00
         -2   -1    0    0    0  501 -0.00000000000E+00  0.00000000000E+00  0.71865480897E+02  0.71865480943E+02  0.25500000000E-02 0. -1.
          2   -1    0    0  501    0  0.00000000000E+00 -0.00000000000E+00 -0.66471698062E+03  0.66471698062E+03  0.25500000000E-02 0.  1.
    5000001    1    1    2    0    0 -0.63977708595E+02  0.71251656695E+02 -0.22621232338E+03  0.31177870522E+03  0.19200000000E+03 0.  0.
   -5000001    1    1    2    0    0  0.63977708595E+02 -0.71251656695E+02 -0.36663917633E+03  0.42480375634E+03  0.19200000000E+03 0.  0.
<mgrwt>
<rscale>  0 0.43712792E+03</rscale>
<asrwt>0</asrwt>
<pdfrwt beam="1">  1        2 0.94959565E-01 0.43712792E+03</pdfrwt>
<pdfrwt beam="2">  1       -2 0.10266498E-01 0.43712792E+03</pdfrwt>
<totfact> 0.31267166E+03</totfact>
</mgrwt>
</event>
<event>
 4    1  0.2058931E-005  0.5615900E+03  0.7818608E-02  0.9988463E-01
         -2   -1    0    0    0  501 -0.00000000000E+00  0.00000000000E+00  0.14781875897E+03  0.14781875899E+03  0.25500000000E-02 0. -1.
          2   -1    0    0  501    0  0.00000000000E+00 -0.00000000000E+00 -0.53339523279E+03  0.53339523280E+03  0.25500000000E-02 0.  1.
    5000001    1    1    2    0    0 -0.87334950058E+02 -0.17335773576E+03 -0.11323179282E+03  0.29557695606E+03  0.19200000000E+03 0.  0.
   -5000001    1    1    2    0    0  0.87334950058E+02  0.17335773576E+03 -0.27234468100E+03  0.38563703572E+03  0.19200000000E+03 0.  0.
<mgrwt>
<rscale>  0 0.56158996E+03</rscale>
<asrwt>0</asrwt>
<pdfrwt beam="1">  1        2 0.76199317E-01 0.56158996E+03</pdfrwt>
<pdfrwt beam="2">  1       -2 0.21116966E-01 0.56158996E+03</pdfrwt>
<totfact> 0.12086282E+03</totfact>
</mgrwt>
</event>
<event>
 4    1  0.2058931E-005  0.6031991E+03  0.7818608E-02  0.9898791E-01
         -2   -1    0    0    0  501 -0.00000000000E+00  0.00000000000E+00  0.21129069237E+03  0.21129069238E+03  0.25500000000E-02 0. -1.
          2   -1    0    0  501    0  0.00000000000E+00 -0.00000000000E+00 -0.43050778972E+03  0.43050778972E+03  0.25500000000E-02 0.  1.
    5000001    1    1    2    0    0 -0.21979721279E+02 -0.20504459245E+03  0.48478980778E+01  0.28180471103E+03  0.19200000000E+03 0.  0.
   -5000001    1    1    2    0    0  0.21979721279E+02  0.20504459245E+03 -0.22406499543E+03  0.35999377108E+03  0.19200000000E+03 0.  0.
<mgrwt>
<rscale>  0 0.60319910E+03</rscale>
<asrwt>0</asrwt>
<pdfrwt beam="1">  1        2 0.61501112E-01 0.60319910E+03</pdfrwt>
<pdfrwt beam="2">  1       -2 0.30184385E-01 0.60319910E+03</pdfrwt>
<totfact> 0.80983036E+02</totfact>
</mgrwt>
</event>
<event>
 4    1  0.2058931E-005  0.5223396E+03  0.7818608E-02  0.1008107E+00
          2   -1    0    0  501    0  0.00000000000E+00  0.00000000000E+00  0.14407510602E+03  0.14407510604E+03  0.25500000000E-02 0.  1.
         -2   -1    0    0    0  501 -0.00000000000E+00 -0.00000000000E+00 -0.47343125239E+03  0.47343125239E+03  0.25500000000E-02 0. -1.
    5000001    1    1    2    0    0  0.10846009279E+02  0.16688871125E+03 -0.23336930443E+03  0.34539066304E+03  0.19200000000E+03 0.  0.
   -5000001    1    1    2    0    0 -0.10846009279E+02 -0.16688871125E+03 -0.95986841932E+02  0.27211569540E+03  0.19200000000E+03 0.  0.
<mgrwt>
<rscale>  0 0.52233957E+03</rscale>
<asrwt>0</asrwt>
<pdfrwt beam="1">  1        2 0.20582158E-01 0.52233957E+03</pdfrwt>
<pdfrwt beam="2">  1       -2 0.67633035E-01 0.52233957E+03</pdfrwt>
<totfact> 0.55473843E+02</totfact>
</mgrwt>
</event>
<event>
 4    1  0.2058931E-005  0.7436771E+03  0.7818608E-02  0.9645323E-01
         -2   -1    0    0    0  501 -0.00000000000E+00  0.00000000000E+00  0.12467225880E+03  0.12467225883E+03  0.25500000000E-02 0. -1.
          2   -1    0    0  501    0  0.00000000000E+00 -0.00000000000E+00 -0.11090189793E+04  0.11090189793E+04  0.25500000000E-02 0.  1.
    5000001    1    1    2    0    0 -0.10996340217E+03  0.24255356807E+03 -0.20257302878E+03  0.38577715742E+03  0.19200000000E+03 0.  0.
   -5000001    1    1    2    0    0  0.10996340217E+03 -0.24255356807E+03 -0.78177369167E+03  0.84791408066E+03  0.19200000000E+03 0.  0.
<mgrwt>
<rscale>  0 0.74367708E+03</rscale>
<asrwt>0</asrwt>
<pdfrwt beam="1">  1        2 0.15843128E+00 0.74367708E+03</pdfrwt>
<pdfrwt beam="2">  1       -2 0.17810323E-01 0.74367708E+03</pdfrwt>
<totfact> 0.63310176E+02</totfact>
</mgrwt>
</event>
<event>
 4    1  0.2058931E-005  0.9282263E+03  0.7818608E-02  0.9390969E-01
          2   -1    0    0  501    0  0.00000000000E+00  0.00000000000E+00  0.10120374847E+04  0.10120374847E+04  0.25500000000E-02 0.  1.
         -2   -1    0    0    0  501 -0.00000000000E+00 -0.00000000000E+00 -0.21283897929E+03  0.21283897931E+03  0.25500000000E-02 0. -1.
    5000001    1    1    2    0    0 -0.31639408378E+03 -0.20009364343E+03  0.65816561801E+03  0.78114573745E+03  0.19200000000E+03 0.  0.
   -5000001    1    1    2    0    0  0.31639408378E+03  0.20009364343E+03  0.14103288743E+03  0.44373072660E+03  0.19200000000E+03 0.  0.
<mgrwt>
<rscale>  0 0.92822632E+03</rscale>
<asrwt>0</asrwt>
<pdfrwt beam="1">  1        2 0.14457678E+00 0.92822632E+03</pdfrwt>
<pdfrwt beam="2">  1       -2 0.30405569E-01 0.92822632E+03</pdfrwt>
<totfact> 0.27568462E+02</totfact>
</mgrwt>
</event>
<event>
 4    1  0.2058931E-005  0.5707982E+03  0.7818608E-02  0.9967914E-01
         -2   -1    0    0    0  501 -0.00000000000E+00  0.00000000000E+00  0.11253857866E+03  0.11253857869E+03  0.25500000000E-02 0. -1.
          2   -1    0    0  501    0  0.00000000000E+00 -0.00000000000E+00 -0.72377527199E+03  0.72377527200E+03  0.25500000000E-02 0.  1.
    5000001    1    1    2    0    0 -0.14957273936E+03  0.46778393704E+02 -0.98265485374E+02  0.26660894226E+03  0.19200000000E+03 0.  0.
   -5000001    1    1    2    0    0  0.14957273936E+03 -0.46778393704E+02 -0.51297120796E+03  0.56970490842E+03  0.19200000000E+03 0.  0.
<mgrwt>
<rscale>  0 0.57079818E+03</rscale>
<asrwt>0</asrwt>
<pdfrwt beam="1">  1        2 0.10339646E+00 0.57079818E+03</pdfrwt>
<pdfrwt beam="2">  1       -2 0.16076940E-01 0.57079818E+03</pdfrwt>
<totfact> 0.13457604E+03</totfact>
</mgrwt>
</event>
<event>
 4    1  0.2058931E-005  0.8871404E+03  0.7818608E-02  0.9441801E-01
         -2   -1    0    0    0  501 -0.00000000000E+00  0.00000000000E+00  0.23498456167E+03  0.23498456168E+03  0.25500000000E-02 0. -1.
          2   -1    0    0  501    0  0.00000000000E+00 -0.00000000000E+00 -0.83730828719E+03  0.83730828720E+03  0.25500000000E-02 0.  1.
    5000001    1    1    2    0    0  0.16745408668E+03  0.33684685607E+03 -0.46504687280E+03  0.62820320716E+03  0.19200000000E+03 0.  0.
   -5000001    1    1    2    0    0 -0.16745408668E+03 -0.33684685607E+03 -0.13727685272E+03  0.44408964172E+03  0.19200000000E+03 0.  0.
<mgrwt>
<rscale>  0 0.88714040E+03</rscale>
<asrwt>0</asrwt>
<pdfrwt beam="1">  1        2 0.11961547E+00 0.88714040E+03</pdfrwt>
<pdfrwt beam="2">  1       -2 0.33569224E-01 0.88714040E+03</pdfrwt>
<totfact> 0.29731286E+02</totfact>
</mgrwt>
</event>
<event>
 4    1  0.2058931E-005  0.7947733E+03  0.7818608E-02  0.9567613E-01
         -2   -1    0    0    0  501 -0.00000000000E+00  0.00000000000E+00  0.15400897237E+03  0.15400897239E+03  0.25500000000E-02 0.  1.
          2   -1    0    0  501    0  0.00000000000E+00 -0.00000000000E+00 -0.10253698629E+04  0.10253698629E+04  0.25500000000E-02 0. -1.
    5000001    1    1    2    0    0  0.73158469028E+02  0.33847640491E+03 -0.48564512088E+03  0.62660483696E+03  0.19200000000E+03 0.  0.
   -5000001    1    1    2    0    0 -0.73158469028E+02 -0.33847640491E+03 -0.38571576963E+03  0.55277399831E+03  0.19200000000E+03 0.  0.
<mgrwt>
<rscale>  0 0.79477332E+03</rscale>
<asrwt>0</asrwt>
<pdfrwt beam="1">  1        2 0.14648140E+00 0.79477332E+03</pdfrwt>
<pdfrwt beam="2">  1       -2 0.22001282E-01 0.79477332E+03</pdfrwt>
<totfact> 0.48980259E+02</totfact>
</mgrwt>
</event>
<event>
 4    1  0.2058931E-005  0.5954593E+03  0.7818608E-02  0.9914872E-01
          2   -1    0    0  501    0  0.00000000000E+00  0.00000000000E+00  0.92315067899E+03  0.92315067899E+03  0.25500000000E-02 0.  1.
         -2   -1    0    0    0  501 -0.00000000000E+00 -0.00000000000E+00 -0.96022188652E+02  0.96022188685E+02  0.25500000000E-02 0. -1.
    5000001    1    1    2    0    0 -0.18460335706E+03  0.10036440894E+03  0.26408260473E+03  0.38827185855E+03  0.19200000000E+03 0.  0.
   -5000001    1    1    2    0    0  0.18460335706E+03 -0.10036440894E+03  0.56304588561E+03  0.63090100913E+03  0.19200000000E+03 0.  0.
<mgrwt>
<rscale>  0 0.59545931E+03</rscale>
<asrwt>0</asrwt>
<pdfrwt beam="1">  1        2 0.13187866E+00 0.59545931E+03</pdfrwt>
<pdfrwt beam="2">  1       -2 0.13717456E-01 0.59545931E+03</pdfrwt>
<totfact> 0.12838517E+03</totfact>
</mgrwt>
</event>
<event>
 4    1  0.2058931E-005  0.8920130E+03  0.7818608E-02  0.9435621E-01
         -2   -1    0    0    0  501 -0.00000000000E+00  0.00000000000E+00  0.15847248781E+03  0.15847248783E+03  0.25500000000E-02 0. -1.
          2   -1    0    0  501    0  0.00000000000E+00 -0.00000000000E+00 -0.12552450429E+04  0.12552450429E+04  0.25500000000E-02 0.  1.
    5000001    1    1    2    0    0  0.23837498125E+03  0.18108924844E+03 -0.12182027380E+03  0.37592569305E+03  0.19200000000E+03 0.  0.
   -5000001    1    1    2    0    0 -0.23837498125E+03 -0.18108924844E+03 -0.97495228130E+03  0.10377918377E+04  0.19200000000E+03 0.  0.
<mgrwt>
<rscale>  0 0.89201302E+03</rscale>
<asrwt>0</asrwt>
<pdfrwt beam="1">  1        2 0.17932071E+00 0.89201302E+03</pdfrwt>
<pdfrwt beam="2">  1       -2 0.22638928E-01 0.89201302E+03</pdfrwt>
<totfact> 0.34094351E+02</totfact>
</mgrwt>
</event>
<event>
 4    1  0.2058931E-005  0.4393604E+03  0.7818608E-02  0.1030943E+00
         -2   -1    0    0    0  501 -0.00000000000E+00  0.00000000000E+00  0.36785243410E+02  0.36785243498E+02  0.25500000000E-02 0. -1.
          2   -1    0    0  501    0  0.00000000000E+00 -0.00000000000E+00 -0.13119227635E+04  0.13119227635E+04  0.25500000000E-02 0.  1.
    5000001    1    1    2    0    0  0.44692724232E+02 -0.90824097961E+02 -0.74161970268E+03  0.77272908563E+03  0.19200000000E+03 0.  0.
   -5000001    1    1    2    0    0 -0.44692724232E+02  0.90824097961E+02 -0.53351781737E+03  0.57597892133E+03  0.19200000000E+03 0.  0.
<mgrwt>
<rscale>  0 0.43936044E+03</rscale>
<asrwt>0</asrwt>
<pdfrwt beam="1">  1        2 0.18741751E+00 0.43936044E+03</pdfrwt>
<pdfrwt beam="2">  1       -2 0.52550356E-02 0.43936044E+03</pdfrwt>
<totfact> 0.35518485E+03</totfact>
</mgrwt>
</event>
<event>
 4    1  0.2058931E-005  0.9562899E+03  0.7818608E-02  0.9357829E-01
          2   -1    0    0  501    0  0.00000000000E+00  0.00000000000E+00  0.17110201671E+04  0.17110201671E+04  0.25500000000E-02 0.  1.
         -2   -1    0    0    0  501 -0.00000000000E+00 -0.00000000000E+00 -0.13361769528E+03  0.13361769530E+03  0.25500000000E-02 0. -1.
    5000001    1    1    2    0    0 -0.17596532129E+02  0.43534081826E+03  0.87338435247E+03  0.99473388055E+03  0.19200000000E+03 0.  0.
   -5000001    1    1    2    0    0  0.17596532129E+02 -0.43534081826E+03  0.70401811934E+03  0.84990398183E+03  0.19200000000E+03 0.  0.
<mgrwt>
<rscale>  0 0.95628985E+03</rscale>
<asrwt>0</asrwt>
<pdfrwt beam="1">  1        2 0.24443143E+00 0.95628985E+03</pdfrwt>
<pdfrwt beam="2">  1       -2 0.19088244E-01 0.95628985E+03</pdfrwt>
<totfact> 0.26248975E+02</totfact>
</mgrwt>
</event>
<event>
 4    1  0.2058931E-005  0.1121174E+04  0.7818608E-02  0.9184796E-01
         -2   -1    0    0    0  501 -0.00000000000E+00  0.00000000000E+00  0.81884904005E+03  0.81884904005E+03  0.25500000000E-02 0. -1.
          2   -1    0    0  501    0  0.00000000000E+00 -0.00000000000E+00 -0.38377992164E+03  0.38377992165E+03  0.25500000000E-02 0.  1.
    5000001    1    1    2    0    0  0.46218091815E+03 -0.17986380476E+03  0.27364529324E+02  0.53251761175E+03  0.19200000000E+03 0.  0.
   -5000001    1    1    2    0    0 -0.46218091815E+03  0.17986380476E+03  0.40770458908E+03  0.67011134994E+03  0.19200000000E+03 0.  0.
<mgrwt>
<rscale>  0 0.11211741E+04</rscale>
<asrwt>0</asrwt>
<pdfrwt beam="1">  1        2 0.54825704E-01 0.11211741E+04</pdfrwt>
<pdfrwt beam="2">  1       -2 0.11697843E+00 0.11211741E+04</pdfrwt>
<totfact> 0.50830615E+01</totfact>
</mgrwt>
</event>
<event>
 4    1  0.2058931E-005  0.8900281E+03  0.7818608E-02  0.9438133E-01
         -2   -1    0    0    0  501 -0.00000000000E+00  0.00000000000E+00  0.13007244621E+03  0.13007244624E+03  0.25500000000E-02 0. -1.
          2   -1    0    0  501    0  0.00000000000E+00 -0.00000000000E+00 -0.15225171186E+04  0.15225171186E+04  0.25500000000E-02 0.  1.
    5000001    1    1    2    0    0 -0.26679680632E+03  0.29867908938E+03 -0.74820536841E+03  0.87009482680E+03  0.19200000000E+03 0.  0.
   -5000001    1    1    2    0    0  0.26679680632E+03 -0.29867908938E+03 -0.64423930399E+03  0.78249473807E+03  0.19200000000E+03 0.  0.
<mgrwt>
<rscale>  0 0.89002815E+03</rscale>
<asrwt>0</asrwt>
<pdfrwt beam="1">  1        2 0.21750243E+00 0.89002815E+03</pdfrwt>
<pdfrwt beam="2">  1       -2 0.18581779E-01 0.89002815E+03</pdfrwt>
<totfact> 0.34612291E+02</totfact>
</mgrwt>
</event>
<event>
 4    1  0.2058931E-005  0.4249920E+03  0.7818608E-02  0.1035454E+00
          2   -1    0    0  501    0  0.00000000000E+00  0.00000000000E+00  0.70161015978E+03  0.70161015978E+03  0.25500000000E-02 0.  1.
         -2   -1    0    0    0  501 -0.00000000000E+00 -0.00000000000E+00 -0.64358447129E+02  0.64358447179E+02  0.25500000000E-02 0. -1.
    5000001    1    1    2    0    0  0.96686127454E+01  0.80875143535E+02  0.24527659216E+03  0.32196098766E+03  0.19200000000E+03 0.  0.
   -5000001    1    1    2    0    0 -0.96686127454E+01 -0.80875143535E+02  0.39197512048E+03  0.44400761929E+03  0.19200000000E+03 0.  0.
<mgrwt>
<rscale>  0 0.42499195E+03</rscale>
<asrwt>0</asrwt>
<pdfrwt beam="1">  1        2 0.10023002E+00 0.42499195E+03</pdfrwt>
<pdfrwt beam="2">  1       -2 0.91940644E-02 0.42499195E+03</pdfrwt>
<totfact> 0.34967295E+03</totfact>
</mgrwt>
</event>
<event>
 4    1  0.2058931E-005  0.6705635E+03  0.7818608E-02  0.9768940E-01
         -2   -1    0    0    0  501 -0.00000000000E+00  0.00000000000E+00  0.14169800491E+03  0.14169800493E+03  0.25500000000E-02 0. -1.
          2   -1    0    0  501    0  0.00000000000E+00 -0.00000000000E+00 -0.79333411946E+03  0.79333411946E+03  0.25500000000E-02 0.  1.
    5000001    1    1    2    0    0 -0.10180035924E+03 -0.23565066652E+03 -0.46283357707E+03  0.56300396964E+03  0.19200000000E+03 0.  0.
   -5000001    1    1    2    0    0  0.10180035924E+03  0.23565066652E+03 -0.18880253748E+03  0.37202815476E+03  0.19200000000E+03 0.  0.
<mgrwt>
<rscale>  0 0.67056353E+03</rscale>
<asrwt>0</asrwt>
<pdfrwt beam="1">  1        2 0.11333344E+00 0.67056353E+03</pdfrwt>
<pdfrwt beam="2">  1       -2 0.20242573E-01 0.67056353E+03</pdfrwt>
<totfact> 0.80536369E+02</totfact>
</mgrwt>
</event>
<event>
 4    1  0.2058931E-005  0.4849413E+03  0.7818608E-02  0.1017786E+00
         -2   -1    0    0    0  501 -0.00000000000E+00  0.00000000000E+00  0.36104899960E+02  0.36104900050E+02  0.25500000000E-02 0. -1.
          2   -1    0    0  501    0  0.00000000000E+00 -0.00000000000E+00 -0.16283669119E+04  0.16283669119E+04  0.25500000000E-02 0.  1.
    5000001    1    1    2    0    0 -0.13793334389E+03  0.53328013158E+02 -0.82239218936E+03  0.85735780014E+03  0.19200000000E+03 0.  0.
   -5000001    1    1    2    0    0  0.13793334389E+03 -0.53328013158E+02 -0.76986982263E+03  0.80711401186E+03  0.19200000000E+03 0.  0.
<mgrwt>
<rscale>  0 0.48494133E+03</rscale>
<asrwt>0</asrwt>
<pdfrwt beam="1">  1        2 0.23262380E+00 0.48494133E+03</pdfrwt>
<pdfrwt beam="2">  1       -2 0.51578439E-02 0.48494133E+03</pdfrwt>
<totfact> 0.25020691E+03</totfact>
</mgrwt>
</event>
<event>
 4    1  0.2058931E-005  0.4476547E+03  0.7818608E-02  0.1028424E+00
         -2   -1    0    0    0  501 -0.00000000000E+00  0.00000000000E+00  0.59785462342E+02  0.59785462396E+02  0.25500000000E-02 0. -1.
          2   -1    0    0  501    0  0.00000000000E+00 -0.00000000000E+00 -0.83797437515E+03  0.83797437516E+03  0.25500000000E-02 0.  1.
    5000001    1    1    2    0    0  0.10498572457E+03  0.46750514955E+02 -0.39952917872E+03  0.45792486027E+03  0.19200000000E+03 0.  0.
   -5000001    1    1    2    0    0 -0.10498572457E+03 -0.46750514955E+02 -0.37865973410E+03  0.43983497728E+03  0.19200000000E+03 0.  0.
<mgrwt>
<rscale>  0 0.44765471E+03</rscale>
<asrwt>0</asrwt>
<pdfrwt beam="1">  1        2 0.11971062E+00 0.44765471E+03</pdfrwt>
<pdfrwt beam="2">  1       -2 0.85407808E-02 0.44765471E+03</pdfrwt>
<totfact> 0.31539570E+03</totfact>
</mgrwt>
</event>
<event>
 4    1  0.2058931E-005  0.4676991E+03  0.7818608E-02  0.1022572E+00
          2   -1    0    0  501    0  0.00000000000E+00  0.00000000000E+00  0.10329494461E+04  0.10329494461E+04  0.25500000000E-02 0. -1.
         -2   -1    0    0    0  501 -0.00000000000E+00 -0.00000000000E+00 -0.52941227058E+02  0.52941227119E+02  0.25500000000E-02 0.  1.
    5000001    1    1    2    0    0 -0.95250103199E+02 -0.92085166063E+02  0.45189936481E+03  0.50855608922E+03  0.19200000000E+03 0.  0.
   -5000001    1    1    2    0    0  0.95250103199E+02  0.92085166063E+02  0.52810885426E+03  0.57733458403E+03  0.19200000000E+03 0.  0.
<mgrwt>
<rscale>  0 0.46769910E+03</rscale>
<asrwt>0</asrwt>
<pdfrwt beam="1">  1        2 0.14756421E+00 0.46769910E+03</pdfrwt>
<pdfrwt beam="2">  1       -2 0.75630323E-02 0.46769910E+03</pdfrwt>
<totfact> 0.28867422E+03</totfact>
</mgrwt>
</event>
<event>
 4    1  0.2058931E-005  0.5639950E+03  0.7818608E-02  0.9983056E-01
         -2   -1    0    0    0  501 -0.00000000000E+00  0.00000000000E+00  0.40712463036E+03  0.40712463037E+03  0.25500000000E-02 0. -1.
          2   -1    0    0  501    0  0.00000000000E+00 -0.00000000000E+00 -0.19532736841E+03  0.19532736843E+03  0.25500000000E-02 0.  1.
    5000001    1    1    2    0    0 -0.12140606476E+03  0.94896667466E+02 -0.41006274325E+02  0.24958029688E+03  0.19200000000E+03 0.  0.
   -5000001    1    1    2    0    0  0.12140606476E+03 -0.94896667466E+02  0.25280353628E+03  0.35287170192E+03  0.19200000000E+03 0.  0.
<mgrwt>
<rscale>  0 0.56399497E+03</rscale>
<asrwt>0</asrwt>
<pdfrwt beam="1">  1        2 0.27903910E-01 0.56399497E+03</pdfrwt>
<pdfrwt beam="2">  1       -2 0.58160661E-01 0.56399497E+03</pdfrwt>
<totfact> 0.53862710E+02</totfact>
</mgrwt>
</event>
<event>
 4    1  0.2058931E-005  0.8376313E+03  0.7818608E-02  0.9507090E-01
         -2   -1    0    0    0  501 -0.00000000000E+00  0.00000000000E+00  0.73477304573E+02  0.73477304617E+02  0.25500000000E-02 0. -1.
          2   -1    0    0  501    0  0.00000000000E+00 -0.00000000000E+00 -0.23872209121E+04  0.23872209121E+04  0.25500000000E-02 0.  1.
    5000001    1    1    2    0    0 -0.26984490372E+03 -0.24148585907E+03 -0.14097666175E+04  0.14681408679E+04  0.19200000000E+03 0.  0.
   -5000001    1    1    2    0    0  0.26984490372E+03  0.24148585907E+03 -0.90397699005E+03  0.99255734884E+03  0.19200000000E+03 0.  0.
<mgrwt>
<rscale>  0 0.83763132E+03</rscale>
<asrwt>0</asrwt>
<pdfrwt beam="1">  1        2 0.34103151E+00 0.83763132E+03</pdfrwt>
<pdfrwt beam="2">  1       -2 0.10496759E-01 0.83763132E+03</pdfrwt>
<totfact> 0.32763033E+02</totfact>
</mgrwt>
</event>
<event>
 4    1  0.2058931E-005  0.7585299E+03  0.7818608E-02  0.9622063E-01
         -2   -1    0    0    0  501 -0.00000000000E+00  0.00000000000E+00  0.68655080938E+02  0.68655080986E+02  0.25500000000E-02 0. -1.
          2   -1    0    0  501    0  0.00000000000E+00 -0.00000000000E+00 -0.20951385062E+04  0.20951385062E+04  0.25500000000E-02 0.  1.
    5000001    1    1    2    0    0 -0.29283740509E+01  0.30253057574E+03 -0.13677538934E+04  0.14139123160E+04  0.19200000000E+03 0.  0.
   -5000001    1    1    2    0    0  0.29283740509E+01 -0.30253057574E+03 -0.65872953192E+03  0.74988127117E+03  0.19200000000E+03 0.  0.
<mgrwt>
<rscale>  0 0.75852990E+03</rscale>
<asrwt>0</asrwt>
<pdfrwt beam="1">  1        2 0.29930546E+00 0.75852990E+03</pdfrwt>
<pdfrwt beam="2">  1       -2 0.98078700E-02 0.75852990E+03</pdfrwt>
<totfact> 0.51853329E+02</totfact>
</mgrwt>
</event>
<event>
 4    1  0.2058931E-005  0.7137713E+03  0.7818608E-02  0.9693967E-01
         -2   -1    0    0    0  501 -0.00000000000E+00  0.00000000000E+00  0.27816032894E+03  0.27816032895E+03  0.25500000000E-02 0.  1.
          2   -1    0    0  501    0  0.00000000000E+00 -0.00000000000E+00 -0.45789189889E+03  0.45789189890E+03  0.25500000000E-02 0. -1.
    5000001    1    1    2    0    0  0.17919364151E+02  0.29996039697E+03 -0.10466715779E+03  0.37164036013E+03  0.19200000000E+03 0.  0.
   -5000001    1    1    2    0    0 -0.17919364151E+02 -0.29996039697E+03 -0.75064412159E+02  0.36441186772E+03  0.19200000000E+03 0.  0.
<mgrwt>
<rscale>  0 0.71377128E+03</rscale>
<asrwt>0</asrwt>
<pdfrwt beam="1">  1        2 0.65413128E-01 0.71377128E+03</pdfrwt>
<pdfrwt beam="2">  1       -2 0.39737190E-01 0.71377128E+03</pdfrwt>
<totfact> 0.44766226E+02</totfact>
</mgrwt>
</event>
<event>
 4    1  0.2058931E-005  0.6429035E+03  0.7818608E-02  0.9820187E-01
          2   -1    0    0  501    0  0.00000000000E+00  0.00000000000E+00  0.41398513870E+03  0.41398513870E+03  0.25500000000E-02 0.  1.
         -2   -1    0    0    0  501 -0.00000000000E+00 -0.00000000000E+00 -0.24960130513E+03  0.24960130515E+03  0.25500000000E-02 0. -1.
    5000001    1    1    2    0    0 -0.19704317414E+03 -0.14459131046E+03  0.16689645691E+03  0.35277625610E+03  0.19200000000E+03 0.  0.
   -5000001    1    1    2    0    0  0.19704317414E+03  0.14459131046E+03 -0.25126233496E+01  0.31081018775E+03  0.19200000000E+03 0.  0.
<mgrwt>
<rscale>  0 0.64290351E+03</rscale>
<asrwt>0</asrwt>
<pdfrwt beam="1">  1        2 0.59140734E-01 0.64290351E+03</pdfrwt>
<pdfrwt beam="2">  1       -2 0.35657330E-01 0.64290351E+03</pdfrwt>
<totfact> 0.61847771E+02</totfact>
</mgrwt>
</event>
<event>
 4    1  0.2058931E-005  0.7275248E+03  0.7818608E-02  0.9671285E-01
          2   -1    0    0  501    0  0.00000000000E+00  0.00000000000E+00  0.42014027451E+03  0.42014027451E+03  0.25500000000E-02 0.  1.
         -2   -1    0    0    0  501 -0.00000000000E+00 -0.00000000000E+00 -0.31494977372E+03  0.31494977373E+03  0.25500000000E-02 0. -1.
    5000001    1    1    2    0    0 -0.10245691563E+03 -0.25983103229E+03  0.18606542451E+03  0.38664444533E+03  0.19200000000E+03 0.  0.
   -5000001    1    1    2    0    0  0.10245691563E+03  0.25983103229E+03 -0.80874923718E+02  0.34844560291E+03  0.19200000000E+03 0.  0.
<mgrwt>
<rscale>  0 0.72752480E+03</rscale>
<asrwt>0</asrwt>
<pdfrwt beam="1">  1        2 0.60020040E-01 0.72752480E+03</pdfrwt>
<pdfrwt beam="2">  1       -2 0.44992825E-01 0.72752480E+03</pdfrwt>
<totfact> 0.38610994E+02</totfact>
</mgrwt>
</event>
<event>
 4    1  0.2058931E-005  0.4574256E+03  0.7818608E-02  0.1025531E+00
          2   -1    0    0  501    0  0.00000000000E+00  0.00000000000E+00  0.15113007165E+03  0.15113007167E+03  0.25500000000E-02 0.  1.
         -2   -1    0    0    0  501 -0.00000000000E+00 -0.00000000000E+00 -0.34612260861E+03  0.34612260861E+03  0.25500000000E-02 0. -1.
    5000001    1    1    2    0    0  0.59846368274E+02 -0.97055849410E+02 -0.43753876902E+02  0.22755181266E+03  0.19200000000E+03 0.  0.
   -5000001    1    1    2    0    0 -0.59846368274E+02  0.97055849410E+02 -0.15123866006E+03  0.26970086762E+03  0.19200000000E+03 0.  0.
<mgrwt>
<rscale>  0 0.45742556E+03</rscale>
<asrwt>0</asrwt>
<pdfrwt beam="1">  1        2 0.21590010E-01 0.45742556E+03</pdfrwt>
<pdfrwt beam="2">  1       -2 0.49446087E-01 0.45742556E+03</pdfrwt>
<totfact> 0.10068774E+03</totfact>
</mgrwt>
</event>
<event>
 4    1  0.2058931E-005  0.4890272E+03  0.7818608E-02  0.1016683E+00
          2   -1    0    0  501    0  0.00000000000E+00  0.00000000000E+00  0.11599937179E+04  0.11599937179E+04  0.25500000000E-02 0.  1.
         -2   -1    0    0    0  501 -0.00000000000E+00 -0.00000000000E+00 -0.51540706213E+02  0.51540706276E+02  0.25500000000E-02 0. -1.
    5000001    1    1    2    0    0  0.14889875732E+03 -0.26567264837E+02  0.57107234867E+03  0.62117975411E+03  0.19200000000E+03 0.  0.
   -5000001    1    1    2    0    0 -0.14889875732E+03  0.26567264837E+02  0.53738066300E+03  0.59035467006E+03  0.19200000000E+03 0.  0.
<mgrwt>
<rscale>  0 0.48902718E+03</rscale>
<asrwt>0</asrwt>
<pdfrwt beam="1">  1        2 0.16571337E+00 0.48902718E+03</pdfrwt>
<pdfrwt beam="2">  1       -2 0.73629591E-02 0.48902718E+03</pdfrwt>
<totfact> 0.25430652E+03</totfact>
</mgrwt>
</event>
<event>
 4    1  0.2058931E-005  0.4740452E+03  0.7818608E-02  0.1020785E+00
         -2   -1    0    0    0  501 -0.00000000000E+00  0.00000000000E+00  0.14716690948E+03  0.14716690950E+03  0.25500000000E-02 0. -1.
          2   -1    0    0  501    0  0.00000000000E+00 -0.00000000000E+00 -0.38174139592E+03  0.38174139593E+03  0.25500000000E-02 0.  1.
    5000001    1    1    2    0    0  0.47624801794E+02 -0.13022648151E+03 -0.12779193887E+03  0.26911305779E+03  0.19200000000E+03 0.  0.
   -5000001    1    1    2    0    0 -0.47624801794E+02  0.13022648151E+03 -0.10678254758E+03  0.25979524765E+03  0.19200000000E+03 0.  0.
<mgrwt>
<rscale>  0 0.47404515E+03</rscale>
<asrwt>0</asrwt>
<pdfrwt beam="1">  1        2 0.54534484E-01 0.47404515E+03</pdfrwt>
<pdfrwt beam="2">  1       -2 0.21023844E-01 0.47404515E+03</pdfrwt>
<totfact> 0.17709394E+03</totfact>
</mgrwt>
</event>
<event>
 4    1  0.2058931E-005  0.5839611E+03  0.7818608E-02  0.9939252E-01
         -2   -1    0    0    0  501 -0.00000000000E+00  0.00000000000E+00  0.70043206445E+02  0.70043206491E+02  0.25500000000E-02 0. -1.
          2   -1    0    0  501    0  0.00000000000E+00 -0.00000000000E+00 -0.12171434581E+04  0.12171434581E+04  0.25500000000E-02 0.  1.
    5000001    1    1    2    0    0 -0.14335602606E+03 -0.15723632519E+03 -0.45053851134E+03  0.53396925227E+03  0.19200000000E+03 0.  0.
   -5000001    1    1    2    0    0  0.14335602606E+03  0.15723632519E+03 -0.69656174033E+03  0.75321741235E+03  0.19200000000E+03 0.  0.
<mgrwt>
<rscale>  0 0.58396106E+03</rscale>
<asrwt>0</asrwt>
<pdfrwt beam="1">  1        2 0.17387762E+00 0.58396106E+03</pdfrwt>
<pdfrwt beam="2">  1       -2 0.10006173E-01 0.58396106E+03</pdfrwt>
<totfact> 0.14447927E+03</totfact>
</mgrwt>
</event>
<event>
 4    1  0.2058931E-005  0.4293374E+03  0.7818608E-02  0.1034069E+00
         -2   -1    0    0    0  501 -0.00000000000E+00  0.00000000000E+00  0.27414152322E+02  0.27414152441E+02  0.25500000000E-02 0. -1.
          2   -1    0    0  501    0  0.00000000000E+00 -0.00000000000E+00 -0.16809805841E+04  0.16809805841E+04  0.25500000000E-02 0.  1.
    5000001    1    1    2    0    0 -0.81600450469E+02  0.33893787753E+02 -0.67730110614E+03  0.70951265721E+03  0.19200000000E+03 0.  0.
   -5000001    1    1    2    0    0  0.81600450469E+02 -0.33893787753E+02 -0.97626532561E+03  0.99888207931E+03  0.19200000000E+03 0.  0.
<mgrwt>
<rscale>  0 0.42933743E+03</rscale>
<asrwt>0</asrwt>
<pdfrwt beam="1">  1        2 0.24014002E+00 0.42933743E+03</pdfrwt>
<pdfrwt beam="2">  1       -2 0.39163085E-02 0.42933743E+03</pdfrwt>
<totfact> 0.35936148E+03</totfact>
</mgrwt>
</event>
<event>
 4    1  0.2058931E-005  0.6272374E+03  0.7818608E-02  0.9850455E-01
         -2   -1    0    0    0  501 -0.00000000000E+00  0.00000000000E+00  0.15407245635E+04  0.15407245635E+04  0.25500000000E-02 0. -1.
          2   -1    0    0  501    0  0.00000000000E+00 -0.00000000000E+00 -0.63837937219E+02  0.63837937270E+02  0.25500000000E-02 0.  1.
    5000001    1    1    2    0    0  0.54221535102E+02 -0.16093647160E+03  0.12006972759E+04  0.12277534244E+04  0.19200000000E+03 0.  0.
   -5000001    1    1    2    0    0 -0.54221535102E+02  0.16093647160E+03  0.27618935030E+03  0.37680907630E+03  0.19200000000E+03 0.  0.
<mgrwt>
<rscale>  0 0.62723736E+03</rscale>
<asrwt>0</asrwt>
<pdfrwt beam="1">  1        2 0.91197069E-02 0.62723736E+03</pdfrwt>
<pdfrwt beam="2">  1       -2 0.22010347E+00 0.62723736E+03</pdfrwt>
<totfact> 0.75956677E+01</totfact>
</mgrwt>
</event>
<event>
 4    1  0.2058931E-005  0.7583827E+03  0.7818608E-02  0.9622290E-01
         -2   -1    0    0    0  501 -0.00000000000E+00  0.00000000000E+00  0.62839622164E+02  0.62839622215E+02  0.25500000000E-02 0. -1.
          2   -1    0    0  501    0  0.00000000000E+00 -0.00000000000E+00 -0.22881435706E+04  0.22881435706E+04  0.25500000000E-02 0.  1.
    5000001    1    1    2    0    0  0.20546706732E+03  0.20426395614E+03 -0.15826015068E+04  0.16203184899E+04  0.19200000000E+03 0.  0.
   -5000001    1    1    2    0    0 -0.20546706732E+03 -0.20426395614E+03 -0.64270244163E+03  0.73066470286E+03  0.19200000000E+03 0.  0.
<mgrwt>
<rscale>  0 0.75838269E+03</rscale>
<asrwt>0</asrwt>
<pdfrwt beam="1">  1        2 0.32687760E+00 0.75838269E+03</pdfrwt>
<pdfrwt beam="2">  1       -2 0.89770903E-02 0.75838269E+03</pdfrwt>
<totfact> 0.47762509E+02</totfact>
</mgrwt>
</event>
<event>
 4    1  0.2058931E-005  0.5452840E+03  0.7818608E-02  0.1002591E+00
          2   -1    0    0  501    0  0.00000000000E+00  0.00000000000E+00  0.82542901427E+03  0.82542901427E+03  0.25500000000E-02 0.  1.
         -2   -1    0    0    0  501 -0.00000000000E+00 -0.00000000000E+00 -0.90054586649E+02  0.90054586685E+02  0.25500000000E-02 0. -1.
    5000001    1    1    2    0    0  0.16033698507E+03  0.10765009114E+03  0.34559323648E+03  0.43999451815E+03  0.19200000000E+03 0.  0.
   -5000001    1    1    2    0    0 -0.16033698507E+03 -0.10765009114E+03  0.38978119114E+03  0.47548908281E+03  0.19200000000E+03 0.  0.
<mgrwt>
<rscale>  0 0.54528403E+03</rscale>
<asrwt>0</asrwt>
<pdfrwt beam="1">  1        2 0.11791843E+00 0.54528403E+03</pdfrwt>
<pdfrwt beam="2">  1       -2 0.12864941E-01 0.54528403E+03</pdfrwt>
<totfact> 0.16563974E+03</totfact>
</mgrwt>
</event>
<event>
 4    1  0.2058931E-005  0.4807335E+03  0.7818608E-02  0.1018934E+00
          2   -1    0    0  501    0  0.00000000000E+00  0.00000000000E+00  0.56040979730E+03  0.56040979731E+03  0.25500000000E-02 0.  1.
         -2   -1    0    0    0  501 -0.00000000000E+00 -0.00000000000E+00 -0.10309629343E+03  0.10309629347E+03  0.25500000000E-02 0. -1.
    5000001    1    1    2    0    0  0.10898424935E+03 -0.54589115037E+02  0.12126164116E+03  0.25773227136E+03  0.19200000000E+03 0.  0.
   -5000001    1    1    2    0    0 -0.10898424935E+03  0.54589115037E+02  0.33605186271E+03  0.40577381941E+03  0.19200000000E+03 0.  0.
<mgrwt>
<rscale>  0 0.48073349E+03</rscale>
<asrwt>0</asrwt>
<pdfrwt beam="1">  1        2 0.80058540E-01 0.48073349E+03</pdfrwt>
<pdfrwt beam="2">  1       -2 0.14728042E-01 0.48073349E+03</pdfrwt>
<totfact> 0.21140588E+03</totfact>
</mgrwt>
</event>
<event>
 4    1  0.2058931E-005  0.4856402E+03  0.7818608E-02  0.1017597E+00
          2   -1    0    0  501    0  0.00000000000E+00  0.00000000000E+00  0.16970851708E+04  0.16970851708E+04  0.25500000000E-02 0.  1.
         -2   -1    0    0    0  501 -0.00000000000E+00 -0.00000000000E+00 -0.34742864116E+02  0.34742864210E+02  0.25500000000E-02 0. -1.
    5000001    1    1    2    0    0  0.13307345654E+03 -0.55814120272E+02  0.95844740079E+03  0.98808359005E+03  0.19200000000E+03 0.  0.
   -5000001    1    1    2    0    0 -0.13307345654E+03  0.55814120272E+02  0.70389490590E+03  0.74374444496E+03  0.19200000000E+03 0.  0.
<mgrwt>
<rscale>  0 0.48564019E+03</rscale>
<asrwt>0</asrwt>
<pdfrwt beam="1">  1        2 0.24244079E+00 0.48564019E+03</pdfrwt>
<pdfrwt beam="2">  1       -2 0.49632652E-02 0.48564019E+03</pdfrwt>
<totfact> 0.24506774E+03</totfact>
</mgrwt>
</event>
<event>
 4    1  0.2058931E-005  0.9049493E+03  0.7818608E-02  0.9419416E-01
          2   -1    0    0  501    0  0.00000000000E+00  0.00000000000E+00  0.16410288521E+04  0.16410288521E+04  0.25500000000E-02 0.  1.
         -2   -1    0    0    0  501 -0.00000000000E+00 -0.00000000000E+00 -0.12475911262E+03  0.12475911265E+03  0.25500000000E-02 0. -1.
    5000001    1    1    2    0    0 -0.35483780083E+03 -0.18238411979E+03  0.57618117696E+03  0.72665162268E+03  0.19200000000E+03 0.  0.
   -5000001    1    1    2    0    0  0.35483780083E+03  0.18238411979E+03  0.94008856249E+03  0.10391363421E+04  0.19200000000E+03 0.  0.
<mgrwt>
<rscale>  0 0.90494929E+03</rscale>
<asrwt>0</asrwt>
<pdfrwt beam="1">  1        2 0.23443268E+00 0.90494929E+03</pdfrwt>
<pdfrwt beam="2">  1       -2 0.17822731E-01 0.90494929E+03</pdfrwt>
<totfact> 0.32237823E+02</totfact>
</mgrwt>
</event>
<event>
 4    1  0.2058931E-005  0.5493521E+03  0.7818608E-02  0.1001644E+00
          2   -1    0    0  501    0  0.00000000000E+00  0.00000000000E+00  0.81450881693E+02  0.81450881733E+02  0.25500000000E-02 0.  1.
         -2   -1    0    0    0  501 -0.00000000000E+00 -0.00000000000E+00 -0.92628740710E+03  0.92628740710E+03  0.25500000000E-02 0. -1.
    5000001    1    1    2    0    0  0.39440844441E+02  0.15466735861E+03 -0.63241926500E+03  0.67992330360E+03  0.19200000000E+03 0.  0.
   -5000001    1    1    2    0    0 -0.39440844441E+02 -0.15466735861E+03 -0.21241726041E+03  0.32781498524E+03  0.19200000000E+03 0.  0.
<mgrwt>
<rscale>  0 0.54935208E+03</rscale>
<asrwt>0</asrwt>
<pdfrwt beam="1">  1        2 0.11635841E-01 0.54935208E+03</pdfrwt>
<pdfrwt beam="2">  1       -2 0.13232677E+00 0.54935208E+03</pdfrwt>
<totfact> 0.23117884E+02</totfact>
</mgrwt>
</event>
<event>
 4    1  0.2058931E-005  0.8987256E+03  0.7818608E-02  0.9427176E-01
         -2   -1    0    0    0  501 -0.00000000000E+00  0.00000000000E+00  0.14832099247E+03  0.14832099249E+03  0.25500000000E-02 0. -1.
          2   -1    0    0  501    0  0.00000000000E+00 -0.00000000000E+00 -0.13614183980E+04  0.13614183980E+04  0.25500000000E-02 0.  1.
    5000001    1    1    2    0    0  0.35615716908E+03 -0.18349533020E+03 -0.49330445722E+03  0.66387630836E+03  0.19200000000E+03 0.  0.
   -5000001    1    1    2    0    0 -0.35615716908E+03  0.18349533020E+03 -0.71979294834E+03  0.84586308217E+03  0.19200000000E+03 0.  0.
<mgrwt>
<rscale>  0 0.89872560E+03</rscale>
<asrwt>0</asrwt>
<pdfrwt beam="1">  1        2 0.19448834E+00 0.89872560E+03</pdfrwt>
<pdfrwt beam="2">  1       -2 0.21188714E-01 0.89872560E+03</pdfrwt>
<totfact> 0.33508327E+02</totfact>
</mgrwt>
</event>
<event>
 4    1  0.2058931E-005  0.4703791E+03  0.7818608E-02  0.1021813E+00
         -2   -1    0    0    0  501 -0.00000000000E+00  0.00000000000E+00  0.20978455558E+02  0.20978455713E+02  0.25500000000E-02 0. -1.
          2   -1    0    0  501    0  0.00000000000E+00 -0.00000000000E+00 -0.26367109214E+04  0.26367109214E+04  0.25500000000E-02 0.  1.
    5000001    1    1    2    0    0 -0.12572121031E+03  0.48301218548E+02 -0.12081787460E+04  0.12307309668E+04  0.19200000000E+03 0.  0.
   -5000001    1    1    2    0    0  0.12572121031E+03 -0.48301218548E+02 -0.14075537199E+04  0.14269584103E+04  0.19200000000E+03 0.  0.
<mgrwt>
<rscale>  0 0.47037909E+03</rscale>
<asrwt>0</asrwt>
<pdfrwt beam="1">  1        2 0.37667278E+00 0.47037909E+03</pdfrwt>
<pdfrwt beam="2">  1       -2 0.29969239E-02 0.47037909E+03</pdfrwt>
<totfact> 0.17844731E+03</totfact>
</mgrwt>
</event>
<event>
 4    1  0.2058931E-005  0.5108737E+03  0.7818608E-02  0.1010979E+00
         -2   -1    0    0    0  501 -0.00000000000E+00  0.00000000000E+00  0.13439920549E+03  0.13439920551E+03  0.25500000000E-02 0. -1.
          2   -1    0    0  501    0  0.00000000000E+00 -0.00000000000E+00 -0.48547887452E+03  0.48547887452E+03  0.25500000000E-02 0.  1.
    5000001    1    1    2    0    0  0.12312776254E+03 -0.90594966845E+02 -0.89603853457E+02  0.26126757258E+03  0.19200000000E+03 0.  0.
   -5000001    1    1    2    0    0 -0.12312776254E+03  0.90594966845E+02 -0.26147581557E+03  0.35861050746E+03  0.19200000000E+03 0.  0.
<mgrwt>
<rscale>  0 0.51087366E+03</rscale>
<asrwt>0</asrwt>
<pdfrwt beam="1">  1        2 0.69354124E-01 0.51087366E+03</pdfrwt>
<pdfrwt beam="2">  1       -2 0.19199887E-01 0.51087366E+03</pdfrwt>
<totfact> 0.15873727E+03</totfact>
</mgrwt>
</event>
<event>
 4    1  0.2058931E-005  0.4835604E+03  0.7818608E-02  0.1018161E+00
          2   -1    0    0  501    0  0.00000000000E+00  0.00000000000E+00  0.13583804067E+03  0.13583804069E+03  0.25500000000E-02 0.  1.
         -2   -1    0    0    0  501 -0.00000000000E+00 -0.00000000000E+00 -0.43034830335E+03  0.43034830335E+03  0.25500000000E-02 0. -1.
    5000001    1    1    2    0    0 -0.13664902713E+03  0.23204495193E+02 -0.90106782195E+02  0.25336660674E+03  0.19200000000E+03 0.  0.
   -5000001    1    1    2    0    0  0.13664902713E+03 -0.23204495193E+02 -0.20440348049E+03  0.31281973730E+03  0.19200000000E+03 0.  0.
<mgrwt>
<rscale>  0 0.48356042E+03</rscale>
<asrwt>0</asrwt>
<pdfrwt beam="1">  1        2 0.19405435E-01 0.48356042E+03</pdfrwt>
<pdfrwt beam="2">  1       -2 0.61478328E-01 0.48356042E+03</pdfrwt>
<totfact> 0.72806420E+02</totfact>
</mgrwt>
</event>
<event>
 4    1  0.2058931E-005  0.5822857E+03  0.7818608E-02  0.9942855E-01
          2   -1    0    0  501    0  0.00000000000E+00  0.00000000000E+00  0.16628287862E+04  0.16628287862E+04  0.25500000000E-02 0.  1.
         -2   -1    0    0    0  501 -0.00000000000E+00 -0.00000000000E+00 -0.50975875635E+02  0.50975875698E+02  0.25500000000E-02 0. -1.
    5000001    1    1    2    0    0  0.12924269290E+01  0.16499744227E+03  0.38273109107E+03  0.45888224459E+03  0.19200000000E+03 0.  0.
   -5000001    1    1    2    0    0 -0.12924269290E+01 -0.16499744227E+03  0.12291218195E+04  0.12549224174E+04  0.19200000000E+03 0.  0.
<mgrwt>
<rscale>  0 0.58228568E+03</rscale>
<asrwt>0</asrwt>
<pdfrwt beam="1">  1        2 0.23754694E+00 0.58228568E+03</pdfrwt>
<pdfrwt beam="2">  1       -2 0.72822689E-02 0.58228568E+03</pdfrwt>
<totfact> 0.13968286E+03</totfact>
</mgrwt>
</event>
<event>
 4    1  0.2058931E-005  0.5714565E+03  0.7818608E-02  0.9966461E-01
         -2   -1    0    0    0  501 -0.00000000000E+00  0.00000000000E+00  0.75321085959E+02  0.75321086002E+02  0.25500000000E-02 0. -1.
          2   -1    0    0  501    0  0.00000000000E+00 -0.00000000000E+00 -0.10839013310E+04  0.10839013310E+04  0.25500000000E-02 0.  1.
    5000001    1    1    2    0    0  0.18800110492E+03  0.45227540258E+02 -0.32994562631E+03  0.42792296289E+03  0.19200000000E+03 0.  0.
   -5000001    1    1    2    0    0 -0.18800110492E+03 -0.45227540258E+02 -0.67863461877E+03  0.73129945415E+03  0.19200000000E+03 0.  0.
<mgrwt>
<rscale>  0 0.57145647E+03</rscale>
<asrwt>0</asrwt>
<pdfrwt beam="1">  1        2 0.15484304E+00 0.57145647E+03</pdfrwt>
<pdfrwt beam="2">  1       -2 0.10760156E-01 0.57145647E+03</pdfrwt>
<totfact> 0.15297085E+03</totfact>
</mgrwt>
</event>
<event>
 4    1  0.2058931E-005  0.9264408E+03  0.7818608E-02  0.9393120E-01
          2   -1    0    0  501    0  0.00000000000E+00  0.00000000000E+00  0.13943045789E+04  0.13943045789E+04  0.25500000000E-02 0.  1.
         -2   -1    0    0    0  501 -0.00000000000E+00 -0.00000000000E+00 -0.15389258406E+03  0.15389258408E+03  0.25500000000E-02 0. -1.
    5000001    1    1    2    0    0 -0.19455146046E+03  0.31132112110E+03  0.27392423196E+03  0.49665842997E+03  0.19200000000E+03 0.  0.
   -5000001    1    1    2    0    0  0.19455146046E+03 -0.31132112110E+03  0.96648776289E+03  0.10515387330E+04  0.19200000000E+03 0.  0.
<mgrwt>
<rscale>  0 0.92644079E+03</rscale>
<asrwt>0</asrwt>
<pdfrwt beam="1">  1        2 0.19918637E+00 0.92644079E+03</pdfrwt>
<pdfrwt beam="2">  1       -2 0.21984654E-01 0.92644079E+03</pdfrwt>
<totfact> 0.30085273E+02</totfact>
</mgrwt>
</event>
<event>
 4    1  0.2058931E-005  0.4070775E+03  0.7818608E-02  0.1041356E+00
         -2   -1    0    0    0  501 -0.00000000000E+00  0.00000000000E+00  0.94762714075E+03  0.94762714076E+03  0.25500000000E-02 0. -1.
          2   -1    0    0  501    0  0.00000000000E+00 -0.00000000000E+00 -0.43717636691E+02  0.43717636765E+02  0.25500000000E-02 0.  1.
    5000001    1    1    2    0    0  0.51223752820E+02 -0.15459962403E+02  0.55239716477E+03  0.58725591605E+03  0.19200000000E+03 0.  0.
   -5000001    1    1    2    0    0 -0.51223752820E+02  0.15459962403E+02  0.35151233929E+03  0.40408886147E+03  0.19200000000E+03 0.  0.
<mgrwt>
<rscale>  0 0.40707748E+03</rscale>
<asrwt>0</asrwt>
<pdfrwt beam="1">  1        2 0.62453769E-02 0.40707748E+03</pdfrwt>
<pdfrwt beam="2">  1       -2 0.13537530E+00 0.40707748E+03</pdfrwt>
<totfact> 0.48578027E+02</totfact>
</mgrwt>
</event>
<event>
 4    1  0.2058931E-005  0.6097694E+03  0.7818608E-02  0.9885342E-01
          2   -1    0    0  501    0  0.00000000000E+00  0.00000000000E+00  0.64754559189E+03  0.64754559189E+03  0.25500000000E-02 0.  1.
         -2   -1    0    0    0  501 -0.00000000000E+00 -0.00000000000E+00 -0.14354923847E+03  0.14354923849E+03  0.25500000000E-02 0. -1.
    5000001    1    1    2    0    0 -0.17651463968E+03  0.15726835430E+03  0.23365415094E+03  0.38386067204E+03  0.19200000000E+03 0.  0.
   -5000001    1    1    2    0    0  0.17651463968E+03 -0.15726835430E+03  0.27034220248E+03  0.40723415835E+03  0.19200000000E+03 0.  0.
<mgrwt>
<rscale>  0 0.60976939E+03</rscale>
<asrwt>0</asrwt>
<pdfrwt beam="1">  1        2 0.92506514E-01 0.60976939E+03</pdfrwt>
<pdfrwt beam="2">  1       -2 0.20507034E-01 0.60976939E+03</pdfrwt>
<totfact> 0.10132052E+03</totfact>
</mgrwt>
</event>
<event>
 4    1  0.2058931E-005  0.1263639E+04  0.7818608E-02  0.9058907E-01
          2   -1    0    0  501    0  0.00000000000E+00  0.00000000000E+00  0.20234066455E+04  0.20234066455E+04  0.25500000000E-02 0.  1.
         -2   -1    0    0    0  501 -0.00000000000E+00 -0.00000000000E+00 -0.19728901321E+03  0.19728901322E+03  0.25500000000E-02 0. -1.
    5000001    1    1    2    0    0 -0.37589940240E+03  0.32385349414E+03  0.31412826404E+03  0.61783655821E+03  0.19200000000E+03 0.  0.
   -5000001    1    1    2    0    0  0.37589940240E+03 -0.32385349414E+03  0.15119893682E+04  0.16028591005E+04  0.19200000000E+03 0.  0.
<mgrwt>
<rscale>  0 0.12636390E+04</rscale>
<asrwt>0</asrwt>
<pdfrwt beam="1">  1        2 0.28905810E+00 0.12636390E+04</pdfrwt>
<pdfrwt beam="2">  1       -2 0.28184144E-01 0.12636390E+04</pdfrwt>
<totfact> 0.88360624E+01</totfact>
</mgrwt>
</event>
<event>
 4    1  0.2058931E-005  0.5162812E+03  0.7818608E-02  0.1009615E+00
          2   -1    0    0  501    0  0.00000000000E+00  0.00000000000E+00  0.47168380485E+02  0.47168380554E+02  0.25500000000E-02 0.  1.
         -2   -1    0    0    0  501 -0.00000000000E+00 -0.00000000000E+00 -0.14127380815E+04  0.14127380815E+04  0.25500000000E-02 0. -1.
    5000001    1    1    2    0    0  0.22579967310E+02 -0.10440100886E+03 -0.29959656762E+03  0.37152594647E+03  0.19200000000E+03 0.  0.
   -5000001    1    1    2    0    0 -0.22579967310E+02  0.10440100886E+03 -0.10659731334E+04  0.10883805156E+04  0.19200000000E+03 0.  0.
<mgrwt>
<rscale>  0 0.51628119E+03</rscale>
<asrwt>0</asrwt>
<pdfrwt beam="1">  1        2 0.67383409E-02 0.51628119E+03</pdfrwt>
<pdfrwt beam="2">  1       -2 0.20181970E+00 0.51628119E+03</pdfrwt>
<totfact> 0.14771863E+02</totfact>
</mgrwt>
</event>
<event>
 4    1  0.2058931E-005  0.8174360E+03  0.7818608E-02  0.9535117E-01
         -2   -1    0    0    0  501 -0.00000000000E+00  0.00000000000E+00  0.11345447475E+03  0.11345447478E+03  0.25500000000E-02 0. -1.
          2   -1    0    0  501    0  0.00000000000E+00 -0.00000000000E+00 -0.14724001306E+04  0.14724001306E+04  0.25500000000E-02 0.  1.
    5000001    1    1    2    0    0 -0.25429849365E+03 -0.15699233285E+03 -0.28725896985E+03  0.45683260851E+03  0.19200000000E+03 0.  0.
   -5000001    1    1    2    0    0  0.25429849365E+03  0.15699233285E+03 -0.10716866860E+04  0.11290219969E+04  0.19200000000E+03 0.  0.
<mgrwt>
<rscale>  0 0.81743595E+03</rscale>
<asrwt>0</asrwt>
<pdfrwt beam="1">  1        2 0.21034286E+00 0.81743595E+03</pdfrwt>
<pdfrwt beam="2">  1       -2 0.16207783E-01 0.81743595E+03</pdfrwt>
<totfact> 0.46726418E+02</totfact>
</mgrwt>
</event>
<event>
 4    1  0.2058931E-005  0.5163025E+03  0.7818608E-02  0.1009609E+00
          2   -1    0    0  501    0  0.00000000000E+00  0.00000000000E+00  0.55162082536E+03  0.55162082537E+03  0.25500000000E-02 0.  1.
         -2   -1    0    0    0  501 -0.00000000000E+00 -0.00000000000E+00 -0.12081136797E+03  0.12081136800E+03  0.25500000000E-02 0. -1.
    5000001    1    1    2    0    0  0.51576322612E+02  0.16133489202E+03  0.25838395866E+03  0.36375174849E+03  0.19200000000E+03 0.  0.
   -5000001    1    1    2    0    0 -0.51576322612E+02 -0.16133489202E+03  0.17242549873E+03  0.30868044487E+03  0.19200000000E+03 0.  0.
<mgrwt>
<rscale>  0 0.51630249E+03</rscale>
<asrwt>0</asrwt>
<pdfrwt beam="1">  1        2 0.78802976E-01 0.51630249E+03</pdfrwt>
<pdfrwt beam="2">  1       -2 0.17258767E-01 0.51630249E+03</pdfrwt>
<totfact> 0.16478450E+03</totfact>
</mgrwt>
</event>
<event>
 4    1  0.2058931E-005  0.7379176E+03  0.7818608E-02  0.9654499E-01
         -2   -1    0    0    0  501 -0.00000000000E+00  0.00000000000E+00  0.19346139163E+03  0.19346139164E+03  0.25500000000E-02 0. -1.
          2   -1    0    0  501    0  0.00000000000E+00 -0.00000000000E+00 -0.70365764800E+03  0.70365764800E+03  0.25500000000E-02 0.  1.
    5000001    1    1    2    0    0 -0.27238951324E+03  0.48392919253E+02 -0.71812170067E+02  0.34432384368E+03  0.19200000000E+03 0.  0.
   -5000001    1    1    2    0    0  0.27238951324E+03 -0.48392919253E+02 -0.43838408630E+03  0.55279519596E+03  0.19200000000E+03 0.  0.
<mgrwt>
<rscale>  0 0.73791758E+03</rscale>
<asrwt>0</asrwt>
<pdfrwt beam="1">  1        2 0.10052252E+00 0.73791758E+03</pdfrwt>
<pdfrwt beam="2">  1       -2 0.27637342E-01 0.73791758E+03</pdfrwt>
<totfact> 0.53564039E+02</totfact>
</mgrwt>
</event>
<event>
 4    1  0.2058931E-005  0.6254853E+03  0.7818608E-02  0.9853899E-01
          2   -1    0    0  501    0  0.00000000000E+00  0.00000000000E+00  0.22299179299E+03  0.22299179300E+03  0.25500000000E-02 0. -1.
         -2   -1    0    0    0  501 -0.00000000000E+00 -0.00000000000E+00 -0.43861687880E+03  0.43861687881E+03  0.25500000000E-02 0.  1.
    5000001    1    1    2    0    0 -0.16411820022E+03  0.13331039275E+03 -0.24259827755E+03  0.37473239616E+03  0.19200000000E+03 0.  0.
   -5000001    1    1    2    0    0  0.16411820022E+03 -0.13331039275E+03  0.26973191737E+02  0.28687627565E+03  0.19200000000E+03 0.  0.
<mgrwt>
<rscale>  0 0.62548530E+03</rscale>
<asrwt>0</asrwt>
<pdfrwt beam="1">  1        2 0.31855971E-01 0.62548530E+03</pdfrwt>
<pdfrwt beam="2">  1       -2 0.62659554E-01 0.62548530E+03</pdfrwt>
<totfact> 0.39632024E+02</totfact>
</mgrwt>
</event>
<event>
 4    1  0.2058931E-005  0.5960036E+03  0.7818608E-02  0.9913732E-01
          2   -1    0    0  501    0  0.00000000000E+00  0.00000000000E+00  0.10763739854E+04  0.10763739854E+04  0.25500000000E-02 0.  1.
         -2   -1    0    0    0  501 -0.00000000000E+00 -0.00000000000E+00 -0.82503918696E+02  0.82503918736E+02  0.25500000000E-02 0. -1.
    5000001    1    1    2    0    0 -0.18647621910E+03 -0.98345485982E+02  0.32859033435E+03  0.43506415932E+03  0.19200000000E+03 0.  0.
   -5000001    1    1    2    0    0  0.18647621910E+03  0.98345485982E+02  0.66527973239E+03  0.72381374484E+03  0.19200000000E+03 0.  0.
<mgrwt>
<rscale>  0 0.59600360E+03</rscale>
<asrwt>0</asrwt>
<pdfrwt beam="1">  1        2 0.15376771E+00 0.59600360E+03</pdfrwt>
<pdfrwt beam="2">  1       -2 0.11786274E-01 0.59600360E+03</pdfrwt>
<totfact> 0.13307329E+03</totfact>
</mgrwt>
</event>
<event>
 4    1  0.2058931E-005  0.4572950E+03  0.7818608E-02  0.1025569E+00
          2   -1    0    0  501    0  0.00000000000E+00  0.00000000000E+00  0.15941836633E+03  0.15941836635E+03  0.25500000000E-02 0.  1.
         -2   -1    0    0    0  501 -0.00000000000E+00 -0.00000000000E+00 -0.32794012229E+03  0.32794012230E+03  0.25500000000E-02 0. -1.
    5000001    1    1    2    0    0  0.11161375646E+03 -0.15176585961E+02 -0.28599761643E+02  0.22443240800E+03  0.19200000000E+03 0.  0.
   -5000001    1    1    2    0    0 -0.11161375646E+03  0.15176585961E+02 -0.13992199432E+03  0.26292608065E+03  0.19200000000E+03 0.  0.
<mgrwt>
<rscale>  0 0.45729500E+03</rscale>
<asrwt>0</asrwt>
<pdfrwt beam="1">  1        2 0.22774052E-01 0.45729500E+03</pdfrwt>
<pdfrwt beam="2">  1       -2 0.46848589E-01 0.45729500E+03</pdfrwt>
<totfact> 0.10549001E+03</totfact>
</mgrwt>
</event>
<event>
 4    1  0.2058931E-005  0.6849213E+03  0.7818608E-02  0.9743372E-01
          2   -1    0    0  501    0  0.00000000000E+00  0.00000000000E+00  0.10722743806E+04  0.10722743806E+04  0.25500000000E-02 0.  1.
         -2   -1    0    0    0  501 -0.00000000000E+00 -0.00000000000E+00 -0.10937432623E+03  0.10937432626E+03  0.25500000000E-02 0. -1.
    5000001    1    1    2    0    0  0.27375059928E+03 -0.41940534452E+02  0.58663108103E+03  0.67653412646E+03  0.19200000000E+03 0.  0.
   -5000001    1    1    2    0    0 -0.27375059928E+03  0.41940534452E+02  0.37626897332E+03  0.50511458039E+03  0.19200000000E+03 0.  0.
<mgrwt>
<rscale>  0 0.68492127E+03</rscale>
<asrwt>0</asrwt>
<pdfrwt beam="1">  1        2 0.15318205E+00 0.68492127E+03</pdfrwt>
<pdfrwt beam="2">  1       -2 0.15624904E-01 0.68492127E+03</pdfrwt>
<totfact> 0.83393162E+02</totfact>
</mgrwt>
</event>
<event>
 4    1  0.2058931E-005  0.5755322E+03  0.7818608E-02  0.9957511E-01
          2   -1    0    0  501    0  0.00000000000E+00  0.00000000000E+00  0.14832311726E+04  0.14832311726E+04  0.25500000000E-02 0.  1.
         -2   -1    0    0    0  501 -0.00000000000E+00 -0.00000000000E+00 -0.55830362308E+02  0.55830362366E+02  0.25500000000E-02 0. -1.
    5000001    1    1    2    0    0  0.20625477392E+03  0.55448536058E+02  0.66513952284E+03  0.72449303430E+03  0.19200000000E+03 0.  0.
   -5000001    1    1    2    0    0 -0.20625477392E+03 -0.55448536058E+02  0.76226128741E+03  0.81456850062E+03  0.19200000000E+03 0.  0.
<mgrwt>
<rscale>  0 0.57553222E+03</rscale>
<asrwt>0</asrwt>
<pdfrwt beam="1">  1        2 0.21189018E+00 0.57553222E+03</pdfrwt>
<pdfrwt beam="2">  1       -2 0.79757654E-02 0.57553222E+03</pdfrwt>
<totfact> 0.14965070E+03</totfact>
</mgrwt>
</event>
<event>
 4    1  0.2058931E-005  0.6932511E+03  0.7818608E-02  0.9728844E-01
         -2   -1    0    0    0  501 -0.00000000000E+00  0.00000000000E+00  0.33378384085E+03  0.33378384086E+03  0.25500000000E-02 0. -1.
          2   -1    0    0  501    0  0.00000000000E+00 -0.00000000000E+00 -0.35996134110E+03  0.35996134111E+03  0.25500000000E-02 0.  1.
    5000001    1    1    2    0    0 -0.29067202841E+02 -0.26437137955E+03  0.99009609484E+02  0.34264271680E+03  0.19200000000E+03 0.  0.
   -5000001    1    1    2    0    0  0.29067202841E+02  0.26437137955E+03 -0.12518710974E+03  0.35110246517E+03  0.19200000000E+03 0.  0.
<mgrwt>
<rscale>  0 0.69325112E+03</rscale>
<asrwt>0</asrwt>
<pdfrwt beam="1">  1        2 0.51423049E-01 0.69325112E+03</pdfrwt>
<pdfrwt beam="2">  1       -2 0.47683406E-01 0.69325112E+03</pdfrwt>
<totfact> 0.40881073E+02</totfact>
</mgrwt>
</event>
<event>
 4    1  0.2058931E-005  0.5825332E+03  0.7818608E-02  0.9942322E-01
          2   -1    0    0  501    0  0.00000000000E+00  0.00000000000E+00  0.16967854766E+04  0.16967854766E+04  0.25500000000E-02 0.  1.
         -2   -1    0    0    0  501 -0.00000000000E+00 -0.00000000000E+00 -0.49998208798E+02  0.49998208863E+02  0.25500000000E-02 0. -1.
    5000001    1    1    2    0    0 -0.15309102972E+03 -0.12244222325E+03  0.53046143119E+03  0.59722884341E+03  0.19200000000E+03 0.  0.
   -5000001    1    1    2    0    0  0.15309102972E+03  0.12244222325E+03  0.11163258366E+04  0.11495548421E+04  0.19200000000E+03 0.  0.
<mgrwt>
<rscale>  0 0.58253321E+03</rscale>
<asrwt>0</asrwt>
<pdfrwt beam="1">  1        2 0.24239791E+00 0.58253321E+03</pdfrwt>
<pdfrwt beam="2">  1       -2 0.71426017E-02 0.58253321E+03</pdfrwt>
<totfact> 0.13840774E+03</totfact>
</mgrwt>
</event>
<event>
 4    1  0.2058931E-005  0.1159141E+04  0.7818608E-02  0.9149391E-01
         -2   -1    0    0    0  501 -0.00000000000E+00  0.00000000000E+00  0.72028978098E+03  0.72028978098E+03  0.25500000000E-02 0. -1.
          2   -1    0    0  501    0  0.00000000000E+00 -0.00000000000E+00 -0.46634307859E+03  0.46634307859E+03  0.25500000000E-02 0.  1.
    5000001    1    1    2    0    0 -0.13230212874E+03  0.16475819965E+03 -0.38935880798E+03  0.48281818418E+03  0.19200000000E+03 0.  0.
   -5000001    1    1    2    0    0  0.13230212874E+03 -0.16475819965E+03  0.64330551037E+03  0.70381467539E+03  0.19200000000E+03 0.  0.
<mgrwt>
<rscale>  0 0.11591413E+04</rscale>
<asrwt>0</asrwt>
<pdfrwt beam="1">  1        2 0.66620440E-01 0.11591413E+04</pdfrwt>
<pdfrwt beam="2">  1       -2 0.10289854E+00 0.11591413E+04</pdfrwt>
<totfact> 0.55564818E+01</totfact>
</mgrwt>
</event>
<event>
 4    1  0.2058931E-005  0.6991510E+03  0.7818608E-02  0.9718685E-01
          2   -1    0    0  501    0  0.00000000000E+00  0.00000000000E+00  0.21403990068E+03  0.21403990070E+03  0.25500000000E-02 0.  1.
         -2   -1    0    0    0  501 -0.00000000000E+00 -0.00000000000E+00 -0.57093578444E+03  0.57093578445E+03  0.25500000000E-02 0. -1.
    5000001    1    1    2    0    0 -0.15257104702E+03  0.24044986234E+03 -0.25159938939E+03  0.42574677148E+03  0.19200000000E+03 0.  0.
   -5000001    1    1    2    0    0  0.15257104702E+03 -0.24044986234E+03 -0.10529649437E+03  0.35922891366E+03  0.19200000000E+03 0.  0.
<mgrwt>
<rscale>  0 0.69915102E+03</rscale>
<asrwt>0</asrwt>
<pdfrwt beam="1">  1        2 0.30577129E-01 0.69915102E+03</pdfrwt>
<pdfrwt beam="2">  1       -2 0.81562254E-01 0.69915102E+03</pdfrwt>
<totfact> 0.23267827E+02</totfact>
</mgrwt>
</event>
<event>
 4    1  0.2058931E-005  0.7375143E+03  0.7818608E-02  0.9655145E-01
         -2   -1    0    0    0  501 -0.00000000000E+00  0.00000000000E+00  0.11174070430E+04  0.11174070430E+04  0.25500000000E-02 0. -1.
          2   -1    0    0  501    0  0.00000000000E+00 -0.00000000000E+00 -0.12169410718E+03  0.12169410721E+03  0.25500000000E-02 0.  1.
    5000001    1    1    2    0    0 -0.30060109817E+03 -0.28598690357E+02  0.64755506958E+03  0.73984489823E+03  0.19200000000E+03 0.  0.
   -5000001    1    1    2    0    0  0.30060109817E+03  0.28598690357E+02  0.34815786622E+03  0.49925625196E+03  0.19200000000E+03 0.  0.
<mgrwt>
<rscale>  0 0.73751435E+03</rscale>
<asrwt>0</asrwt>
<pdfrwt beam="1">  1        2 0.17384871E-01 0.73751435E+03</pdfrwt>
<pdfrwt beam="2">  1       -2 0.15962959E+00 0.73751435E+03</pdfrwt>
<totfact> 0.86141905E+01</totfact>
</mgrwt>
</event>
<event>
 4    1  0.2058931E-005  0.6213023E+03  0.7818608E-02  0.9862170E-01
          2   -1    0    0  501    0  0.00000000000E+00  0.00000000000E+00  0.24782140771E+03  0.24782140772E+03  0.25500000000E-02 0.  1.
         -2   -1    0    0    0  501 -0.00000000000E+00 -0.00000000000E+00 -0.38941002302E+03  0.38941002303E+03  0.25500000000E-02 0. -1.
    5000001    1    1    2    0    0 -0.15879019701E+03 -0.16527172626E+03 -0.15728347079E+03  0.33783303621E+03  0.19200000000E+03 0.  0.
   -5000001    1    1    2    0    0  0.15879019701E+03  0.16527172626E+03  0.15694855479E+02  0.29939839454E+03  0.19200000000E+03 0.  0.
<mgrwt>
<rscale>  0 0.62130231E+03</rscale>
<asrwt>0</asrwt>
<pdfrwt beam="1">  1        2 0.35403058E-01 0.62130231E+03</pdfrwt>
<pdfrwt beam="2">  1       -2 0.55630003E-01 0.62130231E+03</pdfrwt>
<totfact> 0.45212560E+02</totfact>
</mgrwt>
</event>
<event>
 4    1  0.2058931E-005  0.5459966E+03  0.7818608E-02  0.1002425E+00
         -2   -1    0    0    0  501 -0.00000000000E+00  0.00000000000E+00  0.39262069109E+02  0.39262069192E+02  0.25500000000E-02 0. -1.
          2   -1    0    0  501    0  0.00000000000E+00 -0.00000000000E+00 -0.18982207976E+04  0.18982207976E+04  0.25500000000E-02 0.  1.
    5000001    1    1    2    0    0 -0.12497685927E+03  0.11571742519E+03 -0.12595940577E+04  0.12854769263E+04  0.19200000000E+03 0.  0.
   -5000001    1    1    2    0    0  0.12497685927E+03 -0.11571742519E+03 -0.59936467071E+03  0.65200594042E+03  0.19200000000E+03 0.  0.
<mgrwt>
<rscale>  0 0.54599662E+03</rscale>
<asrwt>0</asrwt>
<pdfrwt beam="1">  1        2 0.27117434E+00 0.54599662E+03</pdfrwt>
<pdfrwt beam="2">  1       -2 0.56088682E-02 0.54599662E+03</pdfrwt>
<totfact> 0.16030847E+03</totfact>
</mgrwt>
</event>
<event>
 4    1  0.2058931E-005  0.7193365E+03  0.7818608E-02  0.9684724E-01
          2   -1    0    0  501    0  0.00000000000E+00  0.00000000000E+00  0.10629152689E+04  0.10629152689E+04  0.25500000000E-02 0.  1.
         -2   -1    0    0    0  501 -0.00000000000E+00 -0.00000000000E+00 -0.12170418326E+03  0.12170418328E+03  0.25500000000E-02 0. -1.
    5000001    1    1    2    0    0 -0.29416089745E+03  0.74590078074E+02  0.43754903818E+03  0.56604547003E+03  0.19200000000E+03 0.  0.
   -5000001    1    1    2    0    0  0.29416089745E+03 -0.74590078074E+02  0.50366204744E+03  0.61857398213E+03  0.19200000000E+03 0.  0.
<mgrwt>
<rscale>  0 0.71933646E+03</rscale>
<asrwt>0</asrwt>
<pdfrwt beam="1">  1        2 0.15184504E+00 0.71933646E+03</pdfrwt>
<pdfrwt beam="2">  1       -2 0.17386311E-01 0.71933646E+03</pdfrwt>
<totfact> 0.70312869E+02</totfact>
</mgrwt>
</event>
<event>
 4    1  0.2058931E-005  0.5343673E+03  0.7818608E-02  0.1005178E+00
          2   -1    0    0  501    0  0.00000000000E+00  0.00000000000E+00  0.14772284650E+03  0.14772284652E+03  0.25500000000E-02 0.  1.
         -2   -1    0    0    0  501 -0.00000000000E+00 -0.00000000000E+00 -0.48325019712E+03  0.48325019713E+03  0.25500000000E-02 0. -1.
    5000001    1    1    2    0    0  0.13845891250E+03  0.11630754298E+03 -0.21820380288E+03  0.34230865399E+03  0.19200000000E+03 0.  0.
   -5000001    1    1    2    0    0 -0.13845891250E+03 -0.11630754298E+03 -0.11732354774E+03  0.28866438966E+03  0.19200000000E+03 0.  0.
<mgrwt>
<rscale>  0 0.53436727E+03</rscale>
<asrwt>0</asrwt>
<pdfrwt beam="1">  1        2 0.21103264E-01 0.53436727E+03</pdfrwt>
<pdfrwt beam="2">  1       -2 0.69035742E-01 0.53436727E+03</pdfrwt>
<totfact> 0.51545038E+02</totfact>
</mgrwt>
</event>
<event>
 4    1  0.2058931E-005  0.7979159E+03  0.7818608E-02  0.9563039E-01
          2   -1    0    0  501    0  0.00000000000E+00  0.00000000000E+00  0.44611127999E+04  0.44611127999E+04  0.25500000000E-02 0. -1.
         -2   -1    0    0    0  501 -0.00000000000E+00 -0.00000000000E+00 -0.35678868114E+02  0.35678868205E+02  0.25500000000E-02 0.  1.
    5000001    1    1    2    0    0  0.63332391471E+02  0.33831271268E+03  0.25618090122E+04  0.25919482824E+04  0.19200000000E+03 0.  0.
   -5000001    1    1    2    0    0 -0.63332391471E+02 -0.33831271268E+03  0.18636249195E+04  0.19048433857E+04  0.19200000000E+03 0.  0.
<mgrwt>
<rscale>  0 0.79791592E+03</rscale>
<asrwt>0</asrwt>
<pdfrwt beam="1">  1        2 0.63730176E+00 0.79791592E+03</pdfrwt>
<pdfrwt beam="2">  1       -2 0.50969817E-02 0.79791592E+03</pdfrwt>
<totfact> 0.57523067E+01</totfact>
</mgrwt>
</event>
<event>
 4    1  0.2058931E-005  0.7224205E+03  0.7818608E-02  0.9679640E-01
         -2   -1    0    0    0  501 -0.00000000000E+00  0.00000000000E+00  0.12830525933E+03  0.12830525935E+03  0.25500000000E-02 0. -1.
          2   -1    0    0  501    0  0.00000000000E+00 -0.00000000000E+00 -0.10168939078E+04  0.10168939078E+04  0.25500000000E-02 0.  1.
    5000001    1    1    2    0    0  0.23894633105E+03 -0.15628640963E+03 -0.61858294000E+03  0.70783447544E+03  0.19200000000E+03 0.  0.
   -5000001    1    1    2    0    0 -0.23894633105E+03  0.15628640963E+03 -0.27000570848E+03  0.43736469173E+03  0.19200000000E+03 0.  0.
<mgrwt>
<rscale>  0 0.72242048E+03</rscale>
<asrwt>0</asrwt>
<pdfrwt beam="1">  1        2 0.14527055E+00 0.72242048E+03</pdfrwt>
<pdfrwt beam="2">  1       -2 0.18329323E-01 0.72242048E+03</pdfrwt>
<totfact> 0.68414789E+02</totfact>
</mgrwt>
</event>
<event>
 4    1  0.2058931E-005  0.2027273E+04  0.7818608E-02  0.8593975E-01
         -2   -1    0    0    0  501 -0.00000000000E+00  0.00000000000E+00  0.24010103049E+04  0.24010103049E+04  0.25500000000E-02 0. -1.
          2   -1    0    0  501    0  0.00000000000E+00 -0.00000000000E+00 -0.42792794598E+03  0.42792794598E+03  0.25500000000E-02 0.  1.
    5000001    1    1    2    0    0  0.64561941410E+03 -0.31003300466E+03  0.19509612977E+04  0.20871173606E+04  0.19200000000E+03 0.  0.
   -5000001    1    1    2    0    0 -0.64561941410E+03  0.31003300466E+03  0.22121061177E+02  0.74182089023E+03  0.19200000000E+03 0.  0.
<mgrwt>
<rscale>  0 0.20272734E+04</rscale>
<asrwt>0</asrwt>
<pdfrwt beam="1">  1        2 0.61132563E-01 0.20272734E+04</pdfrwt>
<pdfrwt beam="2">  1       -2 0.34300147E+00 0.20272734E+04</pdfrwt>
<totfact> 0.12862940E+00</totfact>
</mgrwt>
</event>
<event>
 4    1  0.2058931E-005  0.1079437E+04  0.7818608E-02  0.9225469E-01
         -2   -1    0    0    0  501 -0.00000000000E+00  0.00000000000E+00  0.19964306178E+03  0.19964306179E+03  0.25500000000E-02 0. -1.
          2   -1    0    0  501    0  0.00000000000E+00 -0.00000000000E+00 -0.14590853711E+04  0.14590853711E+04  0.25500000000E-02 0.  1.
    5000001    1    1    2    0    0 -0.41196237639E+03  0.24225643368E+03 -0.38179404253E+03  0.64111767261E+03  0.19200000000E+03 0.  0.
   -5000001    1    1    2    0    0  0.41196237639E+03 -0.24225643368E+03 -0.87764826676E+03  0.10176107602E+04  0.19200000000E+03 0.  0.
<mgrwt>
<rscale>  0 0.10794374E+04</rscale>
<asrwt>0</asrwt>
<pdfrwt beam="1">  1        2 0.20844076E+00 0.10794374E+04</pdfrwt>
<pdfrwt beam="2">  1       -2 0.28520438E-01 0.10794374E+04</pdfrwt>
<totfact> 0.17183967E+02</totfact>
</mgrwt>
</event>
<event>
 4    1  0.2058931E-005  0.5286912E+03  0.7818608E-02  0.1006550E+00
         -2   -1    0    0    0  501 -0.00000000000E+00  0.00000000000E+00  0.32870245426E+02  0.32870245525E+02  0.25500000000E-02 0. -1.
          2   -1    0    0  501    0  0.00000000000E+00 -0.00000000000E+00 -0.21258918915E+04  0.21258918915E+04  0.25500000000E-02 0.  1.
    5000001    1    1    2    0    0 -0.80011034757E+02  0.15771939218E+03 -0.12167088969E+04  0.12443961235E+04  0.19200000000E+03 0.  0.
   -5000001    1    1    2    0    0  0.80011034757E+02 -0.15771939218E+03 -0.87631274916E+03  0.91436601352E+03  0.19200000000E+03 0.  0.
<mgrwt>
<rscale>  0 0.52869117E+03</rscale>
<asrwt>0</asrwt>
<pdfrwt beam="1">  1        2 0.30369876E+00 0.52869117E+03</pdfrwt>
<pdfrwt beam="2">  1       -2 0.46957507E-02 0.52869117E+03</pdfrwt>
<totfact> 0.16254206E+03</totfact>
</mgrwt>
</event>
<event>
 4    1  0.2058931E-005  0.4491600E+03  0.7818608E-02  0.1027973E+00
          2   -1    0    0  501    0  0.00000000000E+00  0.00000000000E+00  0.17035791817E+04  0.17035791817E+04  0.25500000000E-02 0.  1.
         -2   -1    0    0    0  501 -0.00000000000E+00 -0.00000000000E+00 -0.29606006840E+02  0.29606006950E+02  0.25500000000E-02 0. -1.
    5000001    1    1    2    0    0  0.62110636472E+02 -0.88836540640E+02  0.10017191428E+04  0.10256972766E+04  0.19200000000E+03 0.  0.
   -5000001    1    1    2    0    0 -0.62110636472E+02  0.88836540640E+02  0.67225403202E+03  0.70748791204E+03  0.19200000000E+03 0.  0.
<mgrwt>
<rscale>  0 0.44916000E+03</rscale>
<asrwt>0</asrwt>
<pdfrwt beam="1">  1        2 0.24336847E+00 0.44916000E+03</pdfrwt>
<pdfrwt beam="2">  1       -2 0.42294293E-02 0.44916000E+03</pdfrwt>
<totfact> 0.31123488E+03</totfact>
</mgrwt>
</event>
<event>
 4    1  0.2058931E-005  0.9046788E+03  0.7818608E-02  0.9419751E-01
          2   -1    0    0  501    0  0.00000000000E+00  0.00000000000E+00  0.19243437570E+03  0.19243437572E+03  0.25500000000E-02 0. -1.
         -2   -1    0    0    0  501 -0.00000000000E+00 -0.00000000000E+00 -0.10632764784E+04  0.10632764784E+04  0.25500000000E-02 0.  1.
    5000001    1    1    2    0    0  0.59183587293E+02  0.28748115084E+03 -0.83191558489E+03  0.90282647805E+03  0.19200000000E+03 0.  0.
   -5000001    1    1    2    0    0 -0.59183587293E+02 -0.28748115084E+03 -0.38926517830E+02  0.35288437609E+03  0.19200000000E+03 0.  0.
<mgrwt>
<rscale>  0 0.90467883E+03</rscale>
<asrwt>0</asrwt>
<pdfrwt beam="1">  1        2 0.27490626E-01 0.90467883E+03</pdfrwt>
<pdfrwt beam="2">  1       -2 0.15189664E+00 0.90467883E+03</pdfrwt>
<totfact> 0.57156523E+01</totfact>
</mgrwt>
</event>
<event>
 4    1  0.2058931E-005  0.4592130E+03  0.7818608E-02  0.1025010E+00
          2   -1    0    0  501    0  0.00000000000E+00  0.00000000000E+00  0.13141923614E+03  0.13141923616E+03  0.25500000000E-02 0.  1.
         -2   -1    0    0    0  501 -0.00000000000E+00 -0.00000000000E+00 -0.40115243281E+03  0.40115243282E+03  0.25500000000E-02 0. -1.
    5000001    1    1    2    0    0 -0.10065735769E+03 -0.75451961553E+02 -0.14124459851E+03  0.26951611968E+03  0.19200000000E+03 0.  0.
   -5000001    1    1    2    0    0  0.10065735769E+03  0.75451961553E+02 -0.12848859816E+03  0.26305554930E+03  0.19200000000E+03 0.  0.
<mgrwt>
<rscale>  0 0.45921301E+03</rscale>
<asrwt>0</asrwt>
<pdfrwt beam="1">  1        2 0.18774177E-01 0.45921301E+03</pdfrwt>
<pdfrwt beam="2">  1       -2 0.57307490E-01 0.45921301E+03</pdfrwt>
<totfact> 0.87629672E+02</totfact>
</mgrwt>
</event>
<event>
 4    1  0.2058931E-005  0.3937362E+03  0.7818608E-02  0.1045970E+00
          2   -1    0    0  501    0  0.00000000000E+00  0.00000000000E+00  0.38591857511E+02  0.38591857595E+02  0.25500000000E-02 0.  1.
         -2   -1    0    0    0  501 -0.00000000000E+00 -0.00000000000E+00 -0.10042806079E+04  0.10042806079E+04  0.25500000000E-02 0. -1.
    5000001    1    1    2    0    0 -0.11142549588E+01  0.34403745152E+02 -0.41235847843E+03  0.45616704613E+03  0.19200000000E+03 0.  0.
   -5000001    1    1    2    0    0  0.11142549588E+01 -0.34403745152E+02 -0.55333027194E+03  0.58670541934E+03  0.19200000000E+03 0.  0.
<mgrwt>
<rscale>  0 0.39373623E+03</rscale>
<asrwt>0</asrwt>
<pdfrwt beam="1">  1        2 0.55131231E-02 0.39373623E+03</pdfrwt>
<pdfrwt beam="2">  1       -2 0.14346864E+00 0.39373623E+03</pdfrwt>
<totfact> 0.49384857E+02</totfact>
</mgrwt>
</event>
<event>
 4    1  0.2058931E-005  0.7412278E+03  0.7818608E-02  0.9649214E-01
          2   -1    0    0  501    0  0.00000000000E+00  0.00000000000E+00  0.42603137455E+04  0.42603137455E+04  0.25500000000E-02 0.  1.
         -2   -1    0    0    0  501 -0.00000000000E+00 -0.00000000000E+00 -0.32240503483E+02  0.32240503584E+02  0.25500000000E-02 0. -1.
    5000001    1    1    2    0    0 -0.30757771243E+03  0.69819420360E+01  0.25565139987E+04  0.25821077867E+04  0.19200000000E+03 0.  0.
   -5000001    1    1    2    0    0  0.30757771243E+03 -0.69819420360E+01  0.16715592434E+04  0.17104464624E+04  0.19200000000E+03 0.  0.
<mgrwt>
<rscale>  0 0.74122779E+03</rscale>
<asrwt>0</asrwt>
<pdfrwt beam="1">  1        2 0.60861614E+00 0.74122779E+03</pdfrwt>
<pdfrwt beam="2">  1       -2 0.46057871E-02 0.74122779E+03</pdfrwt>
<totfact> 0.95855780E+01</totfact>
</mgrwt>
</event>
<event>
 4    1  0.2058931E-005  0.4983676E+03  0.7818608E-02  0.1014206E+00
         -2   -1    0    0    0  501 -0.00000000000E+00  0.00000000000E+00  0.31591051887E+03  0.31591051888E+03  0.25500000000E-02 0. -1.
          2   -1    0    0  501    0  0.00000000000E+00 -0.00000000000E+00 -0.19655112179E+03  0.19655112181E+03  0.25500000000E-02 0.  1.
    5000001    1    1    2    0    0  0.85250698761E+02  0.11488683071E+03 -0.11278365486E+02  0.23970370677E+03  0.19200000000E+03 0.  0.
   -5000001    1    1    2    0    0 -0.85250698761E+02 -0.11488683071E+03  0.13063776257E+03  0.27275793392E+03  0.19200000000E+03 0.  0.
<mgrwt>
<rscale>  0 0.49836760E+03</rscale>
<asrwt>0</asrwt>
<pdfrwt beam="1">  1        2 0.28078732E-01 0.49836760E+03</pdfrwt>
<pdfrwt beam="2">  1       -2 0.45130074E-01 0.49836760E+03</pdfrwt>
<totfact> 0.89596063E+02</totfact>
</mgrwt>
</event>
<event>
 4    1  0.2058931E-005  0.9265779E+03  0.7818608E-02  0.9392954E-01
         -2   -1    0    0    0  501 -0.00000000000E+00  0.00000000000E+00  0.32740490796E+03  0.32740490797E+03  0.25500000000E-02 0. -1.
          2   -1    0    0  501    0  0.00000000000E+00 -0.00000000000E+00 -0.65556939131E+03  0.65556939131E+03  0.25500000000E-02 0.  1.
    5000001    1    1    2    0    0 -0.68945712448E+02 -0.40653824942E+03 -0.25744909614E+03  0.52265753281E+03  0.19200000000E+03 0.  0.
   -5000001    1    1    2    0    0  0.68945712448E+02  0.40653824942E+03 -0.70715387215E+02  0.46031676647E+03  0.19200000000E+03 0.  0.
<mgrwt>
<rscale>  0 0.92657787E+03</rscale>
<asrwt>0</asrwt>
<pdfrwt beam="1">  1        2 0.93652770E-01 0.92657787E+03</pdfrwt>
<pdfrwt beam="2">  1       -2 0.46772130E-01 0.92657787E+03</pdfrwt>
<totfact> 0.21164273E+02</totfact>
</mgrwt>
</event>
<event>
 4    1  0.2058931E-005  0.4488748E+03  0.7818608E-02  0.1028058E+00
         -2   -1    0    0    0  501 -0.00000000000E+00  0.00000000000E+00  0.77816399228E+03  0.77816399229E+03  0.25500000000E-02 0. -1.
          2   -1    0    0  501    0  0.00000000000E+00 -0.00000000000E+00 -0.64732042568E+02  0.64732042618E+02  0.25500000000E-02 0.  1.
    5000001    1    1    2    0    0 -0.11117515982E+03  0.33830810902E+02  0.36033031793E+03  0.42450721778E+03  0.19200000000E+03 0.  0.
   -5000001    1    1    2    0    0  0.11117515982E+03 -0.33830810902E+02  0.35310163179E+03  0.41838881713E+03  0.19200000000E+03 0.  0.
<mgrwt>
<rscale>  0 0.44887479E+03</rscale>
<asrwt>0</asrwt>
<pdfrwt beam="1">  1        2 0.92474349E-02 0.44887479E+03</pdfrwt>
<pdfrwt beam="2">  1       -2 0.11116628E+00 0.44887479E+03</pdfrwt>
<totfact> 0.47489263E+02</totfact>
</mgrwt>
</event>
<event>
 4    1  0.2058931E-005  0.5858900E+03  0.7818608E-02  0.9935120E-01
          2   -1    0    0  501    0  0.00000000000E+00  0.00000000000E+00  0.23002851793E+04  0.23002851793E+04  0.25500000000E-02 0.  1.
         -2   -1    0    0    0  501 -0.00000000000E+00 -0.00000000000E+00 -0.37307019804E+02  0.37307019891E+02  0.25500000000E-02 0. -1.
    5000001    1    1    2    0    0  0.13798359333E+03 -0.15225635578E+03  0.14588317261E+04  0.14856902352E+04  0.19200000000E+03 0.  0.
   -5000001    1    1    2    0    0 -0.13798359333E+03  0.15225635578E+03  0.80414643338E+03  0.85190196397E+03  0.19200000000E+03 0.  0.
<mgrwt>
<rscale>  0 0.58589004E+03</rscale>
<asrwt>0</asrwt>
<pdfrwt beam="1">  1        2 0.32861225E+00 0.58589004E+03</pdfrwt>
<pdfrwt beam="2">  1       -2 0.53295729E-02 0.58589004E+03</pdfrwt>
<totfact> 0.10880121E+03</totfact>
</mgrwt>
</event>
<event>
 4    1  0.2058931E-005  0.4738353E+03  0.7818608E-02  0.1020843E+00
         -2   -1    0    0    0  501 -0.00000000000E+00  0.00000000000E+00  0.18461271350E+03  0.18461271352E+03  0.25500000000E-02 0. -1.
          2   -1    0    0  501    0  0.00000000000E+00 -0.00000000000E+00 -0.30404169614E+03  0.30404169616E+03  0.25500000000E-02 0.  1.
    5000001    1    1    2    0    0  0.10462772753E+03  0.87576940334E+02 -0.33436588752E+02  0.23790478623E+03  0.19200000000E+03 0.  0.
   -5000001    1    1    2    0    0 -0.10462772753E+03 -0.87576940334E+02 -0.85992393894E+02  0.25074962344E+03  0.19200000000E+03 0.  0.
<mgrwt>
<rscale>  0 0.47383526E+03</rscale>
<asrwt>0</asrwt>
<pdfrwt beam="1">  1        2 0.43434528E-01 0.47383526E+03</pdfrwt>
<pdfrwt beam="2">  1       -2 0.26373245E-01 0.47383526E+03</pdfrwt>
<totfact> 0.15213429E+03</totfact>
</mgrwt>
</event>
<event>
 4    1  0.2058931E-005  0.4396339E+03  0.7818608E-02  0.1030859E+00
         -2   -1    0    0    0  501 -0.00000000000E+00  0.00000000000E+00  0.60575240183E+02  0.60575240237E+02  0.25500000000E-02 0. -1.
          2   -1    0    0  501    0  0.00000000000E+00 -0.00000000000E+00 -0.79767719367E+03  0.79767719367E+03  0.25500000000E-02 0.  1.
    5000001    1    1    2    0    0  0.91698890602E+02  0.44125744530E+02 -0.30381213865E+03  0.37352588057E+03  0.19200000000E+03 0.  0.
   -5000001    1    1    2    0    0 -0.91698890602E+02 -0.44125744530E+02 -0.43328981484E+03  0.48472655334E+03  0.19200000000E+03 0.  0.
<mgrwt>
<rscale>  0 0.43963388E+03</rscale>
<asrwt>0</asrwt>
<pdfrwt beam="1">  1        2 0.11395388E+00 0.43963388E+03</pdfrwt>
<pdfrwt beam="2">  1       -2 0.86536062E-02 0.43963388E+03</pdfrwt>
<totfact> 0.32883220E+03</totfact>
</mgrwt>
</event>
<event>
 4    1  0.2058931E-005  0.5335760E+03  0.7818608E-02  0.1005369E+00
          2   -1    0    0  501    0  0.00000000000E+00  0.00000000000E+00  0.37364779918E+03  0.37364779919E+03  0.25500000000E-02 0.  1.
         -2   -1    0    0    0  501 -0.00000000000E+00 -0.00000000000E+00 -0.19048909730E+03  0.19048909732E+03  0.25500000000E-02 0. -1.
    5000001    1    1    2    0    0 -0.18417154127E+03 -0.18321938875E+02  0.99560341403E+02  0.28465964174E+03  0.19200000000E+03 0.  0.
   -5000001    1    1    2    0    0  0.18417154127E+03  0.18321938875E+02  0.83598360472E+02  0.27947725476E+03  0.19200000000E+03 0.  0.
<mgrwt>
<rscale>  0 0.53357598E+03</rscale>
<asrwt>0</asrwt>
<pdfrwt beam="1">  1        2 0.53378258E-01 0.53357598E+03</pdfrwt>
<pdfrwt beam="2">  1       -2 0.27212728E-01 0.53357598E+03</pdfrwt>
<totfact> 0.11465059E+03</totfact>
</mgrwt>
</event>
<event>
 4    1  0.2058931E-005  0.8744819E+03  0.7818608E-02  0.9458055E-01
         -2   -1    0    0    0  501 -0.00000000000E+00  0.00000000000E+00  0.15078420427E+03  0.15078420429E+03  0.25500000000E-02 0.  1.
          2   -1    0    0  501    0  0.00000000000E+00 -0.00000000000E+00 -0.12679024942E+04  0.12679024942E+04  0.25500000000E-02 0. -1.
    5000001    1    1    2    0    0  0.72888362011E+02  0.38550599976E+03 -0.59051835362E+03  0.73450902999E+03  0.19200000000E+03 0.  0.
   -5000001    1    1    2    0    0 -0.72888362011E+02 -0.38550599976E+03 -0.52659993631E+03  0.68417766851E+03  0.19200000000E+03 0.  0.
<mgrwt>
<rscale>  0 0.87448195E+03</rscale>
<asrwt>0</asrwt>
<pdfrwt beam="1">  1        2 0.18112892E+00 0.87448195E+03</pdfrwt>
<pdfrwt beam="2">  1       -2 0.21540601E-01 0.87448195E+03</pdfrwt>
<totfact> 0.36675181E+02</totfact>
</mgrwt>
</event>
<event>
 4    1  0.2058931E-005  0.5082602E+03  0.7818608E-02  0.1011645E+00
          2   -1    0    0  501    0  0.00000000000E+00  0.00000000000E+00  0.14858260273E+04  0.14858260273E+04  0.25500000000E-02 0.  1.
         -2   -1    0    0    0  501 -0.00000000000E+00 -0.00000000000E+00 -0.43465457019E+02  0.43465457094E+02  0.25500000000E-02 0. -1.
    5000001    1    1    2    0    0 -0.79513405502E+02  0.13001353400E+03  0.51951365820E+03  0.57444263572E+03  0.19200000000E+03 0.  0.
   -5000001    1    1    2    0    0  0.79513405502E+02 -0.13001353400E+03  0.92284691204E+03  0.95484884863E+03  0.19200000000E+03 0.  0.
<mgrwt>
<rscale>  0 0.50826020E+03</rscale>
<asrwt>0</asrwt>
<pdfrwt beam="1">  1        2 0.21226079E+00 0.50826020E+03</pdfrwt>
<pdfrwt beam="2">  1       -2 0.62093532E-02 0.50826020E+03</pdfrwt>
<totfact> 0.22182848E+03</totfact>
</mgrwt>
</event>
<event>
 4    1  0.2058931E-005  0.5499159E+03  0.7818608E-02  0.1001513E+00
         -2   -1    0    0    0  501 -0.00000000000E+00  0.00000000000E+00  0.64015643154E+02  0.64015643205E+02  0.25500000000E-02 0.  1.
          2   -1    0    0  501    0  0.00000000000E+00 -0.00000000000E+00 -0.11809907713E+04  0.11809907713E+04  0.25500000000E-02 0. -1.
    5000001    1    1    2    0    0  0.16626168848E+03  0.63294829791E+02 -0.36787191104E+03  0.45148967593E+03  0.19200000000E+03 0.  0.
   -5000001    1    1    2    0    0 -0.16626168848E+03 -0.63294829791E+02 -0.74910321710E+03  0.79351673858E+03  0.19200000000E+03 0.  0.
<mgrwt>
<rscale>  0 0.54991593E+03</rscale>
<asrwt>0</asrwt>
<pdfrwt beam="1">  1        2 0.16871295E+00 0.54991593E+03</pdfrwt>
<pdfrwt beam="2">  1       -2 0.91450926E-02 0.54991593E+03</pdfrwt>
<totfact> 0.17514234E+03</totfact>
</mgrwt>
</event>
<event>
 4    1  0.2058931E-005  0.8918591E+03  0.7818608E-02  0.9435816E-01
          2   -1    0    0  501    0  0.00000000000E+00  0.00000000000E+00  0.26538283466E+04  0.26538283466E+04  0.25500000000E-02 0.  1.
         -2   -1    0    0    0  501 -0.00000000000E+00 -0.00000000000E+00 -0.74930674813E+02  0.74930674857E+02  0.25500000000E-02 0. -1.
    5000001    1    1    2    0    0 -0.18361347272E+03 -0.24035127470E+03  0.21018743431E+04  0.21321872331E+04  0.19200000000E+03 0.  0.
   -5000001    1    1    2    0    0  0.18361347272E+03  0.24035127470E+03  0.47702332871E+03  0.59657178843E+03  0.19200000000E+03 0.  0.
<mgrwt>
<rscale>  0 0.89185907E+03</rscale>
<asrwt>0</asrwt>
<pdfrwt beam="1">  1        2 0.37911828E+00 0.89185907E+03</pdfrwt>
<pdfrwt beam="2">  1       -2 0.10704384E-01 0.89185907E+03</pdfrwt>
<totfact> 0.22956031E+02</totfact>
</mgrwt>
</event>
<event>
 4    1  0.2058931E-005  0.8957159E+03  0.7818608E-02  0.9430953E-01
         -2   -1    0    0    0  501 -0.00000000000E+00  0.00000000000E+00  0.19756744858E+03  0.19756744859E+03  0.25500000000E-02 0. -1.
          2   -1    0    0  501    0  0.00000000000E+00 -0.00000000000E+00 -0.10152317745E+04  0.10152317745E+04  0.25500000000E-02 0.  1.
    5000001    1    1    2    0    0 -0.28319202315E+03  0.18207532120E+03 -0.10496971631E+03  0.40153678027E+03  0.19200000000E+03 0.  0.
   -5000001    1    1    2    0    0  0.28319202315E+03 -0.18207532120E+03 -0.71269460959E+03  0.81126244280E+03  0.19200000000E+03 0.  0.
<mgrwt>
<rscale>  0 0.89571592E+03</rscale>
<asrwt>0</asrwt>
<pdfrwt beam="1">  1        2 0.14503311E+00 0.89571592E+03</pdfrwt>
<pdfrwt beam="2">  1       -2 0.28223922E-01 0.89571592E+03</pdfrwt>
<totfact> 0.31550766E+02</totfact>
</mgrwt>
</event>
<event>
 4    1  0.2058931E-005  0.9062243E+03  0.7818608E-02  0.9417834E-01
         -2   -1    0    0    0  501 -0.00000000000E+00  0.00000000000E+00  0.63613331154E+03  0.63613331154E+03  0.25500000000E-02 0. -1.
          2   -1    0    0  501    0  0.00000000000E+00 -0.00000000000E+00 -0.32274780104E+03  0.32274780105E+03  0.25500000000E-02 0.  1.
    5000001    1    1    2    0    0  0.84949057399E+02 -0.37779793012E+03  0.12778674936E+02  0.43240595843E+03  0.19200000000E+03 0.  0.
   -5000001    1    1    2    0    0 -0.84949057399E+02  0.37779793012E+03  0.30060683556E+03  0.52647515415E+03  0.19200000000E+03 0.  0.
<mgrwt>
<rscale>  0 0.90622432E+03</rscale>
<asrwt>0</asrwt>
<pdfrwt beam="1">  1        2 0.46106829E-01 0.90622432E+03</pdfrwt>
<pdfrwt beam="2">  1       -2 0.90876188E-01 0.90622432E+03</pdfrwt>
<totfact> 0.11399630E+02</totfact>
</mgrwt>
</event>
<event>
 4    1  0.2058931E-005  0.5253120E+03  0.7818608E-02  0.1007375E+00
         -2   -1    0    0    0  501 -0.00000000000E+00  0.00000000000E+00  0.99444550497E+02  0.99444550529E+02  0.25500000000E-02 0. -1.
          2   -1    0    0  501    0  0.00000000000E+00 -0.00000000000E+00 -0.69373498933E+03  0.69373498934E+03  0.25500000000E-02 0.  1.
    5000001    1    1    2    0    0  0.17232599951E+03 -0.47225945485E+02 -0.27591892266E+03  0.38068594920E+03  0.19200000000E+03 0.  0.
   -5000001    1    1    2    0    0 -0.17232599951E+03  0.47225945485E+02 -0.31837151617E+03  0.41249359067E+03  0.19200000000E+03 0.  0.
<mgrwt>
<rscale>  0 0.52531196E+03</rscale>
<asrwt>0</asrwt>
<pdfrwt beam="1">  1        2 0.99104996E-01 0.52531196E+03</pdfrwt>
<pdfrwt beam="2">  1       -2 0.14206365E-01 0.52531196E+03</pdfrwt>
<totfact> 0.17455973E+03</totfact>
</mgrwt>
</event>
<event>
 4    1  0.2058931E-005  0.4586802E+03  0.7818608E-02  0.1025165E+00
          2   -1    0    0  501    0  0.00000000000E+00  0.00000000000E+00  0.38739536249E+03  0.38739536250E+03  0.25500000000E-02 0.  1.
         -2   -1    0    0    0  501 -0.00000000000E+00 -0.00000000000E+00 -0.13577054478E+03  0.13577054480E+03  0.25500000000E-02 0. -1.
    5000001    1    1    2    0    0  0.12039508829E+03  0.27470939948E+02  0.15088592251E+03  0.27364245182E+03  0.19200000000E+03 0.  0.
   -5000001    1    1    2    0    0 -0.12039508829E+03 -0.27470939948E+02  0.10073889520E+03  0.24952345548E+03  0.19200000000E+03 0.  0.
<mgrwt>
<rscale>  0 0.45868019E+03</rscale>
<asrwt>0</asrwt>
<pdfrwt beam="1">  1        2 0.55342195E-01 0.45868019E+03</pdfrwt>
<pdfrwt beam="2">  1       -2 0.19395792E-01 0.45868019E+03</pdfrwt>
<totfact> 0.20033871E+03</totfact>
</mgrwt>
</event>
<event>
 4    1  0.2058931E-005  0.4678901E+03  0.7818608E-02  0.1022517E+00
          2   -1    0    0  501    0  0.00000000000E+00  0.00000000000E+00  0.13051152593E+03  0.13051152596E+03  0.25500000000E-02 0.  1.
         -2   -1    0    0    0  501 -0.00000000000E+00 -0.00000000000E+00 -0.41935217150E+03  0.41935217151E+03  0.25500000000E-02 0. -1.
    5000001    1    1    2    0    0 -0.11407151475E+03  0.62974871167E+02 -0.17944334197E+03  0.29332926525E+03  0.19200000000E+03 0.  0.
   -5000001    1    1    2    0    0  0.11407151475E+03 -0.62974871167E+02 -0.10939730360E+03  0.25653443221E+03  0.19200000000E+03 0.  0.
<mgrwt>
<rscale>  0 0.46789012E+03</rscale>
<asrwt>0</asrwt>
<pdfrwt beam="1">  1        2 0.18644504E-01 0.46789012E+03</pdfrwt>
<pdfrwt beam="2">  1       -2 0.59907452E-01 0.46789012E+03</pdfrwt>
<totfact> 0.80552825E+02</totfact>
</mgrwt>
</event>
<event>
 4    1  0.2058931E-005  0.4708244E+03  0.7818608E-02  0.1021688E+00
         -2   -1    0    0    0  501 -0.00000000000E+00  0.00000000000E+00  0.72192625274E+02  0.72192625319E+02  0.25500000000E-02 0. -1.
          2   -1    0    0  501    0  0.00000000000E+00 -0.00000000000E+00 -0.76765314744E+03  0.76765314745E+03  0.25500000000E-02 0.  1.
    5000001    1    1    2    0    0 -0.13028061799E+02  0.96473586367E+02 -0.17777445543E+03  0.27918567346E+03  0.19200000000E+03 0.  0.
   -5000001    1    1    2    0    0  0.13028061799E+02 -0.96473586367E+02 -0.51768606673E+03  0.56066009930E+03  0.19200000000E+03 0.  0.
<mgrwt>
<rscale>  0 0.47082437E+03</rscale>
<asrwt>0</asrwt>
<pdfrwt beam="1">  1        2 0.10966473E+00 0.47082437E+03</pdfrwt>
<pdfrwt beam="2">  1       -2 0.10313233E-01 0.47082437E+03</pdfrwt>
<totfact> 0.26058742E+03</totfact>
</mgrwt>
</event>
<event>
 4    1  0.2058931E-005  0.7358931E+03  0.7818608E-02  0.9657746E-01
          2   -1    0    0  501    0  0.00000000000E+00  0.00000000000E+00  0.27933585642E+04  0.27933585642E+04  0.25500000000E-02 0.  1.
         -2   -1    0    0    0  501 -0.00000000000E+00 -0.00000000000E+00 -0.48466620539E+02  0.48466620606E+02  0.25500000000E-02 0. -1.
    5000001    1    1    2    0    0 -0.22356003046E+03 -0.18340580596E+03  0.18438922567E+04  0.18762780794E+04  0.19200000000E+03 0.  0.
   -5000001    1    1    2    0    0  0.22356003046E+03  0.18340580596E+03  0.90099968696E+03  0.96554710541E+03  0.19200000000E+03 0.  0.
<mgrwt>
<rscale>  0 0.73589306E+03</rscale>
<asrwt>0</asrwt>
<pdfrwt beam="1">  1        2 0.39905122E+00 0.73589306E+03</pdfrwt>
<pdfrwt beam="2">  1       -2 0.69238029E-02 0.73589306E+03</pdfrwt>
<totfact> 0.39619041E+02</totfact>
</mgrwt>
</event>
<event>
 4    1  0.2058931E-005  0.6241386E+03  0.7818608E-02  0.9856554E-01
         -2   -1    0    0    0  501 -0.00000000000E+00  0.00000000000E+00  0.35721652071E+02  0.35721652162E+02  0.25500000000E-02 0. -1.
          2   -1    0    0  501    0  0.00000000000E+00 -0.00000000000E+00 -0.27262803294E+04  0.27262803294E+04  0.25500000000E-02 0.  1.
    5000001    1    1    2    0    0 -0.22425306771E+03 -0.45172342012E+02 -0.17458427704E+04  0.17712032514E+04  0.19200000000E+03 0.  0.
   -5000001    1    1    2    0    0  0.22425306771E+03  0.45172342012E+02 -0.94471590692E+03  0.99079873014E+03  0.19200000000E+03 0.  0.
<mgrwt>
<rscale>  0 0.62413857E+03</rscale>
<asrwt>0</asrwt>
<pdfrwt beam="1">  1        2 0.38946849E+00 0.62413857E+03</pdfrwt>
<pdfrwt beam="2">  1       -2 0.51030949E-02 0.62413857E+03</pdfrwt>
<totfact> 0.70075978E+02</totfact>
</mgrwt>
</event>
<event>
 4    1  0.2058931E-005  0.9948974E+03  0.7818608E-02  0.9314159E-01
          2   -1    0    0  501    0  0.00000000000E+00  0.00000000000E+00  0.27942795531E+04  0.27942795531E+04  0.25500000000E-02 0.  1.
         -2   -1    0    0    0  501 -0.00000000000E+00 -0.00000000000E+00 -0.88557793968E+02  0.88557794005E+02  0.25500000000E-02 0. -1.
    5000001    1    1    2    0    0 -0.19337222417E+03 -0.38446483148E+03  0.18145314563E+04  0.18747251611E+04  0.19200000000E+03 0.  0.
   -5000001    1    1    2    0    0  0.19337222417E+03  0.38446483148E+03  0.89119030281E+03  0.10081121860E+04  0.19200000000E+03 0.  0.
<mgrwt>
<rscale>  0 0.99489745E+03</rscale>
<asrwt>0</asrwt>
<pdfrwt beam="1">  1        2 0.39918279E+00 0.99489745E+03</pdfrwt>
<pdfrwt beam="2">  1       -2 0.12651114E-01 0.99489745E+03</pdfrwt>
<totfact> 0.14531396E+02</totfact>
</mgrwt>
</event>
<event>
 4    1  0.2058931E-005  0.6715311E+03  0.7818608E-02  0.9767196E-01
          2   -1    0    0  501    0  0.00000000000E+00  0.00000000000E+00  0.43419872484E+03  0.43419872485E+03  0.25500000000E-02 0.  1.
         -2   -1    0    0    0  501 -0.00000000000E+00 -0.00000000000E+00 -0.25964721161E+03  0.25964721163E+03  0.25500000000E-02 0. -1.
    5000001    1    1    2    0    0  0.11234922417E+03 -0.20605247327E+03 -0.61719136246E+02  0.30944017466E+03  0.19200000000E+03 0.  0.
   -5000001    1    1    2    0    0 -0.11234922417E+03  0.20605247327E+03  0.23627064947E+03  0.38440576182E+03  0.19200000000E+03 0.  0.
<mgrwt>
<rscale>  0 0.67153105E+03</rscale>
<asrwt>0</asrwt>
<pdfrwt beam="1">  1        2 0.62028390E-01 0.67153105E+03</pdfrwt>
<pdfrwt beam="2">  1       -2 0.37092458E-01 0.67153105E+03</pdfrwt>
<totfact> 0.54343650E+02</totfact>
</mgrwt>
</event>
<event>
 4    1  0.2058931E-005  0.4710150E+03  0.7818608E-02  0.1021634E+00
          2   -1    0    0  501    0  0.00000000000E+00  0.00000000000E+00  0.16967521121E+04  0.16967521121E+04  0.25500000000E-02 0.  1.
         -2   -1    0    0    0  501 -0.00000000000E+00 -0.00000000000E+00 -0.32688204990E+02  0.32688205090E+02  0.25500000000E-02 0. -1.
    5000001    1    1    2    0    0  0.65332184912E+02 -0.79733565545E+02  0.11599083784E+04  0.11802021785E+04  0.19200000000E+03 0.  0.
   -5000001    1    1    2    0    0 -0.65332184912E+02  0.79733565545E+02  0.50415552868E+03  0.54923813866E+03  0.19200000000E+03 0.  0.
<mgrwt>
<rscale>  0 0.47101499E+03</rscale>
<asrwt>0</asrwt>
<pdfrwt beam="1">  1        2 0.24239313E+00 0.47101499E+03</pdfrwt>
<pdfrwt beam="2">  1       -2 0.46697441E-02 0.47101499E+03</pdfrwt>
<totfact> 0.26939390E+03</totfact>
</mgrwt>
</event>
<event>
 4    1  0.2058931E-005  0.1009135E+04  0.7818608E-02  0.9298582E-01
          2   -1    0    0  501    0  0.00000000000E+00  0.00000000000E+00  0.24281733473E+04  0.24281733473E+04  0.25500000000E-02 0.  1.
         -2   -1    0    0    0  501 -0.00000000000E+00 -0.00000000000E+00 -0.10484765479E+03  0.10484765482E+03  0.25500000000E-02 0. -1.
    5000001    1    1    2    0    0 -0.12885275110E+03  0.35882448621E+03  0.18369019542E+04  0.18858501618E+04  0.19200000000E+03 0.  0.
   -5000001    1    1    2    0    0  0.12885275110E+03 -0.35882448621E+03  0.48642373825E+03  0.64717084027E+03  0.19200000000E+03 0.  0.
<mgrwt>
<rscale>  0 0.10091348E+04</rscale>
<asrwt>0</asrwt>
<pdfrwt beam="1">  1        2 0.34688186E+00 0.10091348E+04</pdfrwt>
<pdfrwt beam="2">  1       -2 0.14978238E-01 0.10091348E+04</pdfrwt>
<totfact> 0.17029829E+02</totfact>
</mgrwt>
</event>
<event>
 4    1  0.2058931E-005  0.6623527E+03  0.7818608E-02  0.9783872E-01
          2   -1    0    0  501    0  0.00000000000E+00  0.00000000000E+00  0.52639566819E+03  0.52639566819E+03  0.25500000000E-02 0.  1.
         -2   -1    0    0    0  501 -0.00000000000E+00 -0.00000000000E+00 -0.20835616128E+03  0.20835616130E+03  0.25500000000E-02 0. -1.
    5000001    1    1    2    0    0  0.21328864547E+03  0.58267547881E+02  0.33060980153E+03  0.44164917558E+03  0.19200000000E+03 0.  0.
   -5000001    1    1    2    0    0 -0.21328864547E+03 -0.58267547881E+02 -0.12570294622E+02  0.29310265391E+03  0.19200000000E+03 0.  0.
<mgrwt>
<rscale>  0 0.66235272E+03</rscale>
<asrwt>0</asrwt>
<pdfrwt beam="1">  1        2 0.75199380E-01 0.66235272E+03</pdfrwt>
<pdfrwt beam="2">  1       -2 0.29765166E-01 0.66235272E+03</pdfrwt>
<totfact> 0.66105281E+02</totfact>
</mgrwt>
</event>
<event>
 4    1  0.2058931E-005  0.7755739E+03  0.7818608E-02  0.9596062E-01
          2   -1    0    0  501    0  0.00000000000E+00  0.00000000000E+00  0.11580105684E+04  0.11580105684E+04  0.25500000000E-02 0.  1.
         -2   -1    0    0    0  501 -0.00000000000E+00 -0.00000000000E+00 -0.12985953884E+03  0.12985953887E+03  0.25500000000E-02 0. -1.
    5000001    1    1    2    0    0  0.31413686193E+03 -0.11607351197E+03  0.45284486607E+03  0.59505251948E+03  0.19200000000E+03 0.  0.
   -5000001    1    1    2    0    0 -0.31413686193E+03  0.11607351197E+03  0.57530616344E+03  0.69281758775E+03  0.19200000000E+03 0.  0.
<mgrwt>
<rscale>  0 0.77557390E+03</rscale>
<asrwt>0</asrwt>
<pdfrwt beam="1">  1        2 0.16543008E+00 0.77557390E+03</pdfrwt>
<pdfrwt beam="2">  1       -2 0.18551362E-01 0.77557390E+03</pdfrwt>
<totfact> 0.55204778E+02</totfact>
</mgrwt>
</event>
<event>
 4    1  0.2058931E-005  0.7452933E+03  0.7818608E-02  0.9642763E-01
         -2   -1    0    0    0  501 -0.00000000000E+00  0.00000000000E+00  0.39190669316E+03  0.39190669317E+03  0.25500000000E-02 0. -1.
          2   -1    0    0  501    0  0.00000000000E+00 -0.00000000000E+00 -0.35433315170E+03  0.35433315171E+03  0.25500000000E-02 0.  1.
    5000001    1    1    2    0    0  0.26004002110E+03  0.66122325530E+02  0.19223656022E+03  0.38185320424E+03  0.19200000000E+03 0.  0.
   -5000001    1    1    2    0    0 -0.26004002110E+03 -0.66122325530E+02 -0.15466301876E+03  0.36438664064E+03  0.19200000000E+03 0.  0.
<mgrwt>
<rscale>  0 0.74529332E+03</rscale>
<asrwt>0</asrwt>
<pdfrwt beam="1">  1        2 0.50619022E-01 0.74529332E+03</pdfrwt>
<pdfrwt beam="2">  1       -2 0.55986670E-01 0.74529332E+03</pdfrwt>
<totfact> 0.29913760E+02</totfact>
</mgrwt>
</event>
<event>
 4    1  0.2058931E-005  0.4970004E+03  0.7818608E-02  0.1014565E+00
          2   -1    0    0  501    0  0.00000000000E+00  0.00000000000E+00  0.88104825015E+03  0.88104825016E+03  0.25500000000E-02 0.  1.
         -2   -1    0    0    0  501 -0.00000000000E+00 -0.00000000000E+00 -0.70089642612E+02  0.70089642658E+02  0.25500000000E-02 0. -1.
    5000001    1    1    2    0    0  0.15637952861E+02 -0.15636269206E+03  0.37878806026E+03  0.45281147472E+03  0.19200000000E+03 0.  0.
   -5000001    1    1    2    0    0 -0.15637952861E+02  0.15636269206E+03  0.43217054728E+03  0.49832641810E+03  0.19200000000E+03 0.  0.
<mgrwt>
<rscale>  0 0.49700043E+03</rscale>
<asrwt>0</asrwt>
<pdfrwt beam="1">  1        2 0.12586404E+00 0.49700043E+03</pdfrwt>
<pdfrwt beam="2">  1       -2 0.10012805E-01 0.49700043E+03</pdfrwt>
<totfact> 0.22915316E+03</totfact>
</mgrwt>
</event>
<event>
 4    1  0.2058931E-005  0.6133660E+03  0.7818608E-02  0.9878057E-01
          2   -1    0    0  501    0  0.00000000000E+00  0.00000000000E+00  0.20188361080E+03  0.20188361082E+03  0.25500000000E-02 0.  1.
         -2   -1    0    0    0  501 -0.00000000000E+00 -0.00000000000E+00 -0.46588452755E+03  0.46588452756E+03  0.25500000000E-02 0. -1.
    5000001    1    1    2    0    0  0.16751611438E+03 -0.12147705615E+03 -0.26251729642E+03  0.38548366329E+03  0.19200000000E+03 0.  0.
   -5000001    1    1    2    0    0 -0.16751611438E+03  0.12147705615E+03 -0.14836203304E+01  0.28228447509E+03  0.19200000000E+03 0.  0.
<mgrwt>
<rscale>  0 0.61336596E+03</rscale>
<asrwt>0</asrwt>
<pdfrwt beam="1">  1        2 0.28840516E-01 0.61336596E+03</pdfrwt>
<pdfrwt beam="2">  1       -2 0.66554932E-01 0.61336596E+03</pdfrwt>
<totfact> 0.38970883E+02</totfact>
</mgrwt>
</event>
<event>
 4    1  0.2058931E-005  0.6250913E+03  0.7818608E-02  0.9854675E-01
          2   -1    0    0  501    0  0.00000000000E+00  0.00000000000E+00  0.14848260940E+04  0.14848260940E+04  0.25500000000E-02 0.  1.
         -2   -1    0    0    0  501 -0.00000000000E+00 -0.00000000000E+00 -0.65788707535E+02  0.65788707584E+02  0.25500000000E-02 0. -1.
    5000001    1    1    2    0    0 -0.19262043078E+03  0.10003838047E+03  0.41905837133E+03  0.50949408878E+03  0.19200000000E+03 0.  0.
   -5000001    1    1    2    0    0  0.19262043078E+03 -0.10003838047E+03  0.99997901516E+03  0.10411207128E+04  0.19200000000E+03 0.  0.
<mgrwt>
<rscale>  0 0.62509132E+03</rscale>
<asrwt>0</asrwt>
<pdfrwt beam="1">  1        2 0.21211806E+00 0.62509132E+03</pdfrwt>
<pdfrwt beam="2">  1       -2 0.93983848E-02 0.62509132E+03</pdfrwt>
<totfact> 0.11460944E+03</totfact>
</mgrwt>
</event>
<event>
 4    1  0.2058931E-005  0.5282298E+03  0.7818608E-02  0.1006662E+00
          2   -1    0    0  501    0  0.00000000000E+00  0.00000000000E+00  0.45521720407E+03  0.45521720408E+03  0.25500000000E-02 0.  1.
         -2   -1    0    0    0  501 -0.00000000000E+00 -0.00000000000E+00 -0.15323822605E+03  0.15323822607E+03  0.25500000000E-02 0. -1.
    5000001    1    1    2    0    0 -0.23407806071E+02  0.15344319368E+03  0.25904469221E+03  0.35785596493E+03  0.19200000000E+03 0.  0.
   -5000001    1    1    2    0    0  0.23407806071E+02 -0.15344319368E+03  0.42934285811E+02  0.25059946522E+03  0.19200000000E+03 0.  0.
<mgrwt>
<rscale>  0 0.52822979E+03</rscale>
<asrwt>0</asrwt>
<pdfrwt beam="1">  1        2 0.65031028E-01 0.52822979E+03</pdfrwt>
<pdfrwt beam="2">  1       -2 0.21891175E-01 0.52822979E+03</pdfrwt>
<totfact> 0.13578370E+03</totfact>
</mgrwt>
</event>
<event>
 4    1  0.2058931E-005  0.1679237E+04  0.7818608E-02  0.8773295E-01
         -2   -1    0    0    0  501 -0.00000000000E+00  0.00000000000E+00  0.23935196619E+03  0.23935196620E+03  0.25500000000E-02 0. -1.
          2   -1    0    0  501    0  0.00000000000E+00 -0.00000000000E+00 -0.29452840875E+04  0.29452840875E+04  0.25500000000E-02 0.  1.
    5000001    1    1    2    0    0 -0.74478658504E+03  0.16761411295E+03 -0.79909722425E+03  0.11217049175E+04  0.19200000000E+03 0.  0.
   -5000001    1    1    2    0    0  0.74478658504E+03 -0.16761411295E+03 -0.19068348971E+04  0.20629311362E+04  0.19200000000E+03 0.  0.
<mgrwt>
<rscale>  0 0.16792374E+04</rscale>
<asrwt>0</asrwt>
<pdfrwt beam="1">  1        2 0.42075485E+00 0.16792374E+04</pdfrwt>
<pdfrwt beam="2">  1       -2 0.34193140E-01 0.16792374E+04</pdfrwt>
<totfact> 0.19416927E+01</totfact>
</mgrwt>
</event>
<event>
 4    1  0.2058931E-005  0.4902009E+03  0.7818608E-02  0.1016369E+00
         -2   -1    0    0    0  501 -0.00000000000E+00  0.00000000000E+00  0.56136116819E+02  0.56136116876E+02  0.25500000000E-02 0. -1.
          2   -1    0    0  501    0  0.00000000000E+00 -0.00000000000E+00 -0.10701529586E+04  0.10701529586E+04  0.25500000000E-02 0.  1.
    5000001    1    1    2    0    0  0.24844411860E+01  0.12857262767E+03 -0.69469829073E+03  0.73212485833E+03  0.19200000000E+03 0.  0.
   -5000001    1    1    2    0    0 -0.24844411860E+01 -0.12857262767E+03 -0.31931855102E+03  0.39416421713E+03  0.19200000000E+03 0.  0.
<mgrwt>
<rscale>  0 0.49020090E+03</rscale>
<asrwt>0</asrwt>
<pdfrwt beam="1">  1        2 0.15287898E+00 0.49020090E+03</pdfrwt>
<pdfrwt beam="2">  1       -2 0.80194459E-02 0.49020090E+03</pdfrwt>
<totfact> 0.25017043E+03</totfact>
</mgrwt>
</event>
<event>
 4    1  0.2058931E-005  0.6076012E+03  0.7818608E-02  0.9889760E-01
         -2   -1    0    0    0  501 -0.00000000000E+00  0.00000000000E+00  0.25729044742E+03  0.25729044743E+03  0.25500000000E-02 0. -1.
          2   -1    0    0  501    0  0.00000000000E+00 -0.00000000000E+00 -0.35871831801E+03  0.35871831802E+03  0.25500000000E-02 0.  1.
    5000001    1    1    2    0    0  0.73170156274E+02 -0.17669175299E+03  0.88506825756E+02  0.28508122623E+03  0.19200000000E+03 0.  0.
   -5000001    1    1    2    0    0 -0.73170156274E+02  0.17669175299E+03 -0.18993469635E+03  0.33092753923E+03  0.19200000000E+03 0.  0.
<mgrwt>
<rscale>  0 0.60760117E+03</rscale>
<asrwt>0</asrwt>
<pdfrwt beam="1">  1        2 0.51245473E-01 0.60760117E+03</pdfrwt>
<pdfrwt beam="2">  1       -2 0.36755779E-01 0.60760117E+03</pdfrwt>
<totfact> 0.68486768E+02</totfact>
</mgrwt>
</event>
<event>
 4    1  0.2058931E-005  0.4884545E+03  0.7818608E-02  0.1016837E+00
         -2   -1    0    0    0  501 -0.00000000000E+00  0.00000000000E+00  0.26317498532E+02  0.26317498656E+02  0.25500000000E-02 0. -1.
          2   -1    0    0  501    0  0.00000000000E+00 -0.00000000000E+00 -0.22664366464E+04  0.22664366464E+04  0.25500000000E-02 0.  1.
    5000001    1    1    2    0    0  0.13949585004E+03  0.97308425563E+00 -0.13906374635E+04  0.14107432771E+04  0.19200000000E+03 0.  0.
   -5000001    1    1    2    0    0 -0.13949585004E+03 -0.97308425563E+00 -0.84948168437E+03  0.88201086793E+03  0.19200000000E+03 0.  0.
<mgrwt>
<rscale>  0 0.48845447E+03</rscale>
<asrwt>0</asrwt>
<pdfrwt beam="1">  1        2 0.32377654E+00 0.48845447E+03</pdfrwt>
<pdfrwt beam="2">  1       -2 0.37596441E-02 0.48845447E+03</pdfrwt>
<totfact> 0.19477830E+03</totfact>
</mgrwt>
</event>
<event>
 4    1  0.2058931E-005  0.5450321E+03  0.7818608E-02  0.1002650E+00
         -2   -1    0    0    0  501 -0.00000000000E+00  0.00000000000E+00  0.16063195489E+02  0.16063195692E+02  0.25500000000E-02 0. -1.
          2   -1    0    0  501    0  0.00000000000E+00 -0.00000000000E+00 -0.46233016008E+04  0.46233016008E+04  0.25500000000E-02 0.  1.
    5000001    1    1    2    0    0 -0.18027743758E+03 -0.69462728128E+02 -0.23778126379E+04  0.23933620633E+04  0.19200000000E+03 0.  0.
   -5000001    1    1    2    0    0  0.18027743758E+03  0.69462728128E+02 -0.22294257674E+04  0.22460027332E+04  0.19200000000E+03 0.  0.
<mgrwt>
<rscale>  0 0.54503210E+03</rscale>
<asrwt>0</asrwt>
<pdfrwt beam="1">  1        2 0.66047081E+00 0.54503210E+03</pdfrwt>
<pdfrwt beam="2">  1       -2 0.22947452E-02 0.54503210E+03</pdfrwt>
<totfact> 0.15181840E+02</totfact>
</mgrwt>
</event>
<event>
 4    1  0.2058931E-005  0.7338423E+03  0.7818608E-02  0.9661046E-01
         -2   -1    0    0    0  501 -0.00000000000E+00  0.00000000000E+00  0.14675456175E+03  0.14675456177E+03  0.25500000000E-02 0. -1.
          2   -1    0    0  501    0  0.00000000000E+00 -0.00000000000E+00 -0.91738962488E+03  0.91738962488E+03  0.25500000000E-02 0.  1.
    5000001    1    1    2    0    0 -0.23487467259E+02  0.20247837416E+03 -0.72914082996E+03  0.78106305958E+03  0.19200000000E+03 0.  0.
   -5000001    1    1    2    0    0  0.23487467259E+02 -0.20247837416E+03 -0.41494233168E+02  0.28308112708E+03  0.19200000000E+03 0.  0.
<mgrwt>
<rscale>  0 0.73384225E+03</rscale>
<asrwt>0</asrwt>
<pdfrwt beam="1">  1        2 0.13105566E+00 0.73384225E+03</pdfrwt>
<pdfrwt beam="2">  1       -2 0.20964938E-01 0.73384225E+03</pdfrwt>
<totfact> 0.62431923E+02</totfact>
</mgrwt>
</event>
<event>
 4    1  0.2058931E-005  0.6504580E+03  0.7818608E-02  0.9805920E-01
          2   -1    0    0  501    0  0.00000000000E+00  0.00000000000E+00  0.13690905082E+03  0.13690905085E+03  0.25500000000E-02 0.  1.
         -2   -1    0    0    0  501 -0.00000000000E+00 -0.00000000000E+00 -0.77258527517E+03  0.77258527517E+03  0.25500000000E-02 0. -1.
    5000001    1    1    2    0    0  0.24297974145E+03  0.89635880567E+02 -0.37775334516E+03  0.49662393783E+03  0.19200000000E+03 0.  0.
   -5000001    1    1    2    0    0 -0.24297974145E+03 -0.89635880567E+02 -0.25792287918E+03  0.41287038819E+03  0.19200000000E+03 0.  0.
<mgrwt>
<rscale>  0 0.65045804E+03</rscale>
<asrwt>0</asrwt>
<pdfrwt beam="1">  1        2 0.19558436E-01 0.65045804E+03</pdfrwt>
<pdfrwt beam="2">  1       -2 0.11036932E+00 0.65045804E+03</pdfrwt>
<totfact> 0.19233429E+02</totfact>
</mgrwt>
</event>
<event>
 4    1  0.2058931E-005  0.4714304E+03  0.7818608E-02  0.1021517E+00
          2   -1    0    0  501    0  0.00000000000E+00  0.00000000000E+00  0.47497004014E+03  0.47497004015E+03  0.25500000000E-02 0.  1.
         -2   -1    0    0    0  501 -0.00000000000E+00 -0.00000000000E+00 -0.11697928579E+03  0.11697928582E+03  0.25500000000E-02 0. -1.
    5000001    1    1    2    0    0 -0.39689534278E+02  0.37052648695E+02  0.21415664609E+02  0.20067582963E+03  0.19200000000E+03 0.  0.
   -5000001    1    1    2    0    0  0.39689534278E+02 -0.37052648695E+02  0.33657508974E+03  0.39127349634E+03  0.19200000000E+03 0.  0.
<mgrwt>
<rscale>  0 0.47143040E+03</rscale>
<asrwt>0</asrwt>
<pdfrwt beam="1">  1        2 0.67852864E-01 0.47143040E+03</pdfrwt>
<pdfrwt beam="2">  1       -2 0.16711326E-01 0.47143040E+03</pdfrwt>
<totfact> 0.20619309E+03</totfact>
</mgrwt>
</event>
<event>
 4    1  0.2058931E-005  0.8596138E+03  0.7818608E-02  0.9477524E-01
          2   -1    0    0  501    0  0.00000000000E+00  0.00000000000E+00  0.11524891117E+04  0.11524891117E+04  0.25500000000E-02 0.  1.
         -2   -1    0    0    0  501 -0.00000000000E+00 -0.00000000000E+00 -0.16029129515E+03  0.16029129517E+03  0.25500000000E-02 0. -1.
    5000001    1    1    2    0    0 -0.11630726655E+03  0.36306756552E+03  0.57283141799E+03  0.71438453988E+03  0.19200000000E+03 0.  0.
   -5000001    1    1    2    0    0  0.11630726655E+03 -0.36306756552E+03  0.41936639853E+03  0.59839586696E+03  0.19200000000E+03 0.  0.
<mgrwt>
<rscale>  0 0.85961380E+03</rscale>
<asrwt>0</asrwt>
<pdfrwt beam="1">  1        2 0.16464130E+00 0.85961380E+03</pdfrwt>
<pdfrwt beam="2">  1       -2 0.22898757E-01 0.85961380E+03</pdfrwt>
<totfact> 0.38262747E+02</totfact>
</mgrwt>
</event>
<event>
 4    1  0.2058931E-005  0.8203501E+03  0.7818608E-02  0.9531019E-01
          2   -1    0    0  501    0  0.00000000000E+00  0.00000000000E+00  0.99414868892E+03  0.99414868892E+03  0.25500000000E-02 0.  1.
         -2   -1    0    0    0  501 -0.00000000000E+00 -0.00000000000E+00 -0.16923381018E+03  0.16923381020E+03  0.25500000000E-02 0. -1.
    5000001    1    1    2    0    0 -0.21896479632E+03 -0.28293011477E+03  0.49496106454E+03  0.64019175821E+03  0.19200000000E+03 0.  0.
   -5000001    1    1    2    0    0  0.21896479632E+03  0.28293011477E+03  0.32995381420E+03  0.52319074091E+03  0.19200000000E+03 0.  0.
<mgrwt>
<rscale>  0 0.82035010E+03</rscale>
<asrwt>0</asrwt>
<pdfrwt beam="1">  1        2 0.14202125E+00 0.82035010E+03</pdfrwt>
<pdfrwt beam="2">  1       -2 0.24176258E-01 0.82035010E+03</pdfrwt>
<totfact> 0.43215141E+02</totfact>
</mgrwt>
</event>
<event>
 4    1  0.2058931E-005  0.5991966E+03  0.7818608E-02  0.9907074E-01
          2   -1    0    0  501    0  0.00000000000E+00  0.00000000000E+00  0.24128047688E+04  0.24128047688E+04  0.25500000000E-02 0.  1.
         -2   -1    0    0    0  501 -0.00000000000E+00 -0.00000000000E+00 -0.37201164260E+02  0.37201164348E+02  0.25500000000E-02 0. -1.
    5000001    1    1    2    0    0  0.71931535985E+02  0.21302336274E+03  0.13856789541E+04  0.14168709408E+04  0.19200000000E+03 0.  0.
   -5000001    1    1    2    0    0 -0.71931535985E+02 -0.21302336274E+03  0.98992465038E+03  0.10331349923E+04  0.19200000000E+03 0.  0.
<mgrwt>
<rscale>  0 0.59919662E+03</rscale>
<asrwt>0</asrwt>
<pdfrwt beam="1">  1        2 0.34468644E+00 0.59919662E+03</pdfrwt>
<pdfrwt beam="2">  1       -2 0.53144514E-02 0.59919662E+03</pdfrwt>
<totfact> 0.95729357E+02</totfact>
</mgrwt>
</event>
<event>
 4    1  0.2058931E-005  0.9716668E+03  0.7818608E-02  0.9340178E-01
          2   -1    0    0  501    0  0.00000000000E+00  0.00000000000E+00  0.19639986207E+04  0.19639986207E+04  0.25500000000E-02 0.  1.
         -2   -1    0    0    0  501 -0.00000000000E+00 -0.00000000000E+00 -0.12018038613E+03  0.12018038616E+03  0.25500000000E-02 0. -1.
    5000001    1    1    2    0    0  0.21265358372E+02  0.44360782933E+03  0.82767779896E+03  0.95872553977E+03  0.19200000000E+03 0.  0.
   -5000001    1    1    2    0    0 -0.21265358372E+02 -0.44360782933E+03  0.10161404356E+04  0.11254534671E+04  0.19200000000E+03 0.  0.
<mgrwt>
<rscale>  0 0.97166684E+03</rscale>
<asrwt>0</asrwt>
<pdfrwt beam="1">  1        2 0.28057123E+00 0.97166684E+03</pdfrwt>
<pdfrwt beam="2">  1       -2 0.17168627E-01 0.97166684E+03</pdfrwt>
<totfact> 0.23382642E+02</totfact>
</mgrwt>
</event>
<event>
 4    1  0.2058931E-005  0.5276719E+03  0.7818608E-02  0.1006798E+00
         -2   -1    0    0    0  501 -0.00000000000E+00  0.00000000000E+00  0.40716674327E+03  0.40716674327E+03  0.25500000000E-02 0. -1.
          2   -1    0    0  501    0  0.00000000000E+00 -0.00000000000E+00 -0.17096047909E+03  0.17096047911E+03  0.25500000000E-02 0.  1.
    5000001    1    1    2    0    0  0.47715201933E+02  0.15115047527E+03  0.21375644239E+03  0.32814482067E+03  0.19200000000E+03 0.  0.
   -5000001    1    1    2    0    0 -0.47715201933E+02 -0.15115047527E+03  0.22449821789E+02  0.24998240172E+03  0.19200000000E+03 0.  0.
<mgrwt>
<rscale>  0 0.52767195E+03</rscale>
<asrwt>0</asrwt>
<pdfrwt beam="1">  1        2 0.24422926E-01 0.52767195E+03</pdfrwt>
<pdfrwt beam="2">  1       -2 0.58166678E-01 0.52767195E+03</pdfrwt>
<totfact> 0.62673795E+02</totfact>
</mgrwt>
</event>
<event>
 4    1  0.2058931E-005  0.5576235E+03  0.7818608E-02  0.9997446E-01
         -2   -1    0    0    0  501 -0.00000000000E+00  0.00000000000E+00  0.11693912916E+03  0.11693912919E+03  0.25500000000E-02 0. -1.
          2   -1    0    0  501    0  0.00000000000E+00 -0.00000000000E+00 -0.66475611939E+03  0.66475611940E+03  0.25500000000E-02 0.  1.
    5000001    1    1    2    0    0  0.10351062067E+03 -0.25772907356E+02 -0.51465397259E+03  0.55956358248E+03  0.19200000000E+03 0.  0.
   -5000001    1    1    2    0    0 -0.10351062067E+03  0.25772907356E+02 -0.33163017652E+02  0.22213166610E+03  0.19200000000E+03 0.  0.
<mgrwt>
<rscale>  0 0.55762354E+03</rscale>
<asrwt>0</asrwt>
<pdfrwt beam="1">  1        2 0.94965158E-01 0.55762354E+03</pdfrwt>
<pdfrwt beam="2">  1       -2 0.16705590E-01 0.55762354E+03</pdfrwt>
<totfact> 0.13987400E+03</totfact>
</mgrwt>
</event>
<event>
 4    1  0.2058931E-005  0.8158567E+03  0.7818608E-02  0.9537345E-01
         -2   -1    0    0    0  501 -0.00000000000E+00  0.00000000000E+00  0.14239062061E+03  0.14239062063E+03  0.25500000000E-02 0. -1.
          2   -1    0    0  501    0  0.00000000000E+00 -0.00000000000E+00 -0.11686552806E+04  0.11686552806E+04  0.25500000000E-02 0.  1.
    5000001    1    1    2    0    0 -0.21756429607E+03 -0.27191561055E+03 -0.36700330255E+03  0.54113560802E+03  0.19200000000E+03 0.  0.
   -5000001    1    1    2    0    0  0.21756429607E+03  0.27191561055E+03 -0.65926135749E+03  0.76991029325E+03  0.19200000000E+03 0.  0.
<mgrwt>
<rscale>  0 0.81585673E+03</rscale>
<asrwt>0</asrwt>
<pdfrwt beam="1">  1        2 0.16695075E+00 0.81585673E+03</pdfrwt>
<pdfrwt beam="2">  1       -2 0.20341518E-01 0.81585673E+03</pdfrwt>
<totfact> 0.46275047E+02</totfact>
</mgrwt>
</event>
<event>
 4    1  0.2058931E-005  0.4628172E+03  0.7818608E-02  0.1023967E+00
          2   -1    0    0  501    0  0.00000000000E+00  0.00000000000E+00  0.13256151146E+03  0.13256151149E+03  0.25500000000E-02 0.  1.
         -2   -1    0    0    0  501 -0.00000000000E+00 -0.00000000000E+00 -0.40396291065E+03  0.40396291066E+03  0.25500000000E-02 0. -1.
    5000001    1    1    2    0    0  0.96683390012E+02  0.85417637169E+02 -0.14322100217E+03  0.27206636342E+03  0.19200000000E+03 0.  0.
   -5000001    1    1    2    0    0 -0.96683390012E+02 -0.85417637169E+02 -0.12818039702E+03  0.26445805872E+03  0.19200000000E+03 0.  0.
<mgrwt>
<rscale>  0 0.46281717E+03</rscale>
<asrwt>0</asrwt>
<pdfrwt beam="1">  1        2 0.18937359E-01 0.46281717E+03</pdfrwt>
<pdfrwt beam="2">  1       -2 0.57708987E-01 0.46281717E+03</pdfrwt>
<totfact> 0.85501314E+02</totfact>
</mgrwt>
</event>
<event>
 4    1  0.2058931E-005  0.8815781E+03  0.7818608E-02  0.9448907E-01
         -2   -1    0    0    0  501 -0.00000000000E+00  0.00000000000E+00  0.85064348900E+02  0.85064348938E+02  0.25500000000E-02 0. -1.
          2   -1    0    0  501    0  0.00000000000E+00 -0.00000000000E+00 -0.22840940151E+04  0.22840940151E+04  0.25500000000E-02 0.  1.
    5000001    1    1    2    0    0  0.26692034308E+03  0.29313635600E+03 -0.10565518296E+04  0.11447013415E+04  0.19200000000E+03 0.  0.
   -5000001    1    1    2    0    0 -0.26692034308E+03 -0.29313635600E+03 -0.11424778367E+04  0.12244570225E+04  0.19200000000E+03 0.  0.
<mgrwt>
<rscale>  0 0.88157806E+03</rscale>
<asrwt>0</asrwt>
<pdfrwt beam="1">  1        2 0.32629911E+00 0.88157806E+03</pdfrwt>
<pdfrwt beam="2">  1       -2 0.12152051E-01 0.88157806E+03</pdfrwt>
<totfact> 0.28974482E+02</totfact>
</mgrwt>
</event>
<event>
 4    1  0.2058931E-005  0.5648310E+03  0.7818608E-02  0.9981183E-01
         -2   -1    0    0    0  501 -0.00000000000E+00  0.00000000000E+00  0.14652451220E+03  0.14652451222E+03  0.25500000000E-02 0. -1.
          2   -1    0    0  501    0  0.00000000000E+00 -0.00000000000E+00 -0.54433558351E+03  0.54433558352E+03  0.25500000000E-02 0.  1.
    5000001    1    1    2    0    0  0.14536091186E+03  0.12863600021E+03 -0.11055637136E+03  0.29455683067E+03  0.19200000000E+03 0.  0.
   -5000001    1    1    2    0    0 -0.14536091186E+03 -0.12863600021E+03 -0.28725469996E+03  0.39630326506E+03  0.19200000000E+03 0.  0.
<mgrwt>
<rscale>  0 0.56483097E+03</rscale>
<asrwt>0</asrwt>
<pdfrwt beam="1">  1        2 0.77762225E-01 0.56483097E+03</pdfrwt>
<pdfrwt beam="2">  1       -2 0.20932073E-01 0.56483097E+03</pdfrwt>
<totfact> 0.11990401E+03</totfact>
</mgrwt>
</event>
<event>
 4    1  0.2058931E-005  0.6582214E+03  0.7818608E-02  0.9791473E-01
          2   -1    0    0  501    0  0.00000000000E+00  0.00000000000E+00  0.10709175111E+04  0.10709175111E+04  0.25500000000E-02 0.  1.
         -2   -1    0    0    0  501 -0.00000000000E+00 -0.00000000000E+00 -0.10114118297E+03  0.10114118300E+03  0.25500000000E-02 0. -1.
    5000001    1    1    2    0    0  0.81717263822E+02 -0.19738758337E+03  0.19881717199E+03  0.34933055571E+03  0.19200000000E+03 0.  0.
   -5000001    1    1    2    0    0 -0.81717263822E+02  0.19738758337E+03  0.77095915617E+03  0.82272813843E+03  0.19200000000E+03 0.  0.
<mgrwt>
<rscale>  0 0.65822143E+03</rscale>
<asrwt>0</asrwt>
<pdfrwt beam="1">  1        2 0.15298822E+00 0.65822143E+03</pdfrwt>
<pdfrwt beam="2">  1       -2 0.14448740E-01 0.65822143E+03</pdfrwt>
<totfact> 0.95421935E+02</totfact>
</mgrwt>
</event>
<event>
 4    1  0.2058931E-005  0.5730888E+03  0.7818608E-02  0.9962867E-01
          2   -1    0    0  501    0  0.00000000000E+00  0.00000000000E+00  0.21148484632E+04  0.21148484632E+04  0.25500000000E-02 0.  1.
         -2   -1    0    0    0  501 -0.00000000000E+00 -0.00000000000E+00 -0.38824388541E+02  0.38824388624E+02  0.25500000000E-02 0. -1.
    5000001    1    1    2    0    0  0.15367222316E+03  0.14621574386E+03  0.97865183887E+03  0.10196164071E+04  0.19200000000E+03 0.  0.
   -5000001    1    1    2    0    0 -0.15367222316E+03 -0.14621574386E+03  0.10973722358E+04  0.11340564447E+04  0.19200000000E+03 0.  0.
<mgrwt>
<rscale>  0 0.57308882E+03</rscale>
<asrwt>0</asrwt>
<pdfrwt beam="1">  1        2 0.30212120E+00 0.57308882E+03</pdfrwt>
<pdfrwt beam="2">  1       -2 0.55463414E-02 0.57308882E+03</pdfrwt>
<totfact> 0.12687819E+03</totfact>
</mgrwt>
</event>
<event>
 4    1  0.2058931E-005  0.7468474E+03  0.7818608E-02  0.9640309E-01
          2   -1    0    0  501    0  0.00000000000E+00  0.00000000000E+00  0.44035287233E+04  0.44035287233E+04  0.25500000000E-02 0.  1.
         -2   -1    0    0    0  501 -0.00000000000E+00 -0.00000000000E+00 -0.31666708578E+02  0.31666708681E+02  0.25500000000E-02 0. -1.
    5000001    1    1    2    0    0 -0.25678836590E+03  0.54491324733E+02  0.32756470736E+04  0.32917529251E+04  0.19200000000E+03 0.  0.
   -5000001    1    1    2    0    0  0.25678836590E+03 -0.54491324733E+02  0.10962149412E+04  0.11434425069E+04  0.19200000000E+03 0.  0.
<mgrwt>
<rscale>  0 0.74684740E+03</rscale>
<asrwt>0</asrwt>
<pdfrwt beam="1">  1        2 0.62907553E+00 0.74684740E+03</pdfrwt>
<pdfrwt beam="2">  1       -2 0.45238155E-02 0.74684740E+03</pdfrwt>
<totfact> 0.77217029E+01</totfact>
</mgrwt>
</event>
<event>
 4    1  0.2058931E-005  0.6176352E+03  0.7818608E-02  0.9869479E-01
         -2   -1    0    0    0  501 -0.00000000000E+00  0.00000000000E+00  0.63495014928E+02  0.63495014980E+02  0.25500000000E-02 0. -1.
          2   -1    0    0  501    0  0.00000000000E+00 -0.00000000000E+00 -0.15019812709E+04  0.15019812709E+04  0.25500000000E-02 0.  1.
    5000001    1    1    2    0    0  0.21085832585E+03 -0.98546192323E+02 -0.55242413414E+03  0.62945135601E+03  0.19200000000E+03 0.  0.
   -5000001    1    1    2    0    0 -0.21085832585E+03  0.98546192323E+02 -0.88606212183E+03  0.93602492987E+03  0.19200000000E+03 0.  0.
<mgrwt>
<rscale>  0 0.61763524E+03</rscale>
<asrwt>0</asrwt>
<pdfrwt beam="1">  1        2 0.21456873E+00 0.61763524E+03</pdfrwt>
<pdfrwt beam="2">  1       -2 0.90707173E-02 0.61763524E+03</pdfrwt>
<totfact> 0.11891219E+03</totfact>
</mgrwt>
</event>
<event>
 4    1  0.2058931E-005  0.6013394E+03  0.7818608E-02  0.9902631E-01
         -2   -1    0    0    0  501 -0.00000000000E+00  0.00000000000E+00  0.11266856954E+03  0.11266856957E+03  0.25500000000E-02 0. -1.
          2   -1    0    0  501    0  0.00000000000E+00 -0.00000000000E+00 -0.80237357644E+03  0.80237357645E+03  0.25500000000E-02 0.  1.
    5000001    1    1    2    0    0  0.15967754834E+03  0.90988933387E+02 -0.13093762115E+03  0.29628460317E+03  0.19200000000E+03 0.  0.
   -5000001    1    1    2    0    0 -0.15967754834E+03 -0.90988933387E+02 -0.55876738576E+03  0.61875754284E+03  0.19200000000E+03 0.  0.
<mgrwt>
<rscale>  0 0.60133945E+03</rscale>
<asrwt>0</asrwt>
<pdfrwt beam="1">  1        2 0.11462479E+00 0.60133945E+03</pdfrwt>
<pdfrwt beam="2">  1       -2 0.16095510E-01 0.60133945E+03</pdfrwt>
<totfact> 0.11795740E+03</totfact>
</mgrwt>
</event>
<event>
 4    1  0.2058931E-005  0.4810315E+03  0.7818608E-02  0.1018852E+00
         -2   -1    0    0    0  501 -0.00000000000E+00  0.00000000000E+00  0.74806361775E+02  0.74806361818E+02  0.25500000000E-02 0. -1.
          2   -1    0    0  501    0  0.00000000000E+00 -0.00000000000E+00 -0.77330083134E+03  0.77330083134E+03  0.25500000000E-02 0.  1.
    5000001    1    1    2    0    0 -0.15351541354E+02 -0.14392697130E+03 -0.33909157556E+03  0.41568947485E+03  0.19200000000E+03 0.  0.
   -5000001    1    1    2    0    0  0.15351541354E+02  0.14392697130E+03 -0.35940289401E+03  0.43241771831E+03  0.19200000000E+03 0.  0.
<mgrwt>
<rscale>  0 0.48103148E+03</rscale>
<asrwt>0</asrwt>
<pdfrwt beam="1">  1        2 0.11047154E+00 0.48103148E+03</pdfrwt>
<pdfrwt beam="2">  1       -2 0.10686624E-01 0.48103148E+03</pdfrwt>
<totfact> 0.24379512E+03</totfact>
</mgrwt>
</event>
<event>
 4    1  0.2058931E-005  0.4589365E+03  0.7818608E-02  0.1025090E+00
         -2   -1    0    0    0  501 -0.00000000000E+00  0.00000000000E+00  0.13605938230E+03  0.13605938232E+03  0.25500000000E-02 0.  1.
          2   -1    0    0  501    0  0.00000000000E+00 -0.00000000000E+00 -0.38700518249E+03  0.38700518250E+03  0.25500000000E-02 0. -1.
    5000001    1    1    2    0    0  0.70154933959E+02 -0.32914619235E+01 -0.67046564317E+01  0.20455195159E+03  0.19200000000E+03 0.  0.
   -5000001    1    1    2    0    0 -0.70154933959E+02  0.32914619235E+01 -0.24424114376E+03  0.31851261323E+03  0.19200000000E+03 0.  0.
<mgrwt>
<rscale>  0 0.45893654E+03</rscale>
<asrwt>0</asrwt>
<pdfrwt beam="1">  1        2 0.55286454E-01 0.45893654E+03</pdfrwt>
<pdfrwt beam="2">  1       -2 0.19437055E-01 0.45893654E+03</pdfrwt>
<totfact> 0.19982824E+03</totfact>
</mgrwt>
</event>
<event>
 4    1  0.2058931E-005  0.5070673E+03  0.7818608E-02  0.1011951E+00
          2   -1    0    0  501    0  0.00000000000E+00  0.00000000000E+00  0.16164787211E+04  0.16164787211E+04  0.25500000000E-02 0. -1.
         -2   -1    0    0    0  501 -0.00000000000E+00 -0.00000000000E+00 -0.39765026756E+02  0.39765026838E+02  0.25500000000E-02 0.  1.
    5000001    1    1    2    0    0 -0.63611943227E+02  0.12673735126E+03  0.10675551946E+04  0.10939135839E+04  0.19200000000E+03 0.  0.
   -5000001    1    1    2    0    0  0.63611943227E+02 -0.12673735126E+03  0.50915849972E+03  0.56233016402E+03  0.19200000000E+03 0.  0.
<mgrwt>
<rscale>  0 0.50706733E+03</rscale>
<asrwt>0</asrwt>
<pdfrwt beam="1">  1        2 0.23092549E+00 0.50706733E+03</pdfrwt>
<pdfrwt beam="2">  1       -2 0.56807190E-02 0.50706733E+03</pdfrwt>
<totfact> 0.21832022E+03</totfact>
</mgrwt>
</event>
<event>
 4    1  0.2058931E-005  0.8100947E+03  0.7818608E-02  0.9545519E-01
         -2   -1    0    0    0  501 -0.00000000000E+00  0.00000000000E+00  0.23776172504E+03  0.23776172506E+03  0.25500000000E-02 0. -1.
          2   -1    0    0  501    0  0.00000000000E+00 -0.00000000000E+00 -0.69003265503E+03  0.69003265503E+03  0.25500000000E-02 0.  1.
    5000001    1    1    2    0    0 -0.15132132517E+03 -0.23768863909E+03 -0.47654685069E+03  0.58596495928E+03  0.19200000000E+03 0.  0.
   -5000001    1    1    2    0    0  0.15132132517E+03  0.23768863909E+03  0.24275920708E+02  0.34182942080E+03  0.19200000000E+03 0.  0.
<mgrwt>
<rscale>  0 0.81009470E+03</rscale>
<asrwt>0</asrwt>
<pdfrwt beam="1">  1        2 0.98576093E-01 0.81009470E+03</pdfrwt>
<pdfrwt beam="2">  1       -2 0.33965961E-01 0.81009470E+03</pdfrwt>
<totfact> 0.37286707E+02</totfact>
</mgrwt>
</event>
<event>
 4    1  0.2058931E-005  0.4111619E+03  0.7818608E-02  0.1039982E+00
         -2   -1    0    0    0  501 -0.00000000000E+00  0.00000000000E+00  0.23162759882E+02  0.23162760023E+02  0.25500000000E-02 0. -1.
          2   -1    0    0  501    0  0.00000000000E+00 -0.00000000000E+00 -0.18246327891E+04  0.18246327891E+04  0.25500000000E-02 0.  1.
    5000001    1    1    2    0    0  0.26336078589E+02  0.61576184306E+02 -0.10366255282E+04  0.10563814184E+04  0.19200000000E+03 0.  0.
   -5000001    1    1    2    0    0 -0.26336078589E+02 -0.61576184306E+02 -0.76484450100E+03  0.79141413067E+03  0.19200000000E+03 0.  0.
<mgrwt>
<rscale>  0 0.41116192E+03</rscale>
<asrwt>0</asrwt>
<pdfrwt beam="1">  1        2 0.26066174E+00 0.41116192E+03</pdfrwt>
<pdfrwt beam="2">  1       -2 0.33089669E-02 0.41116192E+03</pdfrwt>
<totfact> 0.39335186E+03</totfact>
</mgrwt>
</event>
<event>
 4    1  0.2058931E-005  0.7622068E+03  0.7818608E-02  0.9616392E-01
          2   -1    0    0  501    0  0.00000000000E+00  0.00000000000E+00  0.15761230856E+04  0.15761230856E+04  0.25500000000E-02 0.  1.
         -2   -1    0    0    0  501 -0.00000000000E+00 -0.00000000000E+00 -0.92150029927E+02  0.92150029962E+02  0.25500000000E-02 0. -1.
    5000001    1    1    2    0    0  0.24352206252E+03 -0.22102351986E+03  0.70941924928E+03  0.80516710223E+03  0.19200000000E+03 0.  0.
   -5000001    1    1    2    0    0 -0.24352206252E+03  0.22102351986E+03  0.77455380643E+03  0.86310601338E+03  0.19200000000E+03 0.  0.
<mgrwt>
<rscale>  0 0.76220677E+03</rscale>
<asrwt>0</asrwt>
<pdfrwt beam="1">  1        2 0.22516044E+00 0.76220677E+03</pdfrwt>
<pdfrwt beam="2">  1       -2 0.13164290E-01 0.76220677E+03</pdfrwt>
<totfact> 0.58728700E+02</totfact>
</mgrwt>
</event>
<event>
 4    1  0.2058931E-005  0.1798133E+04  0.7818608E-02  0.8707293E-01
          2   -1    0    0  501    0  0.00000000000E+00  0.00000000000E+00  0.25184128404E+04  0.25184128404E+04  0.25500000000E-02 0.  1.
         -2   -1    0    0    0  501 -0.00000000000E+00 -0.00000000000E+00 -0.32096421413E+03  0.32096421414E+03  0.25500000000E-02 0. -1.
    5000001    1    1    2    0    0 -0.54364164300E+03  0.67843884165E+03  0.90130333449E+03  0.12669006270E+04  0.19200000000E+03 0.  0.
   -5000001    1    1    2    0    0  0.54364164300E+03 -0.67843884165E+03  0.12961452918E+04  0.15724764276E+04  0.19200000000E+03 0.  0.
<mgrwt>
<rscale>  0 0.17981328E+04</rscale>
<asrwt>0</asrwt>
<pdfrwt beam="1">  1        2 0.35977327E+00 0.17981328E+04</pdfrwt>
<pdfrwt beam="2">  1       -2 0.45852030E-01 0.17981328E+04</pdfrwt>
<totfact> 0.18416073E+01</totfact>
</mgrwt>
</event>
<event>
 4    1  0.2058931E-005  0.4695358E+03  0.7818608E-02  0.1022051E+00
         -2   -1    0    0    0  501 -0.00000000000E+00  0.00000000000E+00  0.47452111413E+03  0.47452111413E+03  0.25500000000E-02 0. -1.
          2   -1    0    0  501    0  0.00000000000E+00 -0.00000000000E+00 -0.11615070889E+03  0.11615070892E+03  0.25500000000E-02 0.  1.
    5000001    1    1    2    0    0  0.10478609114E+03 -0.85041845357E+02  0.18711388428E+03  0.30014637438E+03  0.19200000000E+03 0.  0.
   -5000001    1    1    2    0    0 -0.10478609114E+03  0.85041845357E+02  0.17125652095E+03  0.29052544867E+03  0.19200000000E+03 0.  0.
<mgrwt>
<rscale>  0 0.46953579E+03</rscale>
<asrwt>0</asrwt>
<pdfrwt beam="1">  1        2 0.16592958E-01 0.46953579E+03</pdfrwt>
<pdfrwt beam="2">  1       -2 0.67788731E-01 0.46953579E+03</pdfrwt>
<totfact> 0.71138912E+02</totfact>
</mgrwt>
</event>
<event>
 4    1  0.2058931E-005  0.5614403E+03  0.7818608E-02  0.9988801E-01
          2   -1    0    0  501    0  0.00000000000E+00  0.00000000000E+00  0.24298308317E+04  0.24298308317E+04  0.25500000000E-02 0.  1.
         -2   -1    0    0    0  501 -0.00000000000E+00 -0.00000000000E+00 -0.32431810121E+02  0.32431810221E+02  0.25500000000E-02 0. -1.
    5000001    1    1    2    0    0  0.49076862488E+02 -0.15984027825E+03  0.17172857581E+04  0.17360564011E+04  0.19200000000E+03 0.  0.
   -5000001    1    1    2    0    0 -0.49076862488E+02  0.15984027825E+03  0.68011326350E+03  0.72620624080E+03  0.19200000000E+03 0.  0.
<mgrwt>
<rscale>  0 0.56144033E+03</rscale>
<asrwt>0</asrwt>
<pdfrwt beam="1">  1        2 0.34711873E+00 0.56144033E+03</pdfrwt>
<pdfrwt beam="2">  1       -2 0.46331152E-02 0.56144033E+03</pdfrwt>
<totfact> 0.11637738E+03</totfact>
</mgrwt>
</event>
<event>
 4    1  0.2058931E-005  0.6045784E+03  0.7818608E-02  0.9895953E-01
         -2   -1    0    0    0  501 -0.00000000000E+00  0.00000000000E+00  0.15036343564E+03  0.15036343566E+03  0.25500000000E-02 0. -1.
          2   -1    0    0  501    0  0.00000000000E+00 -0.00000000000E+00 -0.60771933805E+03  0.60771933806E+03  0.25500000000E-02 0.  1.
    5000001    1    1    2    0    0  0.57738159743E+02  0.21064141409E+03 -0.12519282302E+03  0.31660818586E+03  0.19200000000E+03 0.  0.
   -5000001    1    1    2    0    0 -0.57738159743E+02 -0.21064141409E+03 -0.33216307939E+03  0.44147458786E+03  0.19200000000E+03 0.  0.
<mgrwt>
<rscale>  0 0.60457842E+03</rscale>
<asrwt>0</asrwt>
<pdfrwt beam="1">  1        2 0.86817047E-01 0.60457842E+03</pdfrwt>
<pdfrwt beam="2">  1       -2 0.21480491E-01 0.60457842E+03</pdfrwt>
<totfact> 0.10074142E+03</totfact>
</mgrwt>
</event>
<event>
 4    1  0.2058931E-005  0.4193606E+03  0.7818608E-02  0.1037275E+00
          2   -1    0    0  501    0  0.00000000000E+00  0.00000000000E+00  0.47687297442E+03  0.47687297443E+03  0.25500000000E-02 0.  1.
         -2   -1    0    0    0  501 -0.00000000000E+00 -0.00000000000E+00 -0.92196086171E+02  0.92196086206E+02  0.25500000000E-02 0. -1.
    5000001    1    1    2    0    0  0.24244281909E+02  0.43834630824E+02  0.28429969814E+03  0.34669810848E+03  0.19200000000E+03 0.  0.
   -5000001    1    1    2    0    0 -0.24244281909E+02 -0.43834630824E+02  0.10037719011E+03  0.22237095215E+03  0.19200000000E+03 0.  0.
<mgrwt>
<rscale>  0 0.41936057E+03</rscale>
<asrwt>0</asrwt>
<pdfrwt beam="1">  1        2 0.68124711E-01 0.41936057E+03</pdfrwt>
<pdfrwt beam="2">  1       -2 0.13170869E-01 0.41936057E+03</pdfrwt>
<totfact> 0.30512347E+03</totfact>
</mgrwt>
</event>
<event>
 4    1  0.2058931E-005  0.8243378E+03  0.7818608E-02  0.9525442E-01
          2   -1    0    0  501    0  0.00000000000E+00  0.00000000000E+00  0.11246064247E+04  0.11246064247E+04  0.25500000000E-02 0.  1.
         -2   -1    0    0    0  501 -0.00000000000E+00 -0.00000000000E+00 -0.15106012380E+03  0.15106012382E+03  0.25500000000E-02 0. -1.
    5000001    1    1    2    0    0 -0.25938117426E+03  0.85985951647E+02  0.11297145249E+03  0.35256024524E+03  0.19200000000E+03 0.  0.
   -5000001    1    1    2    0    0  0.25938117426E+03 -0.85985951647E+02  0.86057484840E+03  0.92310630327E+03  0.19200000000E+03 0.  0.
<mgrwt>
<rscale>  0 0.82433776E+03</rscale>
<asrwt>0</asrwt>
<pdfrwt beam="1">  1        2 0.16065806E+00 0.82433776E+03</pdfrwt>
<pdfrwt beam="2">  1       -2 0.21580018E-01 0.82433776E+03</pdfrwt>
<totfact> 0.44196022E+02</totfact>
</mgrwt>
</event>
<event>
 4    1  0.2058931E-005  0.5484970E+03  0.7818608E-02  0.1001842E+00
         -2   -1    0    0    0  501 -0.00000000000E+00  0.00000000000E+00  0.25654377472E+02  0.25654377599E+02  0.25500000000E-02 0. -1.
          2   -1    0    0  501    0  0.00000000000E+00 -0.00000000000E+00 -0.29317509894E+04  0.29317509894E+04  0.25500000000E-02 0.  1.
    5000001    1    1    2    0    0 -0.17656017818E+03  0.40065962736E+02 -0.10506617436E+04  0.10832972248E+04  0.19200000000E+03 0.  0.
   -5000001    1    1    2    0    0  0.17656017818E+03 -0.40065962736E+02 -0.18554348684E+04  0.18741081422E+04  0.19200000000E+03 0.  0.
<mgrwt>
<rscale>  0 0.54849703E+03</rscale>
<asrwt>0</asrwt>
<pdfrwt beam="1">  1        2 0.41882136E+00 0.54849703E+03</pdfrwt>
<pdfrwt beam="2">  1       -2 0.36649129E-02 0.54849703E+03</pdfrwt>
<totfact> 0.91371359E+02</totfact>
</mgrwt>
</event>
<event>
 4    1  0.2058931E-005  0.5646222E+03  0.7818608E-02  0.9981650E-01
         -2   -1    0    0    0  501 -0.00000000000E+00  0.00000000000E+00  0.50697093381E+02  0.50697093445E+02  0.25500000000E-02 0. -1.
          2   -1    0    0  501    0  0.00000000000E+00 -0.00000000000E+00 -0.15720735872E+04  0.15720735872E+04  0.25500000000E-02 0.  1.
    5000001    1    1    2    0    0 -0.12627274435E+03  0.16235503984E+03 -0.82695417411E+03  0.87351083050E+03  0.19200000000E+03 0.  0.
   -5000001    1    1    2    0    0  0.12627274435E+03 -0.16235503984E+03 -0.69442231972E+03  0.74925985016E+03  0.19200000000E+03 0.  0.
<mgrwt>
<rscale>  0 0.56462222E+03</rscale>
<asrwt>0</asrwt>
<pdfrwt beam="1">  1        2 0.22458191E+00 0.56462222E+03</pdfrwt>
<pdfrwt beam="2">  1       -2 0.72424429E-02 0.56462222E+03</pdfrwt>
<totfact> 0.15691701E+03</totfact>
</mgrwt>
</event>
<event>
 4    1  0.2058931E-005  0.5386334E+03  0.7818608E-02  0.1004160E+00
         -2   -1    0    0    0  501 -0.00000000000E+00  0.00000000000E+00  0.32211570081E+02  0.32211570182E+02  0.25500000000E-02 0. -1.
          2   -1    0    0  501    0  0.00000000000E+00 -0.00000000000E+00 -0.22517214531E+04  0.22517214531E+04  0.25500000000E-02 0.  1.
    5000001    1    1    2    0    0  0.13819754683E+03  0.12375980139E+02 -0.16530309681E+04  0.16699182940E+04  0.19200000000E+03 0.  0.
   -5000001    1    1    2    0    0 -0.13819754683E+03 -0.12375980139E+02 -0.56647891485E+03  0.61401472931E+03  0.19200000000E+03 0.  0.
<mgrwt>
<rscale>  0 0.53863339E+03</rscale>
<asrwt>0</asrwt>
<pdfrwt beam="1">  1        2 0.32167439E+00 0.53863339E+03</pdfrwt>
<pdfrwt beam="2">  1       -2 0.46016543E-02 0.53863339E+03</pdfrwt>
<totfact> 0.14493246E+03</totfact>
</mgrwt>
</event>
<event>
 4    1  0.2058931E-005  0.4779397E+03  0.7818608E-02  0.1019703E+00
          2   -1    0    0  501    0  0.00000000000E+00  0.00000000000E+00  0.27929176812E+03  0.27929176813E+03  0.25500000000E-02 0.  1.
         -2   -1    0    0    0  501 -0.00000000000E+00 -0.00000000000E+00 -0.20446925129E+03  0.20446925131E+03  0.25500000000E-02 0. -1.
    5000001    1    1    2    0    0  0.10291019629E+03  0.91171813955E+02  0.36255441978E+00  0.23615024795E+03  0.19200000000E+03 0.  0.
   -5000001    1    1    2    0    0 -0.10291019629E+03 -0.91171813955E+02  0.74459962410E+02  0.24761077150E+03  0.19200000000E+03 0.  0.
<mgrwt>
<rscale>  0 0.47793966E+03</rscale>
<asrwt>0</asrwt>
<pdfrwt beam="1">  1        2 0.39898824E-01 0.47793966E+03</pdfrwt>
<pdfrwt beam="2">  1       -2 0.29209893E-01 0.47793966E+03</pdfrwt>
<totfact> 0.13871636E+03</totfact>
</mgrwt>
</event>
<event>
 4    1  0.2058931E-005  0.6107614E+03  0.7818608E-02  0.9883328E-01
         -2   -1    0    0    0  501 -0.00000000000E+00  0.00000000000E+00  0.22703097149E+03  0.22703097150E+03  0.25500000000E-02 0. -1.
          2   -1    0    0  501    0  0.00000000000E+00 -0.00000000000E+00 -0.41076944727E+03  0.41076944728E+03  0.25500000000E-02 0.  1.
    5000001    1    1    2    0    0  0.22545724409E+03 -0.74430745653E+02 -0.96820653219E+02  0.32032662035E+03  0.19200000000E+03 0.  0.
   -5000001    1    1    2    0    0 -0.22545724409E+03  0.74430745653E+02 -0.86917822567E+02  0.31747379844E+03  0.19200000000E+03 0.  0.
<mgrwt>
<rscale>  0 0.61076145E+03</rscale>
<asrwt>0</asrwt>
<pdfrwt beam="1">  1        2 0.58681349E-01 0.61076145E+03</pdfrwt>
<pdfrwt beam="2">  1       -2 0.32432996E-01 0.61076145E+03</pdfrwt>
<totfact> 0.74650960E+02</totfact>
</mgrwt>
</event>
<event>
 4    1  0.2058931E-005  0.7526868E+03  0.7818608E-02  0.9631145E-01
         -2   -1    0    0    0  501 -0.00000000000E+00  0.00000000000E+00  0.72070783838E+02  0.72070783883E+02  0.25500000000E-02 0. -1.
          2   -1    0    0  501    0  0.00000000000E+00 -0.00000000000E+00 -0.19652115498E+04  0.19652115498E+04  0.25500000000E-02 0.  1.
    5000001    1    1    2    0    0  0.53734846011E+02 -0.27847652028E+03 -0.52434795710E+03  0.62629177397E+03  0.19200000000E+03 0.  0.
   -5000001    1    1    2    0    0 -0.53734846011E+02  0.27847652028E+03 -0.13687928089E+04  0.14109905598E+04  0.19200000000E+03 0.  0.
<mgrwt>
<rscale>  0 0.75268675E+03</rscale>
<asrwt>0</asrwt>
<pdfrwt beam="1">  1        2 0.28074447E+00 0.75268675E+03</pdfrwt>
<pdfrwt beam="2">  1       -2 0.10295827E-01 0.75268675E+03</pdfrwt>
<totfact> 0.55762313E+02</totfact>
</mgrwt>
</event>
<event>
 4    1  0.2058931E-005  0.1210631E+04  0.7818608E-02  0.9103602E-01
         -2   -1    0    0    0  501 -0.00000000000E+00  0.00000000000E+00  0.20348053307E+03  0.20348053309E+03  0.25500000000E-02 0. -1.
          2   -1    0    0  501    0  0.00000000000E+00 -0.00000000000E+00 -0.18006972237E+04  0.18006972237E+04  0.25500000000E-02 0.  1.
    5000001    1    1    2    0    0 -0.40006064625E+03 -0.41106997959E+03 -0.83620572981E+03  0.10320518744E+04  0.19200000000E+03 0.  0.
   -5000001    1    1    2    0    0  0.40006064625E+03  0.41106997959E+03 -0.76101096077E+03  0.97212588239E+03  0.19200000000E+03 0.  0.
<mgrwt>
<rscale>  0 0.12106310E+04</rscale>
<asrwt>0</asrwt>
<pdfrwt beam="1">  1        2 0.25724245E+00 0.12106310E+04</pdfrwt>
<pdfrwt beam="2">  1       -2 0.29068649E-01 0.12106310E+04</pdfrwt>
<totfact> 0.10900924E+02</totfact>
</mgrwt>
</event>
<event>
 4    1  0.2058931E-005  0.6867125E+03  0.7818608E-02  0.9740229E-01
          2   -1    0    0  501    0  0.00000000000E+00  0.00000000000E+00  0.22144385842E+04  0.22144385842E+04  0.25500000000E-02 0.  1.
         -2   -1    0    0    0  501 -0.00000000000E+00 -0.00000000000E+00 -0.53238559117E+02  0.53238559178E+02  0.25500000000E-02 0. -1.
    5000001    1    1    2    0    0 -0.14766359656E+03 -0.10143734190E+03  0.35010367582E+03  0.43764215508E+03  0.19200000000E+03 0.  0.
   -5000001    1    1    2    0    0  0.14766359656E+03  0.10143734190E+03  0.18110963492E+04  0.18300349883E+04  0.19200000000E+03 0.  0.
<mgrwt>
<rscale>  0 0.68671251E+03</rscale>
<asrwt>0</asrwt>
<pdfrwt beam="1">  1        2 0.31634837E+00 0.68671251E+03</pdfrwt>
<pdfrwt beam="2">  1       -2 0.76055085E-02 0.68671251E+03</pdfrwt>
<totfact> 0.68258923E+02</totfact>
</mgrwt>
</event>
<event>
 4    1  0.2058931E-005  0.4269184E+03  0.7818608E-02  0.1034838E+00
          2   -1    0    0  501    0  0.00000000000E+00  0.00000000000E+00  0.92894002520E+03  0.92894002520E+03  0.25500000000E-02 0.  1.
         -2   -1    0    0    0  501 -0.00000000000E+00 -0.00000000000E+00 -0.49050348074E+02  0.49050348140E+02  0.25500000000E-02 0. -1.
    5000001    1    1    2    0    0  0.54399335308E+02  0.36403639650E+02  0.28770794453E+03  0.35202893916E+03  0.19200000000E+03 0.  0.
   -5000001    1    1    2    0    0 -0.54399335308E+02 -0.36403639650E+02  0.59218173259E+03  0.62596143418E+03  0.19200000000E+03 0.  0.
<mgrwt>
<rscale>  0 0.42691841E+03</rscale>
<asrwt>0</asrwt>
<pdfrwt beam="1">  1        2 0.13270571E+00 0.42691841E+03</pdfrwt>
<pdfrwt beam="2">  1       -2 0.70071928E-02 0.42691841E+03</pdfrwt>
<totfact> 0.37640499E+03</totfact>
</mgrwt>
</event>
<event>
 4    1  0.2058931E-005  0.1654429E+04  0.7818608E-02  0.8787791E-01
          2   -1    0    0  501    0  0.00000000000E+00  0.00000000000E+00  0.18151894814E+04  0.18151894814E+04  0.25500000000E-02 0.  1.
         -2   -1    0    0    0  501 -0.00000000000E+00 -0.00000000000E+00 -0.37697637036E+03  0.37697637037E+03  0.25500000000E-02 0. -1.
    5000001    1    1    2    0    0  0.73098986384E+03 -0.27590555666E+03  0.97380691622E+03  0.12631840592E+04  0.19200000000E+03 0.  0.
   -5000001    1    1    2    0    0 -0.73098986384E+03  0.27590555666E+03  0.46440619482E+03  0.92898179261E+03  0.19200000000E+03 0.  0.
<mgrwt>
<rscale>  0 0.16544287E+04</rscale>
<asrwt>0</asrwt>
<pdfrwt beam="1">  1        2 0.25931278E+00 0.16544287E+04</pdfrwt>
<pdfrwt beam="2">  1       -2 0.53853768E-01 0.16544287E+04</pdfrwt>
<totfact> 0.31063524E+01</totfact>
</mgrwt>
</event>
<event>
 4    1  0.2058931E-005  0.5589471E+03  0.7818608E-02  0.9994440E-01
          2   -1    0    0  501    0  0.00000000000E+00  0.00000000000E+00  0.12620995043E+03  0.12620995046E+03  0.25500000000E-02 0.  1.
         -2   -1    0    0    0  501 -0.00000000000E+00 -0.00000000000E+00 -0.61885353651E+03  0.61885353652E+03  0.25500000000E-02 0. -1.
    5000001    1    1    2    0    0 -0.19120185383E+01 -0.19687607671E+03 -0.31267175332E+03  0.41640301478E+03  0.19200000000E+03 0.  0.
   -5000001    1    1    2    0    0  0.19120185383E+01  0.19687607671E+03 -0.17997183276E+03  0.32866047219E+03  0.19200000000E+03 0.  0.
<mgrwt>
<rscale>  0 0.55894713E+03</rscale>
<asrwt>0</asrwt>
<pdfrwt beam="1">  1        2 0.18029993E-01 0.55894713E+03</pdfrwt>
<pdfrwt beam="2">  1       -2 0.88407647E-01 0.55894713E+03</pdfrwt>
<totfact> 0.35755318E+02</totfact>
</mgrwt>
</event>
<event>
 4    1  0.2058931E-005  0.4093843E+03  0.7818608E-02  0.1040578E+00
         -2   -1    0    0    0  501 -0.00000000000E+00  0.00000000000E+00  0.64153666479E+02  0.64153666530E+02  0.25500000000E-02 0. -1.
          2   -1    0    0  501    0  0.00000000000E+00 -0.00000000000E+00 -0.65310183022E+03  0.65310183022E+03  0.25500000000E-02 0.  1.
    5000001    1    1    2    0    0  0.91604505099E+01  0.70324698392E+02 -0.29040273818E+03  0.35528471315E+03  0.19200000000E+03 0.  0.
   -5000001    1    1    2    0    0 -0.91604505099E+01 -0.70324698392E+02 -0.29854542556E+03  0.36197078360E+03  0.19200000000E+03 0.  0.
<mgrwt>
<rscale>  0 0.40938430E+03</rscale>
<asrwt>0</asrwt>
<pdfrwt beam="1">  1        2 0.93300258E-01 0.40938430E+03</pdfrwt>
<pdfrwt beam="2">  1       -2 0.91648099E-02 0.40938430E+03</pdfrwt>
<totfact> 0.38271199E+03</totfact>
</mgrwt>
</event>
<event>
 4    1  0.2058931E-005  0.6820197E+03  0.7818608E-02  0.9748485E-01
          2   -1    0    0  501    0  0.00000000000E+00  0.00000000000E+00  0.70219126168E+03  0.70219126169E+03  0.25500000000E-02 0.  1.
         -2   -1    0    0    0  501 -0.00000000000E+00 -0.00000000000E+00 -0.16560688143E+03  0.16560688145E+03  0.25500000000E-02 0. -1.
    5000001    1    1    2    0    0  0.26296978680E+03 -0.97117688927E+02  0.23144212304E+03  0.41111362248E+03  0.19200000000E+03 0.  0.
   -5000001    1    1    2    0    0 -0.26296978680E+03  0.97117688927E+02  0.30514225721E+03  0.45668452066E+03  0.19200000000E+03 0.  0.
<mgrwt>
<rscale>  0 0.68201966E+03</rscale>
<asrwt>0</asrwt>
<pdfrwt beam="1">  1        2 0.10031304E+00 0.68201966E+03</pdfrwt>
<pdfrwt beam="2">  1       -2 0.23658126E-01 0.68201966E+03</pdfrwt>
<totfact> 0.71232315E+02</totfact>
</mgrwt>
</event>
<event>
 4    1  0.2058931E-005  0.6462690E+03  0.7818608E-02  0.9813805E-01
         -2   -1    0    0    0  501 -0.00000000000E+00  0.00000000000E+00  0.61338723781E+02  0.61338723834E+02  0.25500000000E-02 0. -1.
          2   -1    0    0  501    0  0.00000000000E+00 -0.00000000000E+00 -0.17022836340E+04  0.17022836340E+04  0.25500000000E-02 0.  1.
    5000001    1    1    2    0    0  0.13641231730E+03 -0.18277695561E+03 -0.11606175798E+04  0.11982958326E+04  0.19200000000E+03 0.  0.
   -5000001    1    1    2    0    0 -0.13641231730E+03  0.18277695561E+03 -0.48032733035E+03  0.56532652520E+03  0.19200000000E+03 0.  0.
<mgrwt>
<rscale>  0 0.64626900E+03</rscale>
<asrwt>0</asrwt>
<pdfrwt beam="1">  1        2 0.24318335E+00 0.64626900E+03</pdfrwt>
<pdfrwt beam="2">  1       -2 0.87626759E-02 0.64626900E+03</pdfrwt>
<totfact> 0.99003769E+02</totfact>
</mgrwt>
</event>
<event>
 4    1  0.2058931E-005  0.5016076E+03  0.7818608E-02  0.1013360E+00
         -2   -1    0    0    0  501 -0.00000000000E+00  0.00000000000E+00  0.82892389041E+02  0.82892389080E+02  0.25500000000E-02 0. -1.
          2   -1    0    0  501    0  0.00000000000E+00 -0.00000000000E+00 -0.75884585680E+03  0.75884585681E+03  0.25500000000E-02 0.  1.
    5000001    1    1    2    0    0 -0.13860967774E+03  0.72942983794E+02 -0.40308161816E+03  0.47315125757E+03  0.19200000000E+03 0.  0.
   -5000001    1    1    2    0    0  0.13860967774E+03 -0.72942983794E+02 -0.27287184960E+03  0.36858698831E+03  0.19200000000E+03 0.  0.
<mgrwt>
<rscale>  0 0.50160760E+03</rscale>
<asrwt>0</asrwt>
<pdfrwt beam="1">  1        2 0.10840655E+00 0.50160760E+03</pdfrwt>
<pdfrwt beam="2">  1       -2 0.11841770E-01 0.50160760E+03</pdfrwt>
<totfact> 0.21120043E+03</totfact>
</mgrwt>
</event>
<event>
 4    1  0.2058931E-005  0.7879946E+03  0.7818608E-02  0.9577559E-01
         -2   -1    0    0    0  501 -0.00000000000E+00  0.00000000000E+00  0.95794631088E+02  0.95794631122E+02  0.25500000000E-02 0. -1.
          2   -1    0    0  501    0  0.00000000000E+00 -0.00000000000E+00 -0.16204861261E+04  0.16204861261E+04  0.25500000000E-02 0.  1.
    5000001    1    1    2    0    0 -0.31657198648E+03 -0.70429010931E+02 -0.10125053418E+04  0.10803745348E+04  0.19200000000E+03 0.  0.
   -5000001    1    1    2    0    0  0.31657198648E+03  0.70429010931E+02 -0.51218615318E+03  0.63590622242E+03  0.19200000000E+03 0.  0.
<mgrwt>
<rscale>  0 0.78799460E+03</rscale>
<asrwt>0</asrwt>
<pdfrwt beam="1">  1        2 0.23149800E+00 0.78799460E+03</pdfrwt>
<pdfrwt beam="2">  1       -2 0.13684948E-01 0.78799460E+03</pdfrwt>
<totfact> 0.52129301E+02</totfact>
</mgrwt>
</event>
<event>
 4    1  0.2058931E-005  0.7472098E+03  0.7818608E-02  0.9639738E-01
          2   -1    0    0  501    0  0.00000000000E+00  0.00000000000E+00  0.12148891925E+04  0.12148891925E+04  0.25500000000E-02 0.  1.
         -2   -1    0    0    0  501 -0.00000000000E+00 -0.00000000000E+00 -0.11489165287E+03  0.11489165290E+03  0.25500000000E-02 0. -1.
    5000001    1    1    2    0    0 -0.30459607755E+03  0.47352779697E+01  0.37278667057E+03  0.51830019783E+03  0.19200000000E+03 0.  0.
   -5000001    1    1    2    0    0  0.30459607755E+03 -0.47352779697E+01  0.72721086910E+03  0.81148064761E+03  0.19200000000E+03 0.  0.
<mgrwt>
<rscale>  0 0.74720982E+03</rscale>
<asrwt>0</asrwt>
<pdfrwt beam="1">  1        2 0.17355562E+00 0.74720982E+03</pdfrwt>
<pdfrwt beam="2">  1       -2 0.16413092E-01 0.74720982E+03</pdfrwt>
<totfact> 0.63336812E+02</totfact>
</mgrwt>
</event>
<event>
 4    1  0.2058931E-005  0.7388065E+03  0.7818608E-02  0.9653077E-01
          2   -1    0    0  501    0  0.00000000000E+00  0.00000000000E+00  0.11152763256E+04  0.11152763256E+04  0.25500000000E-02 0.  1.
         -2   -1    0    0    0  501 -0.00000000000E+00 -0.00000000000E+00 -0.12235422967E+03  0.12235422970E+03  0.25500000000E-02 0. -1.
    5000001    1    1    2    0    0  0.36884169079E+02  0.20979186699E+03  0.88653493880E+03  0.93176245208E+03  0.19200000000E+03 0.  0.
   -5000001    1    1    2    0    0 -0.36884169079E+02 -0.20979186699E+03  0.10638715716E+03  0.30586810327E+03  0.19200000000E+03 0.  0.
<mgrwt>
<rscale>  0 0.73880654E+03</rscale>
<asrwt>0</asrwt>
<pdfrwt beam="1">  1        2 0.15932520E+00 0.73880654E+03</pdfrwt>
<pdfrwt beam="2">  1       -2 0.17479175E-01 0.73880654E+03</pdfrwt>
<totfact> 0.64853542E+02</totfact>
</mgrwt>
</event>
<event>
 4    1  0.2058931E-005  0.4916057E+03  0.7818608E-02  0.1015993E+00
          2   -1    0    0  501    0  0.00000000000E+00  0.00000000000E+00  0.20410013571E+03  0.20410013572E+03  0.25500000000E-02 0.  1.
         -2   -1    0    0    0  501 -0.00000000000E+00 -0.00000000000E+00 -0.29602650839E+03  0.29602650840E+03  0.25500000000E-02 0. -1.
    5000001    1    1    2    0    0  0.10294992174E+03  0.96187912858E+02  0.15954278788E+02  0.23868250874E+03  0.19200000000E+03 0.  0.
   -5000001    1    1    2    0    0 -0.10294992174E+03 -0.96187912858E+02 -0.10788065147E+03  0.26144413539E+03  0.19200000000E+03 0.  0.
<mgrwt>
<rscale>  0 0.49160574E+03</rscale>
<asrwt>0</asrwt>
<pdfrwt beam="1">  1        2 0.29157162E-01 0.49160574E+03</pdfrwt>
<pdfrwt beam="2">  1       -2 0.42289501E-01 0.49160574E+03</pdfrwt>
<totfact> 0.97595647E+02</totfact>
</mgrwt>
</event>
<event>
 4    1  0.2058931E-005  0.7560509E+03  0.7818608E-02  0.9625905E-01
         -2   -1    0    0    0  501 -0.00000000000E+00  0.00000000000E+00  0.37423169162E+03  0.37423169162E+03  0.25500000000E-02 0. -1.
          2   -1    0    0  501    0  0.00000000000E+00 -0.00000000000E+00 -0.38185764054E+03  0.38185764055E+03  0.25500000000E-02 0.  1.
    5000001    1    1    2    0    0 -0.19917666090E+03  0.41809090666E+01 -0.26141180779E+03  0.38064281880E+03  0.19200000000E+03 0.  0.
   -5000001    1    1    2    0    0  0.19917666090E+03 -0.41809090666E+01  0.25378585887E+03  0.37544651338E+03  0.19200000000E+03 0.  0.
<mgrwt>
<rscale>  0 0.75605087E+03</rscale>
<asrwt>0</asrwt>
<pdfrwt beam="1">  1        2 0.54551091E-01 0.75605087E+03</pdfrwt>
<pdfrwt beam="2">  1       -2 0.53461671E-01 0.75605087E+03</pdfrwt>
<totfact> 0.30271554E+02</totfact>
</mgrwt>
</event>
<event>
 4    1  0.2058931E-005  0.5192900E+03  0.7818608E-02  0.1008863E+00
          2   -1    0    0  501    0  0.00000000000E+00  0.00000000000E+00  0.24258266676E+03  0.24258266677E+03  0.25500000000E-02 0.  1.
         -2   -1    0    0    0  501 -0.00000000000E+00 -0.00000000000E+00 -0.27790741497E+03  0.27790741498E+03  0.25500000000E-02 0. -1.
    5000001    1    1    2    0    0  0.60390900169E+02 -0.14909989145E+03  0.50859961324E+02  0.25559455025E+03  0.19200000000E+03 0.  0.
   -5000001    1    1    2    0    0 -0.60390900169E+02  0.14909989145E+03 -0.86184709539E+02  0.26489553150E+03  0.19200000000E+03 0.  0.
<mgrwt>
<rscale>  0 0.51928998E+03</rscale>
<asrwt>0</asrwt>
<pdfrwt beam="1">  1        2 0.34654667E-01 0.51928998E+03</pdfrwt>
<pdfrwt beam="2">  1       -2 0.39701059E-01 0.51928998E+03</pdfrwt>
<totfact> 0.91023951E+02</totfact>
</mgrwt>
</event>
<event>
 4    1  0.2058931E-005  0.5372597E+03  0.7818608E-02  0.1004487E+00
         -2   -1    0    0    0  501 -0.00000000000E+00  0.00000000000E+00  0.32963007304E+02  0.32963007402E+02  0.25500000000E-02 0. -1.
          2   -1    0    0  501    0  0.00000000000E+00 -0.00000000000E+00 -0.21891809011E+04  0.21891809011E+04  0.25500000000E-02 0.  1.
    5000001    1    1    2    0    0 -0.44496341173E+02  0.11936497988E+03 -0.50694075463E+03  0.55684903834E+03  0.19200000000E+03 0.  0.
   -5000001    1    1    2    0    0  0.44496341173E+02 -0.11936497988E+03 -0.16492771391E+04  0.16652948701E+04  0.19200000000E+03 0.  0.
<mgrwt>
<rscale>  0 0.53725966E+03</rscale>
<asrwt>0</asrwt>
<pdfrwt beam="1">  1        2 0.31274004E+00 0.53725966E+03</pdfrwt>
<pdfrwt beam="2">  1       -2 0.47090024E-02 0.53725966E+03</pdfrwt>
<totfact> 0.15037208E+03</totfact>
</mgrwt>
</event>
<event>
 4    1  0.2058931E-005  0.7894726E+03  0.7818608E-02  0.9575381E-01
         -2   -1    0    0    0  501 -0.00000000000E+00  0.00000000000E+00  0.95358334515E+02  0.95358334549E+02  0.25500000000E-02 0. -1.
          2   -1    0    0  501    0  0.00000000000E+00 -0.00000000000E+00 -0.16340129662E+04  0.16340129662E+04  0.25500000000E-02 0.  1.
    5000001    1    1    2    0    0  0.16804717847E+03  0.71071859308E+02 -0.12819968035E+03  0.29426216444E+03  0.19200000000E+03 0.  0.
   -5000001    1    1    2    0    0 -0.16804717847E+03 -0.71071859308E+02 -0.14104549514E+04  0.14351091363E+04  0.19200000000E+03 0.  0.
<mgrwt>
<rscale>  0 0.78947262E+03</rscale>
<asrwt>0</asrwt>
<pdfrwt beam="1">  1        2 0.23343041E+00 0.78947262E+03</pdfrwt>
<pdfrwt beam="2">  1       -2 0.13622620E-01 0.78947262E+03</pdfrwt>
<totfact> 0.51686303E+02</totfact>
</mgrwt>
</event>
<event>
 4    1  0.2058931E-005  0.5078246E+03  0.7818608E-02  0.1011757E+00
          2   -1    0    0  501    0  0.00000000000E+00  0.00000000000E+00  0.24102498985E+04  0.24102498985E+04  0.25500000000E-02 0.  1.
         -2   -1    0    0    0  501 -0.00000000000E+00 -0.00000000000E+00 -0.26748865379E+02  0.26748865501E+02  0.25500000000E-02 0. -1.
    5000001    1    1    2    0    0 -0.14782062598E+03 -0.73839643178E+02  0.11080486076E+04  0.11366349226E+04  0.19200000000E+03 0.  0.
   -5000001    1    1    2    0    0  0.14782062598E+03  0.73839643178E+02  0.12754524255E+04  0.13003638414E+04  0.19200000000E+03 0.  0.
<mgrwt>
<rscale>  0 0.50782458E+03</rscale>
<asrwt>0</asrwt>
<pdfrwt beam="1">  1        2 0.34432114E+00 0.50782458E+03</pdfrwt>
<pdfrwt beam="2">  1       -2 0.38212696E-02 0.50782458E+03</pdfrwt>
<totfact> 0.16061866E+03</totfact>
</mgrwt>
</event>
<event>
 4    1  0.2058931E-005  0.4859614E+03  0.7818608E-02  0.1017510E+00
         -2   -1    0    0    0  501 -0.00000000000E+00  0.00000000000E+00  0.10273439996E+03  0.10273439999E+03  0.25500000000E-02 0. -1.
          2   -1    0    0  501    0  0.00000000000E+00 -0.00000000000E+00 -0.57468217522E+03  0.57468217522E+03  0.25500000000E-02 0.  1.
    5000001    1    1    2    0    0 -0.14527268396E+03  0.10240358741E+02 -0.19263479274E+03  0.30851447458E+03  0.19200000000E+03 0.  0.
   -5000001    1    1    2    0    0  0.14527268396E+03 -0.10240358741E+02 -0.27931298252E+03  0.36890210064E+03  0.19200000000E+03 0.  0.
<mgrwt>
<rscale>  0 0.48596143E+03</rscale>
<asrwt>0</asrwt>
<pdfrwt beam="1">  1        2 0.82097452E-01 0.48596143E+03</pdfrwt>
<pdfrwt beam="2">  1       -2 0.14676343E-01 0.48596143E+03</pdfrwt>
<totfact> 0.20658057E+03</totfact>
</mgrwt>
</event>
<event>
 4    1  0.2058931E-005  0.9366775E+03  0.7818608E-02  0.9380859E-01
         -2   -1    0    0    0  501 -0.00000000000E+00  0.00000000000E+00  0.43544502319E+03  0.43544502320E+03  0.25500000000E-02 0. -1.
          2   -1    0    0  501    0  0.00000000000E+00 -0.00000000000E+00 -0.50371730225E+03  0.50371730225E+03  0.25500000000E-02 0.  1.
    5000001    1    1    2    0    0 -0.22945194351E+03 -0.34665234241E+03  0.64415763041E+02  0.46241694541E+03  0.19200000000E+03 0.  0.
   -5000001    1    1    2    0    0  0.22945194351E+03  0.34665234241E+03 -0.13268804210E+03  0.47674538004E+03  0.19200000000E+03 0.  0.
<mgrwt>
<rscale>  0 0.93667752E+03</rscale>
<asrwt>0</asrwt>
<pdfrwt beam="1">  1        2 0.71959615E-01 0.93667752E+03</pdfrwt>
<pdfrwt beam="2">  1       -2 0.62206432E-01 0.93667752E+03</pdfrwt>
<totfact> 0.16001602E+02</totfact>
</mgrwt>
</event>
<event>
 4    1  0.2058931E-005  0.4935694E+03  0.7818608E-02  0.1015471E+00
          2   -1    0    0  501    0  0.00000000000E+00  0.00000000000E+00  0.15059374308E+04  0.15059374308E+04  0.25500000000E-02 0.  1.
         -2   -1    0    0    0  501 -0.00000000000E+00 -0.00000000000E+00 -0.40441716783E+02  0.40441716863E+02  0.25500000000E-02 0. -1.
    5000001    1    1    2    0    0 -0.75888512748E+02 -0.11764258219E+03  0.52398561065E+03  0.57534664654E+03  0.19200000000E+03 0.  0.
   -5000001    1    1    2    0    0  0.75888512748E+02  0.11764258219E+03  0.94151010337E+03  0.97103250114E+03  0.19200000000E+03 0.  0.
<mgrwt>
<rscale>  0 0.49356943E+03</rscale>
<asrwt>0</asrwt>
<pdfrwt beam="1">  1        2 0.21513394E+00 0.49356943E+03</pdfrwt>
<pdfrwt beam="2">  1       -2 0.57773875E-02 0.49356943E+03</pdfrwt>
<totfact> 0.24241164E+03</totfact>
</mgrwt>
</event>
<event>
 4    1  0.2058931E-005  0.6853651E+03  0.7818608E-02  0.9742592E-01
          2   -1    0    0  501    0  0.00000000000E+00  0.00000000000E+00  0.36996970082E+03  0.36996970082E+03  0.25500000000E-02 0.  1.
         -2   -1    0    0    0  501 -0.00000000000E+00 -0.00000000000E+00 -0.31740797612E+03  0.31740797613E+03  0.25500000000E-02 0. -1.
    5000001    1    1    2    0    0 -0.74729337407E+02 -0.19022193052E+03 -0.17127083781E+03  0.32858264806E+03  0.19200000000E+03 0.  0.
   -5000001    1    1    2    0    0  0.74729337407E+02  0.19022193052E+03  0.22383256251E+03  0.35879502890E+03  0.19200000000E+03 0.  0.
<mgrwt>
<rscale>  0 0.68536511E+03</rscale>
<asrwt>0</asrwt>
<pdfrwt beam="1">  1        2 0.52852814E-01 0.68536511E+03</pdfrwt>
<pdfrwt beam="2">  1       -2 0.45343997E-01 0.68536511E+03</pdfrwt>
<totfact> 0.43864040E+02</totfact>
</mgrwt>
</event>
<event>
 4    1  0.2058931E-005  0.7069818E+03  0.7818608E-02  0.9705366E-01
         -2   -1    0    0    0  501 -0.00000000000E+00  0.00000000000E+00  0.72286423701E+02  0.72286423746E+02  0.25500000000E-02 0. -1.
          2   -1    0    0  501    0  0.00000000000E+00 -0.00000000000E+00 -0.17286210543E+04  0.17286210543E+04  0.25500000000E-02 0.  1.
    5000001    1    1    2    0    0 -0.27849474196E+03  0.66025455281E+02 -0.10283085712E+04  0.10845280999E+04  0.19200000000E+03 0.  0.
   -5000001    1    1    2    0    0  0.27849474196E+03 -0.66025455281E+02 -0.62802605946E+03  0.71637937813E+03  0.19200000000E+03 0.  0.
<mgrwt>
<rscale>  0 0.70698185E+03</rscale>
<asrwt>0</asrwt>
<pdfrwt beam="1">  1        2 0.24694584E+00 0.70698185E+03</pdfrwt>
<pdfrwt beam="2">  1       -2 0.10326633E-01 0.70698185E+03</pdfrwt>
<totfact> 0.73358785E+02</totfact>
</mgrwt>
</event>
<event>
 4    1  0.2058931E-005  0.6741317E+03  0.7818608E-02  0.9762522E-01
         -2   -1    0    0    0  501 -0.00000000000E+00  0.00000000000E+00  0.83865914835E+02  0.83865914874E+02  0.25500000000E-02 0. -1.
          2   -1    0    0  501    0  0.00000000000E+00 -0.00000000000E+00 -0.13547028724E+04  0.13547028724E+04  0.25500000000E-02 0.  1.
    5000001    1    1    2    0    0  0.19548417898E+03  0.15169757099E+03 -0.36954428092E+03  0.48441014940E+03  0.19200000000E+03 0.  0.
   -5000001    1    1    2    0    0 -0.19548417898E+03 -0.15169757099E+03 -0.90129267665E+03  0.95415863789E+03  0.19200000000E+03 0.  0.
<mgrwt>
<rscale>  0 0.67413173E+03</rscale>
<asrwt>0</asrwt>
<pdfrwt beam="1">  1        2 0.19352897E+00 0.67413173E+03</pdfrwt>
<pdfrwt beam="2">  1       -2 0.11980846E-01 0.67413173E+03</pdfrwt>
<totfact> 0.90242142E+02</totfact>
</mgrwt>
</event>
<event>
 4    1  0.2058931E-005  0.8566228E+03  0.7818608E-02  0.9481491E-01
         -2   -1    0    0    0  501 -0.00000000000E+00  0.00000000000E+00  0.82355949013E+02  0.82355949052E+02  0.25500000000E-02 0. -1.
          2   -1    0    0  501    0  0.00000000000E+00 -0.00000000000E+00 -0.22275337569E+04  0.22275337569E+04  0.25500000000E-02 0.  1.
    5000001    1    1    2    0    0  0.94812168475E+01  0.36556952625E+03 -0.76685104747E+03  0.87100832430E+03  0.19200000000E+03 0.  0.
   -5000001    1    1    2    0    0 -0.94812168475E+01 -0.36556952625E+03 -0.13783267605E+04  0.14388813817E+04  0.19200000000E+03 0.  0.
<mgrwt>
<rscale>  0 0.85662280E+03</rscale>
<asrwt>0</asrwt>
<pdfrwt beam="1">  1        2 0.31821907E+00 0.85662280E+03</pdfrwt>
<pdfrwt beam="2">  1       -2 0.11765137E-01 0.85662280E+03</pdfrwt>
<totfact> 0.32732852E+02</totfact>
</mgrwt>
</event>
<event>
 4    1  0.2058931E-005  0.4394149E+03  0.7818608E-02  0.1030926E+00
         -2   -1    0    0    0  501 -0.00000000000E+00  0.00000000000E+00  0.18395903853E+03  0.18395903854E+03  0.25500000000E-02 0. -1.
          2   -1    0    0  501    0  0.00000000000E+00 -0.00000000000E+00 -0.26240273963E+03  0.26240273964E+03  0.25500000000E-02 0.  1.
    5000001    1    1    2    0    0  0.85005204451E+02  0.41409411787E+02 -0.89673247685E+02  0.23204722691E+03  0.19200000000E+03 0.  0.
   -5000001    1    1    2    0    0 -0.85005204451E+02 -0.41409411787E+02  0.11229546586E+02  0.21431455127E+03  0.19200000000E+03 0.  0.
<mgrwt>
<rscale>  0 0.43941486E+03</rscale>
<asrwt>0</asrwt>
<pdfrwt beam="1">  1        2 0.37486106E-01 0.43941486E+03</pdfrwt>
<pdfrwt beam="2">  1       -2 0.26279863E-01 0.43941486E+03</pdfrwt>
<totfact> 0.17983827E+03</totfact>
</mgrwt>
</event>
<event>
 4    1  0.2058931E-005  0.5122292E+03  0.7818608E-02  0.1010635E+00
         -2   -1    0    0    0  501 -0.00000000000E+00  0.00000000000E+00  0.71789598205E+02  0.71789598250E+02  0.25500000000E-02 0. -1.
          2   -1    0    0  501    0  0.00000000000E+00 -0.00000000000E+00 -0.91370743538E+03  0.91370743538E+03  0.25500000000E-02 0.  1.
    5000001    1    1    2    0    0 -0.19232824424E+02 -0.16562141281E+03 -0.47964172082E+03  0.54288169454E+03  0.19200000000E+03 0.  0.
   -5000001    1    1    2    0    0  0.19232824424E+02  0.16562141281E+03 -0.36227611635E+03  0.44261533909E+03  0.19200000000E+03 0.  0.
<mgrwt>
<rscale>  0 0.51222921E+03</rscale>
<asrwt>0</asrwt>
<pdfrwt beam="1">  1        2 0.13052963E+00 0.51222921E+03</pdfrwt>
<pdfrwt beam="2">  1       -2 0.10255657E-01 0.51222921E+03</pdfrwt>
<totfact> 0.21004478E+03</totfact>
</mgrwt>
</event>
<event>
 4    1  0.2058931E-005  0.4147531E+03  0.7818608E-02  0.1038788E+00
         -2   -1    0    0    0  501 -0.00000000000E+00  0.00000000000E+00  0.61046133766E+03  0.61046133767E+03  0.25500000000E-02 0. -1.
          2   -1    0    0  501    0  0.00000000000E+00 -0.00000000000E+00 -0.70446781832E+02  0.70446781878E+02  0.25500000000E-02 0.  1.
    5000001    1    1    2    0    0 -0.72116994654E+02  0.29362105937E+02  0.28451049867E+03  0.35195627291E+03  0.19200000000E+03 0.  0.
   -5000001    1    1    2    0    0  0.72116994654E+02 -0.29362105937E+02  0.25550405716E+03  0.32895184664E+03  0.19200000000E+03 0.  0.
<mgrwt>
<rscale>  0 0.41475312E+03</rscale>
<asrwt>0</asrwt>
<pdfrwt beam="1">  1        2 0.10063826E-01 0.41475312E+03</pdfrwt>
<pdfrwt beam="2">  1       -2 0.87208763E-01 0.41475312E+03</pdfrwt>
<totfact> 0.75204796E+02</totfact>
</mgrwt>
</event>
<event>
 4    1  0.2058931E-005  0.9213133E+03  0.7818608E-02  0.9399324E-01
          2   -1    0    0  501    0  0.00000000000E+00  0.00000000000E+00  0.21094797022E+04  0.21094797022E+04  0.25500000000E-02 0.  1.
         -2   -1    0    0    0  501 -0.00000000000E+00 -0.00000000000E+00 -0.10059568724E+03  0.10059568727E+03  0.25500000000E-02 0. -1.
    5000001    1    1    2    0    0  0.37295647296E+03  0.13596494553E+03  0.13241043088E+04  0.13955999490E+04  0.19200000000E+03 0.  0.
   -5000001    1    1    2    0    0 -0.37295647296E+03 -0.13596494553E+03  0.68477970615E+03  0.81447544045E+03  0.19200000000E+03 0.  0.
<mgrwt>
<rscale>  0 0.92131332E+03</rscale>
<asrwt>0</asrwt>
<pdfrwt beam="1">  1        2 0.30135421E+00 0.92131332E+03</pdfrwt>
<pdfrwt beam="2">  1       -2 0.14370814E-01 0.92131332E+03</pdfrwt>
<totfact> 0.26791188E+02</totfact>
</mgrwt>
</event>
<event>
 4    1  0.2058931E-005  0.5977635E+03  0.7818608E-02  0.9910057E-01
          2   -1    0    0  501    0  0.00000000000E+00  0.00000000000E+00  0.11970411390E+04  0.11970411390E+04  0.25500000000E-02 0.  1.
         -2   -1    0    0    0  501 -0.00000000000E+00 -0.00000000000E+00 -0.74625932507E+02  0.74625932551E+02  0.25500000000E-02 0. -1.
    5000001    1    1    2    0    0 -0.11048900589E+03 -0.16514079285E+03  0.80364442602E+03  0.84981625388E+03  0.19200000000E+03 0.  0.
   -5000001    1    1    2    0    0  0.11048900589E+03  0.16514079285E+03  0.31877078045E+03  0.42185081765E+03  0.19200000000E+03 0.  0.
<mgrwt>
<rscale>  0 0.59776354E+03</rscale>
<asrwt>0</asrwt>
<pdfrwt beam="1">  1        2 0.17100588E+00 0.59776354E+03</pdfrwt>
<pdfrwt beam="2">  1       -2 0.10660848E-01 0.59776354E+03</pdfrwt>
<totfact> 0.13371338E+03</totfact>
</mgrwt>
</event>
<event>
 4    1  0.2058931E-005  0.8015757E+03  0.7818608E-02  0.9557739E-01
         -2   -1    0    0    0  501 -0.00000000000E+00  0.00000000000E+00  0.16282002572E+03  0.16282002574E+03  0.25500000000E-02 0. -1.
          2   -1    0    0  501    0  0.00000000000E+00 -0.00000000000E+00 -0.98655483406E+03  0.98655483406E+03  0.25500000000E-02 0.  1.
    5000001    1    1    2    0    0  0.25282727053E+03  0.42275441914E+02 -0.75736765392E+03  0.82230079954E+03  0.19200000000E+03 0.  0.
   -5000001    1    1    2    0    0 -0.25282727053E+03 -0.42275441914E+02 -0.66367154412E+02  0.32707406027E+03  0.19200000000E+03 0.  0.
<mgrwt>
<rscale>  0 0.80157566E+03</rscale>
<asrwt>0</asrwt>
<pdfrwt beam="1">  1        2 0.14093640E+00 0.80157566E+03</pdfrwt>
<pdfrwt beam="2">  1       -2 0.23260004E-01 0.80157566E+03</pdfrwt>
<totfact> 0.46851154E+02</totfact>
</mgrwt>
</event>
<event>
 4    1  0.2058931E-005  0.9059900E+03  0.7818608E-02  0.9418124E-01
         -2   -1    0    0    0  501 -0.00000000000E+00  0.00000000000E+00  0.62093257011E+03  0.62093257011E+03  0.25500000000E-02 0. -1.
          2   -1    0    0  501    0  0.00000000000E+00 -0.00000000000E+00 -0.33047788861E+03  0.33047788862E+03  0.25500000000E-02 0.  1.
    5000001    1    1    2    0    0 -0.19212064728E+03 -0.32397894143E+03  0.31607275189E+03  0.52786237040E+03  0.19200000000E+03 0.  0.
   -5000001    1    1    2    0    0  0.19212064728E+03  0.32397894143E+03 -0.25618070397E+02  0.42354808833E+03  0.19200000000E+03 0.  0.
<mgrwt>
<rscale>  0 0.90599003E+03</rscale>
<asrwt>0</asrwt>
<pdfrwt beam="1">  1        2 0.47211127E-01 0.90599003E+03</pdfrwt>
<pdfrwt beam="2">  1       -2 0.88704653E-01 0.90599003E+03</pdfrwt>
<totfact> 0.11740817E+02</totfact>
</mgrwt>
</event>
<event>
 4    1  0.2058931E-005  0.5095739E+03  0.7818608E-02  0.1011310E+00
         -2   -1    0    0    0  501 -0.00000000000E+00  0.00000000000E+00  0.10285960789E+03  0.10285960792E+03  0.25500000000E-02 0. -1.
          2   -1    0    0  501    0  0.00000000000E+00 -0.00000000000E+00 -0.63111642655E+03  0.63111642656E+03  0.25500000000E-02 0.  1.
    5000001    1    1    2    0    0  0.60577643421E+02  0.15603459296E+03 -0.25549300929E+03  0.36077295197E+03  0.19200000000E+03 0.  0.
   -5000001    1    1    2    0    0 -0.60577643421E+02 -0.15603459296E+03 -0.27276380938E+03  0.37320308250E+03  0.19200000000E+03 0.  0.
<mgrwt>
<rscale>  0 0.50957389E+03</rscale>
<asrwt>0</asrwt>
<pdfrwt beam="1">  1        2 0.90159487E-01 0.50957389E+03</pdfrwt>
<pdfrwt beam="2">  1       -2 0.14694230E-01 0.50957389E+03</pdfrwt>
<totfact> 0.18479007E+03</totfact>
</mgrwt>
</event>
<event>
 4    1  0.2058931E-005  0.5411498E+03  0.7818608E-02  0.1003563E+00
         -2   -1    0    0    0  501 -0.00000000000E+00  0.00000000000E+00  0.41748383865E+03  0.41748383866E+03  0.25500000000E-02 0. -1.
          2   -1    0    0  501    0  0.00000000000E+00 -0.00000000000E+00 -0.17536197104E+03  0.17536197105E+03  0.25500000000E-02 0.  1.
    5000001    1    1    2    0    0  0.39162533921E+02 -0.17907146052E+03  0.17847439959E+03  0.31987091669E+03  0.19200000000E+03 0.  0.
   -5000001    1    1    2    0    0 -0.39162533921E+02  0.17907146052E+03  0.63647468026E+02  0.27297489302E+03  0.19200000000E+03 0.  0.
<mgrwt>
<rscale>  0 0.54114985E+03</rscale>
<asrwt>0</asrwt>
<pdfrwt beam="1">  1        2 0.25051710E-01 0.54114985E+03</pdfrwt>
<pdfrwt beam="2">  1       -2 0.59640548E-01 0.54114985E+03</pdfrwt>
<totfact> 0.57772438E+02</totfact>
</mgrwt>
</event>
<event>
 4    1  0.2058931E-005  0.4189634E+03  0.7818608E-02  0.1037404E+00
          2   -1    0    0  501    0  0.00000000000E+00  0.00000000000E+00  0.92724628170E+03  0.92724628170E+03  0.25500000000E-02 0.  1.
         -2   -1    0    0    0  501 -0.00000000000E+00 -0.00000000000E+00 -0.47325696546E+02  0.47325696614E+02  0.25500000000E-02 0. -1.
    5000001    1    1    2    0    0  0.60003822388E+02  0.58400595154E+02  0.43359497711E+03  0.48153887942E+03  0.19200000000E+03 0.  0.
   -5000001    1    1    2    0    0 -0.60003822388E+02 -0.58400595154E+02  0.44632560805E+03  0.49303309890E+03  0.19200000000E+03 0.  0.
<mgrwt>
<rscale>  0 0.41896337E+03</rscale>
<asrwt>0</asrwt>
<pdfrwt beam="1">  1        2 0.13246376E+00 0.41896337E+03</pdfrwt>
<pdfrwt beam="2">  1       -2 0.67608133E-02 0.41896337E+03</pdfrwt>
<totfact> 0.39899385E+03</totfact>
</mgrwt>
</event>
<event>
 4    1  0.2058931E-005  0.7224093E+03  0.7818608E-02  0.9679659E-01
          2   -1    0    0  501    0  0.00000000000E+00  0.00000000000E+00  0.18834772223E+04  0.18834772223E+04  0.25500000000E-02 0.  1.
         -2   -1    0    0    0  501 -0.00000000000E+00 -0.00000000000E+00 -0.69270185240E+02  0.69270185287E+02  0.25500000000E-02 0. -1.
    5000001    1    1    2    0    0 -0.25537166695E+03 -0.74072437919E+02  0.49801931544E+03  0.59631254631E+03  0.19200000000E+03 0.  0.
   -5000001    1    1    2    0    0  0.25537166695E+03  0.74072437919E+02  0.13161877216E+04  0.13564348613E+04  0.19200000000E+03 0.  0.
<mgrwt>
<rscale>  0 0.72240935E+03</rscale>
<asrwt>0</asrwt>
<pdfrwt beam="1">  1        2 0.26906812E+00 0.72240935E+03</pdfrwt>
<pdfrwt beam="2">  1       -2 0.98957429E-02 0.72240935E+03</pdfrwt>
<totfact> 0.65544241E+02</totfact>
</mgrwt>
</event>
<event>
 4    1  0.2058931E-005  0.4116408E+03  0.7818608E-02  0.1039822E+00
         -2   -1    0    0    0  501 -0.00000000000E+00  0.00000000000E+00  0.74507017558E+02  0.74507017602E+02  0.25500000000E-02 0. -1.
          2   -1    0    0  501    0  0.00000000000E+00 -0.00000000000E+00 -0.56856451649E+03  0.56856451650E+03  0.25500000000E-02 0.  1.
    5000001    1    1    2    0    0  0.30871787190E+02 -0.65092741216E+02 -0.27444169487E+03  0.34259652083E+03  0.19200000000E+03 0.  0.
   -5000001    1    1    2    0    0 -0.30871787190E+02  0.65092741216E+02 -0.21961580406E+03  0.30047501327E+03  0.19200000000E+03 0.  0.
<mgrwt>
<rscale>  0 0.41164085E+03</rscale>
<asrwt>0</asrwt>
<pdfrwt beam="1">  1        2 0.81223500E-01 0.41164085E+03</pdfrwt>
<pdfrwt beam="2">  1       -2 0.10643860E-01 0.41164085E+03</pdfrwt>
<totfact> 0.35381366E+03</totfact>
</mgrwt>
</event>
<event>
 4    1  0.2058931E-005  0.6897878E+03  0.7818608E-02  0.9734858E-01
          2   -1    0    0  501    0  0.00000000000E+00  0.00000000000E+00  0.69774007803E+03  0.69774007803E+03  0.25500000000E-02 0.  1.
         -2   -1    0    0    0  501 -0.00000000000E+00 -0.00000000000E+00 -0.17048154229E+03  0.17048154231E+03  0.25500000000E-02 0. -1.
    5000001    1    1    2    0    0 -0.24306227334E+03 -0.10389682912E+03  0.40273459785E+03  0.51858748166E+03  0.19200000000E+03 0.  0.
   -5000001    1    1    2    0    0  0.24306227334E+03  0.10389682912E+03  0.12452393789E+03  0.34963413868E+03  0.19200000000E+03 0.  0.
<mgrwt>
<rscale>  0 0.68978781E+03</rscale>
<asrwt>0</asrwt>
<pdfrwt beam="1">  1        2 0.99677153E-01 0.68978781E+03</pdfrwt>
<pdfrwt beam="2">  1       -2 0.24354506E-01 0.68978781E+03</pdfrwt>
<totfact> 0.68146149E+02</totfact>
</mgrwt>
</event>
<event>
 4    1  0.2058931E-005  0.7089001E+03  0.7818608E-02  0.9702132E-01
         -2   -1    0    0    0  501 -0.00000000000E+00  0.00000000000E+00  0.65878289827E+03  0.65878289827E+03  0.25500000000E-02 0. -1.
          2   -1    0    0  501    0  0.00000000000E+00 -0.00000000000E+00 -0.19070749984E+03  0.19070749986E+03  0.25500000000E-02 0.  1.
    5000001    1    1    2    0    0  0.41487058171E+02  0.27055003321E+03  0.37507534582E+03  0.50245796989E+03  0.19200000000E+03 0.  0.
   -5000001    1    1    2    0    0 -0.41487058171E+02 -0.27055003321E+03  0.93000052606E+02  0.34703242824E+03  0.19200000000E+03 0.  0.
<mgrwt>
<rscale>  0 0.70890010E+03</rscale>
<asrwt>0</asrwt>
<pdfrwt beam="1">  1        2 0.27243929E-01 0.70890010E+03</pdfrwt>
<pdfrwt beam="2">  1       -2 0.94111842E-01 0.70890010E+03</pdfrwt>
<totfact> 0.19102041E+02</totfact>
</mgrwt>
</event>
<event>
 4    1  0.2058931E-005  0.4315944E+03  0.7818608E-02  0.1033357E+00
         -2   -1    0    0    0  501 -0.00000000000E+00  0.00000000000E+00  0.13208811907E+02  0.13208812153E+02  0.25500000000E-02 0. -1.
          2   -1    0    0  501    0  0.00000000000E+00 -0.00000000000E+00 -0.35255576346E+04  0.35255576346E+04  0.25500000000E-02 0.  1.
    5000001    1    1    2    0    0  0.20429930785E+02  0.63394343140E+02 -0.11610505299E+04  0.11787020649E+04  0.19200000000E+03 0.  0.
   -5000001    1    1    2    0    0 -0.20429930785E+02 -0.63394343140E+02 -0.23512982927E+04  0.23600643818E+04  0.19200000000E+03 0.  0.
<mgrwt>
<rscale>  0 0.43159438E+03</rscale>
<asrwt>0</asrwt>
<pdfrwt beam="1">  1        2 0.50365049E+00 0.43159438E+03</pdfrwt>
<pdfrwt beam="2">  1       -2 0.18869754E-02 0.43159438E+03</pdfrwt>
<totfact> 0.11666772E+03</totfact>
</mgrwt>
</event>
<event>
 4    1  0.2058931E-005  0.4895787E+03  0.7818608E-02  0.1016535E+00
         -2   -1    0    0    0  501 -0.00000000000E+00  0.00000000000E+00  0.14523440938E+03  0.14523440940E+03  0.25500000000E-02 0. -1.
          2   -1    0    0  501    0  0.00000000000E+00 -0.00000000000E+00 -0.41258696038E+03  0.41258696039E+03  0.25500000000E-02 0.  1.
    5000001    1    1    2    0    0  0.10180309573E+03 -0.10593835311E+03 -0.17737630367E+03  0.29985522851E+03  0.19200000000E+03 0.  0.
   -5000001    1    1    2    0    0 -0.10180309573E+03  0.10593835311E+03 -0.89976247336E+02  0.25796614128E+03  0.19200000000E+03 0.  0.
<mgrwt>
<rscale>  0 0.48957869E+03</rscale>
<asrwt>0</asrwt>
<pdfrwt beam="1">  1        2 0.58940994E-01 0.48957869E+03</pdfrwt>
<pdfrwt beam="2">  1       -2 0.20747773E-01 0.48957869E+03</pdfrwt>
<totfact> 0.16636161E+03</totfact>
</mgrwt>
</event>
<event>
 4    1  0.2058931E-005  0.7254444E+03  0.7818608E-02  0.9674682E-01
         -2   -1    0    0    0  501 -0.00000000000E+00  0.00000000000E+00  0.83518453166E+02  0.83518453205E+02  0.25500000000E-02 0. -1.
          2   -1    0    0  501    0  0.00000000000E+00 -0.00000000000E+00 -0.15753091190E+04  0.15753091190E+04  0.25500000000E-02 0.  1.
    5000001    1    1    2    0    0  0.14580442913E+03  0.12673622064E+03 -0.19814025467E+03  0.33681532283E+03  0.19200000000E+03 0.  0.
   -5000001    1    1    2    0    0 -0.14580442913E+03 -0.12673622064E+03 -0.12936504112E+04  0.13220122494E+04  0.19200000000E+03 0.  0.
<mgrwt>
<rscale>  0 0.72544436E+03</rscale>
<asrwt>0</asrwt>
<pdfrwt beam="1">  1        2 0.22504414E+00 0.72544436E+03</pdfrwt>
<pdfrwt beam="2">  1       -2 0.11931209E-01 0.72544436E+03</pdfrwt>
<totfact> 0.69338009E+02</totfact>
</mgrwt>
</event>
<event>
 4    1  0.2058931E-005  0.9227456E+03  0.7818608E-02  0.9397587E-01
          2   -1    0    0  501    0  0.00000000000E+00  0.00000000000E+00  0.99610570200E+03  0.99610570200E+03  0.25500000000E-02 0.  1.
         -2   -1    0    0    0  501 -0.00000000000E+00 -0.00000000000E+00 -0.21369707146E+03  0.21369707148E+03  0.25500000000E-02 0. -1.
    5000001    1    1    2    0    0  0.84992749994E+00 -0.41952339607E+03  0.39052410323E+03  0.60446147721E+03  0.19200000000E+03 0.  0.
   -5000001    1    1    2    0    0 -0.84992749994E+00  0.41952339607E+03  0.39188452731E+03  0.60534129627E+03  0.19200000000E+03 0.  0.
<mgrwt>
<rscale>  0 0.92274562E+03</rscale>
<asrwt>0</asrwt>
<pdfrwt beam="1">  1        2 0.14230081E+00 0.92274562E+03</pdfrwt>
<pdfrwt beam="2">  1       -2 0.30528153E-01 0.92274562E+03</pdfrwt>
<totfact> 0.27995440E+02</totfact>
</mgrwt>
</event>
<event>
 4    1  0.2058931E-005  0.5260266E+03  0.7818608E-02  0.1007200E+00
          2   -1    0    0  501    0  0.00000000000E+00  0.00000000000E+00  0.11215219181E+04  0.11215219181E+04  0.25500000000E-02 0.  1.
         -2   -1    0    0    0  501 -0.00000000000E+00 -0.00000000000E+00 -0.61680473822E+02  0.61680473875E+02  0.25500000000E-02 0. -1.
    5000001    1    1    2    0    0 -0.84871988255E+02  0.89720507332E+02  0.82370451512E+03  0.85475502459E+03  0.19200000000E+03 0.  0.
   -5000001    1    1    2    0    0  0.84871988255E+02 -0.89720507332E+02  0.23613692911E+03  0.32844736735E+03  0.19200000000E+03 0.  0.
<mgrwt>
<rscale>  0 0.52602663E+03</rscale>
<asrwt>0</asrwt>
<pdfrwt beam="1">  1        2 0.16021741E+00 0.52602663E+03</pdfrwt>
<pdfrwt beam="2">  1       -2 0.88114969E-02 0.52602663E+03</pdfrwt>
<totfact> 0.20100015E+03</totfact>
</mgrwt>
</event>
<event>
 4    1  0.2058931E-005  0.7525068E+03  0.7818608E-02  0.9631426E-01
          2   -1    0    0  501    0  0.00000000000E+00  0.00000000000E+00  0.21399080073E+04  0.21399080073E+04  0.25500000000E-02 0.  1.
         -2   -1    0    0    0  501 -0.00000000000E+00 -0.00000000000E+00 -0.66155476347E+02  0.66155476396E+02  0.25500000000E-02 0. -1.
    5000001    1    1    2    0    0 -0.46359824879E+02  0.30916210763E+03  0.12816654412E+04  0.13331394321E+04  0.19200000000E+03 0.  0.
   -5000001    1    1    2    0    0  0.46359824879E+02 -0.30916210763E+03  0.79208708969E+03  0.87292405157E+03  0.19200000000E+03 0.  0.
<mgrwt>
<rscale>  0 0.75250683E+03</rscale>
<asrwt>0</asrwt>
<pdfrwt beam="1">  1        2 0.30570120E+00 0.75250683E+03</pdfrwt>
<pdfrwt beam="2">  1       -2 0.94507807E-02 0.75250683E+03</pdfrwt>
<totfact> 0.52290720E+02</totfact>
</mgrwt>
</event>
<event>
 4    1  0.2058931E-005  0.1422147E+04  0.7818608E-02  0.8937941E-01
          2   -1    0    0  501    0  0.00000000000E+00  0.00000000000E+00  0.88477043780E+03  0.88477043780E+03  0.25500000000E-02 0.  1.
         -2   -1    0    0    0  501 -0.00000000000E+00 -0.00000000000E+00 -0.57147669614E+03  0.57147669614E+03  0.25500000000E-02 0. -1.
    5000001    1    1    2    0    0 -0.67160741946E+03 -0.71348180297E+02  0.27165465339E+03  0.75286608332E+03  0.19200000000E+03 0.  0.
   -5000001    1    1    2    0    0  0.67160741946E+03  0.71348180297E+02  0.41639088277E+02  0.70338105062E+03  0.19200000000E+03 0.  0.
<mgrwt>
<rscale>  0 0.14221472E+04</rscale>
<asrwt>0</asrwt>
<pdfrwt beam="1">  1        2 0.12639577E+00 0.14221472E+04</pdfrwt>
<pdfrwt beam="2">  1       -2 0.81639530E-01 0.14221472E+04</pdfrwt>
<totfact> 0.42780439E+01</totfact>
</mgrwt>
</event>
<event>
 4    1  0.2058931E-005  0.7964600E+03  0.7818608E-02  0.9565155E-01
          2   -1    0    0  501    0  0.00000000000E+00  0.00000000000E+00  0.38270982354E+04  0.38270982354E+04  0.25500000000E-02 0.  1.
         -2   -1    0    0    0  501 -0.00000000000E+00 -0.00000000000E+00 -0.41437952237E+02  0.41437952316E+02  0.25500000000E-02 0. -1.
    5000001    1    1    2    0    0 -0.20990374252E+03  0.23755429532E+03  0.11850914258E+04  0.12416913110E+04  0.19200000000E+03 0.  0.
   -5000001    1    1    2    0    0  0.20990374252E+03 -0.23755429532E+03  0.26005688573E+04  0.26268448767E+04  0.19200000000E+03 0.  0.
<mgrwt>
<rscale>  0 0.79645995E+03</rscale>
<asrwt>0</asrwt>
<pdfrwt beam="1">  1        2 0.54672782E+00 0.79645995E+03</pdfrwt>
<pdfrwt beam="2">  1       -2 0.59197128E-02 0.79645995E+03</pdfrwt>
<totfact> 0.12670247E+02</totfact>
</mgrwt>
</event>
<event>
 4    1  0.2058931E-005  0.9055104E+03  0.7818608E-02  0.9418719E-01
          2   -1    0    0  501    0  0.00000000000E+00  0.00000000000E+00  0.14215691620E+04  0.14215691620E+04  0.25500000000E-02 0.  1.
         -2   -1    0    0    0  501 -0.00000000000E+00 -0.00000000000E+00 -0.14419788485E+03  0.14419788488E+03  0.25500000000E-02 0. -1.
    5000001    1    1    2    0    0 -0.24262720530E+03  0.32743992597E+03  0.56061666522E+03  0.71919393156E+03  0.19200000000E+03 0.  0.
   -5000001    1    1    2    0    0  0.24262720530E+03 -0.32743992597E+03  0.71675461194E+03  0.84657311533E+03  0.19200000000E+03 0.  0.
<mgrwt>
<rscale>  0 0.90551039E+03</rscale>
<asrwt>0</asrwt>
<pdfrwt beam="1">  1        2 0.20308131E+00 0.90551039E+03</pdfrwt>
<pdfrwt beam="2">  1       -2 0.20599698E-01 0.90551039E+03</pdfrwt>
<totfact> 0.32670364E+02</totfact>
</mgrwt>
</event>
<event>
 4    1  0.2058931E-005  0.8198680E+03  0.7818608E-02  0.9531696E-01
         -2   -1    0    0    0  501 -0.00000000000E+00  0.00000000000E+00  0.10469065634E+03  0.10469065637E+03  0.25500000000E-02 0. -1.
          2   -1    0    0  501    0  0.00000000000E+00 -0.00000000000E+00 -0.16051658936E+04  0.16051658936E+04  0.25500000000E-02 0.  1.
    5000001    1    1    2    0    0 -0.31055821234E+03  0.52516116802E+02 -0.11231769454E+04  0.11821991357E+04  0.19200000000E+03 0.  0.
   -5000001    1    1    2    0    0  0.31055821234E+03 -0.52516116802E+02 -0.37729829182E+03  0.52765741422E+03  0.19200000000E+03 0.  0.
<mgrwt>
<rscale>  0 0.81986797E+03</rscale>
<asrwt>0</asrwt>
<pdfrwt beam="1">  1        2 0.22930940E+00 0.81986797E+03</pdfrwt>
<pdfrwt beam="2">  1       -2 0.14955809E-01 0.81986797E+03</pdfrwt>
<totfact> 0.45636404E+02</totfact>
</mgrwt>
</event>
<event>
 4    1  0.2058931E-005  0.4454578E+03  0.7818608E-02  0.1029085E+00
          2   -1    0    0  501    0  0.00000000000E+00  0.00000000000E+00  0.24253644711E+04  0.24253644711E+04  0.25500000000E-02 0.  1.
         -2   -1    0    0    0  501 -0.00000000000E+00 -0.00000000000E+00 -0.20453904601E+02  0.20453904760E+02  0.25500000000E-02 0. -1.
    5000001    1    1    2    0    0 -0.72003383977E+02  0.85903950279E+02  0.11287510810E+04  0.11504377336E+04  0.19200000000E+03 0.  0.
   -5000001    1    1    2    0    0  0.72003383977E+02 -0.85903950279E+02  0.12761594854E+04  0.12953806422E+04  0.19200000000E+03 0.  0.
<mgrwt>
<rscale>  0 0.44545785E+03</rscale>
<asrwt>0</asrwt>
<pdfrwt beam="1">  1        2 0.34648062E+00 0.44545785E+03</pdfrwt>
<pdfrwt beam="2">  1       -2 0.29219866E-02 0.44545785E+03</pdfrwt>
<totfact> 0.23799876E+03</totfact>
</mgrwt>
</event>
<event>
 4    1  0.2058931E-005  0.6412211E+03  0.7818608E-02  0.9823393E-01
         -2   -1    0    0    0  501 -0.00000000000E+00  0.00000000000E+00  0.48521711731E+02  0.48521711798E+02  0.25500000000E-02 0. -1.
          2   -1    0    0  501    0  0.00000000000E+00 -0.00000000000E+00 -0.21184561620E+04  0.21184561620E+04  0.25500000000E-02 0.  1.
    5000001    1    1    2    0    0 -0.30172833123E+01  0.25410401132E+03 -0.91083644282E+03  0.96491708356E+03  0.19200000000E+03 0.  0.
   -5000001    1    1    2    0    0  0.30172833123E+01 -0.25410401132E+03 -0.11590980074E+04  0.12020607902E+04  0.19200000000E+03 0.  0.
<mgrwt>
<rscale>  0 0.64122108E+03</rscale>
<asrwt>0</asrwt>
<pdfrwt beam="1">  1        2 0.30263654E+00 0.64122108E+03</pdfrwt>
<pdfrwt beam="2">  1       -2 0.69316744E-02 0.64122108E+03</pdfrwt>
<totfact> 0.88686396E+02</totfact>
</mgrwt>
</event>
<event>
 4    1  0.2058931E-005  0.5789240E+03  0.7818608E-02  0.9950123E-01
          2   -1    0    0  501    0  0.00000000000E+00  0.00000000000E+00  0.16031145354E+04  0.16031145354E+04  0.25500000000E-02 0.  1.
         -2   -1    0    0    0  501 -0.00000000000E+00 -0.00000000000E+00 -0.52265915184E+02  0.52265915246E+02  0.25500000000E-02 0. -1.
    5000001    1    1    2    0    0 -0.10853814497E+01 -0.21120675454E+03  0.63785205191E+03  0.69880520272E+03  0.19200000000E+03 0.  0.
   -5000001    1    1    2    0    0  0.10853814497E+01  0.21120675454E+03  0.91299656831E+03  0.95657524794E+03  0.19200000000E+03 0.  0.
<mgrwt>
<rscale>  0 0.57892400E+03</rscale>
<asrwt>0</asrwt>
<pdfrwt beam="1">  1        2 0.22901638E+00 0.57892400E+03</pdfrwt>
<pdfrwt beam="2">  1       -2 0.74665586E-02 0.57892400E+03</pdfrwt>
<totfact> 0.14405911E+03</totfact>
</mgrwt>
</event>
<event>
 4    1  0.2058931E-005  0.7409416E+03  0.7818608E-02  0.9649670E-01
          2   -1    0    0  501    0  0.00000000000E+00  0.00000000000E+00  0.97753714986E+03  0.97753714986E+03  0.25500000000E-02 0.  1.
         -2   -1    0    0    0  501 -0.00000000000E+00 -0.00000000000E+00 -0.14040244274E+03  0.14040244276E+03  0.25500000000E-02 0. -1.
    5000001    1    1    2    0    0 -0.13228394609E+03 -0.27385998761E+03  0.28457804246E+03  0.45863601849E+03  0.19200000000E+03 0.  0.
   -5000001    1    1    2    0    0  0.13228394609E+03  0.27385998761E+03  0.55255666466E+03  0.65930357414E+03  0.19200000000E+03 0.  0.
<mgrwt>
<rscale>  0 0.74094157E+03</rscale>
<asrwt>0</asrwt>
<pdfrwt beam="1">  1        2 0.13964816E+00 0.74094157E+03</pdfrwt>
<pdfrwt beam="2">  1       -2 0.20057492E-01 0.74094157E+03</pdfrwt>
<totfact> 0.61803469E+02</totfact>
</mgrwt>
</event>
<event>
 4    1  0.2058931E-005  0.8251252E+03  0.7818608E-02  0.9524345E-01
         -2   -1    0    0    0  501 -0.00000000000E+00  0.00000000000E+00  0.71076948363E+02  0.71076948409E+02  0.25500000000E-02 0. -1.
          2   -1    0    0  501    0  0.00000000000E+00 -0.00000000000E+00 -0.23946987533E+04  0.23946987533E+04  0.25500000000E-02 0.  1.
    5000001    1    1    2    0    0 -0.20344178140E+03 -0.30220356873E+03 -0.12367184671E+04  0.13034769358E+04  0.19200000000E+03 0.  0.
   -5000001    1    1    2    0    0  0.20344178140E+03  0.30220356873E+03 -0.10869033378E+04  0.11622987659E+04  0.19200000000E+03 0.  0.
<mgrwt>
<rscale>  0 0.82512515E+03</rscale>
<asrwt>0</asrwt>
<pdfrwt beam="1">  1        2 0.34209977E+00 0.82512515E+03</pdfrwt>
<pdfrwt beam="2">  1       -2 0.10153851E-01 0.82512515E+03</pdfrwt>
<totfact> 0.34319557E+02</totfact>
</mgrwt>
</event>
<event>
 4    1  0.2058931E-005  0.6713072E+03  0.7818608E-02  0.9767599E-01
          2   -1    0    0  501    0  0.00000000000E+00  0.00000000000E+00  0.26219997891E+04  0.26219997891E+04  0.25500000000E-02 0.  1.
         -2   -1    0    0    0  501 -0.00000000000E+00 -0.00000000000E+00 -0.42968472510E+02  0.42968472585E+02  0.25500000000E-02 0. -1.
    5000001    1    1    2    0    0  0.50754450095E+02  0.20778080405E+03  0.60134485058E+03  0.66650469320E+03  0.19200000000E+03 0.  0.
   -5000001    1    1    2    0    0 -0.50754450095E+02 -0.20778080405E+03  0.19776864660E+04  0.19984635685E+04  0.19200000000E+03 0.  0.
<mgrwt>
<rscale>  0 0.67130716E+03</rscale>
<asrwt>0</asrwt>
<pdfrwt beam="1">  1        2 0.37457153E+00 0.67130716E+03</pdfrwt>
<pdfrwt beam="2">  1       -2 0.61383511E-02 0.67130716E+03</pdfrwt>
<totfact> 0.59302017E+02</totfact>
</mgrwt>
</event>
<event>
 4    1  0.2058931E-005  0.5137611E+03  0.7818608E-02  0.1010248E+00
         -2   -1    0    0    0  501 -0.00000000000E+00  0.00000000000E+00  0.75836383129E+03  0.75836383130E+03  0.25500000000E-02 0. -1.
          2   -1    0    0  501    0  0.00000000000E+00 -0.00000000000E+00 -0.87013123312E+02  0.87013123349E+02  0.25500000000E-02 0.  1.
    5000001    1    1    2    0    0  0.65751480295E+02  0.14080701913E+03  0.45172141534E+03  0.51484571561E+03  0.19200000000E+03 0.  0.
   -5000001    1    1    2    0    0 -0.65751480295E+02 -0.14080701913E+03  0.21962929264E+03  0.33053123904E+03  0.19200000000E+03 0.  0.
<mgrwt>
<rscale>  0 0.51376106E+03</rscale>
<asrwt>0</asrwt>
<pdfrwt beam="1">  1        2 0.12430447E-01 0.51376106E+03</pdfrwt>
<pdfrwt beam="2">  1       -2 0.10833768E+00 0.51376106E+03</pdfrwt>
<totfact> 0.34851294E+02</totfact>
</mgrwt>
</event>
<event>
 4    1  0.2058931E-005  0.4273298E+03  0.7818608E-02  0.1034707E+00
         -2   -1    0    0    0  501 -0.00000000000E+00  0.00000000000E+00  0.24755016263E+02  0.24755016394E+02  0.25500000000E-02 0. -1.
          2   -1    0    0  501    0  0.00000000000E+00 -0.00000000000E+00 -0.18441789736E+04  0.18441789736E+04  0.25500000000E-02 0.  1.
    5000001    1    1    2    0    0  0.40454358012E+02  0.82975350365E+02 -0.83821911893E+03  0.86486805652E+03  0.19200000000E+03 0.  0.
   -5000001    1    1    2    0    0 -0.40454358012E+02 -0.82975350365E+02 -0.98120483840E+03  0.10040659335E+04  0.19200000000E+03 0.  0.
<mgrwt>
<rscale>  0 0.42732976E+03</rscale>
<asrwt>0</asrwt>
<pdfrwt beam="1">  1        2 0.26345405E+00 0.42732976E+03</pdfrwt>
<pdfrwt beam="2">  1       -2 0.35364321E-02 0.42732976E+03</pdfrwt>
<totfact> 0.34773991E+03</totfact>
</mgrwt>
</event>
<event>
 4    1  0.2058931E-005  0.4871855E+03  0.7818608E-02  0.1017179E+00
          2   -1    0    0  501    0  0.00000000000E+00  0.00000000000E+00  0.46483472507E+02  0.46483472577E+02  0.25500000000E-02 0.  1.
         -2   -1    0    0    0  501 -0.00000000000E+00 -0.00000000000E+00 -0.12765274521E+04  0.12765274521E+04  0.25500000000E-02 0. -1.
    5000001    1    1    2    0    0  0.62820306682E+02  0.12180436647E+03 -0.77999976952E+03  0.81489038224E+03  0.19200000000E+03 0.  0.
   -5000001    1    1    2    0    0 -0.62820306682E+02 -0.12180436647E+03 -0.45004421007E+03  0.50812054243E+03  0.19200000000E+03 0.  0.
<mgrwt>
<rscale>  0 0.48718550E+03</rscale>
<asrwt>0</asrwt>
<pdfrwt beam="1">  1        2 0.66404969E-02 0.48718550E+03</pdfrwt>
<pdfrwt beam="2">  1       -2 0.18236104E+00 0.48718550E+03</pdfrwt>
<totfact> 0.20231407E+02</totfact>
</mgrwt>
</event>
<event>
 4    1  0.2058931E-005  0.5375486E+03  0.7818608E-02  0.1004418E+00
         -2   -1    0    0    0  501 -0.00000000000E+00  0.00000000000E+00  0.60322808016E+02  0.60322808070E+02  0.25500000000E-02 0. -1.
          2   -1    0    0  501    0  0.00000000000E+00 -0.00000000000E+00 -0.11975508484E+04  0.11975508484E+04  0.25500000000E-02 0.  1.
    5000001    1    1    2    0    0 -0.14396403037E+03  0.46111721808E+02 -0.30674414205E+03  0.39218350502E+03  0.19200000000E+03 0.  0.
   -5000001    1    1    2    0    0  0.14396403037E+03 -0.46111721808E+02 -0.83048389833E+03  0.86569015145E+03  0.19200000000E+03 0.  0.
<mgrwt>
<rscale>  0 0.53754862E+03</rscale>
<asrwt>0</asrwt>
<pdfrwt beam="1">  1        2 0.17107868E+00 0.53754862E+03</pdfrwt>
<pdfrwt beam="2">  1       -2 0.86175447E-02 0.53754862E+03</pdfrwt>
<totfact> 0.18860388E+03</totfact>
</mgrwt>
</event>
<event>
 4    1  0.2058931E-005  0.8351871E+03  0.7818608E-02  0.9510437E-01
         -2   -1    0    0    0  501 -0.00000000000E+00  0.00000000000E+00  0.32460734565E+03  0.32460734566E+03  0.25500000000E-02 0. -1.
          2   -1    0    0  501    0  0.00000000000E+00 -0.00000000000E+00 -0.53721630850E+03  0.53721630851E+03  0.25500000000E-02 0.  1.
    5000001    1    1    2    0    0  0.30170391871E+03  0.21562704416E+03 -0.10660214965E+03  0.43098526082E+03  0.19200000000E+03 0.  0.
   -5000001    1    1    2    0    0 -0.30170391871E+03 -0.21562704416E+03 -0.10600681320E+03  0.43083839334E+03  0.19200000000E+03 0.  0.
<mgrwt>
<rscale>  0 0.83518707E+03</rscale>
<asrwt>0</asrwt>
<pdfrwt beam="1">  1        2 0.76745187E-01 0.83518707E+03</pdfrwt>
<pdfrwt beam="2">  1       -2 0.46372478E-01 0.83518707E+03</pdfrwt>
<totfact> 0.27373957E+02</totfact>
</mgrwt>
</event>
<event>
 4    1  0.2058931E-005  0.1256317E+04  0.7818608E-02  0.9064942E-01
         -2   -1    0    0    0  501 -0.00000000000E+00  0.00000000000E+00  0.28759323292E+03  0.28759323293E+03  0.25500000000E-02 0. -1.
          2   -1    0    0  501    0  0.00000000000E+00 -0.00000000000E+00 -0.13720189346E+04  0.13720189346E+04  0.25500000000E-02 0.  1.
    5000001    1    1    2    0    0  0.59445220317E+03  0.27702865133E+01 -0.45520363516E+03  0.77295242144E+03  0.19200000000E+03 0.  0.
   -5000001    1    1    2    0    0 -0.59445220317E+03 -0.27702865133E+01 -0.62922206650E+03  0.88665974608E+03  0.19200000000E+03 0.  0.
<mgrwt>
<rscale>  0 0.12563174E+04</rscale>
<asrwt>0</asrwt>
<pdfrwt beam="1">  1        2 0.19600270E+00 0.12563174E+04</pdfrwt>
<pdfrwt beam="2">  1       -2 0.41084748E-01 0.12563174E+04</pdfrwt>
<totfact> 0.94495821E+01</totfact>
</mgrwt>
</event>
<event>
 4    1  0.2058931E-005  0.4761054E+03  0.7818608E-02  0.1020211E+00
          2   -1    0    0  501    0  0.00000000000E+00  0.00000000000E+00  0.15106435996E+03  0.15106435998E+03  0.25500000000E-02 0.  1.
         -2   -1    0    0    0  501 -0.00000000000E+00 -0.00000000000E+00 -0.37513215376E+03  0.37513215377E+03  0.25500000000E-02 0. -1.
    5000001    1    1    2    0    0  0.12222424374E+03 -0.26457317506E+02 -0.18337212934E+03  0.29347588185E+03  0.19200000000E+03 0.  0.
   -5000001    1    1    2    0    0 -0.12222424374E+03  0.26457317506E+02 -0.40695664457E+02  0.23272063190E+03  0.19200000000E+03 0.  0.
<mgrwt>
<rscale>  0 0.47610545E+03</rscale>
<asrwt>0</asrwt>
<pdfrwt beam="1">  1        2 0.21580623E-01 0.47610545E+03</pdfrwt>
<pdfrwt beam="2">  1       -2 0.53590308E-01 0.47610545E+03</pdfrwt>
<totfact> 0.85573592E+02</totfact>
</mgrwt>
</event>
<event>
 4    1  0.2058931E-005  0.5636433E+03  0.7818608E-02  0.9983844E-01
          2   -1    0    0  501    0  0.00000000000E+00  0.00000000000E+00  0.26577754970E+04  0.26577754970E+04  0.25500000000E-02 0.  1.
         -2   -1    0    0    0  501 -0.00000000000E+00 -0.00000000000E+00 -0.29883432116E+02  0.29883432225E+02  0.25500000000E-02 0. -1.
    5000001    1    1    2    0    0  0.31190242341E+02  0.16004462291E+03  0.71131142953E+03  0.75459595965E+03  0.19200000000E+03 0.  0.
   -5000001    1    1    2    0    0 -0.31190242341E+02 -0.16004462291E+03  0.19165806353E+04  0.19330629696E+04  0.19200000000E+03 0.  0.
<mgrwt>
<rscale>  0 0.56364334E+03</rscale>
<asrwt>0</asrwt>
<pdfrwt beam="1">  1        2 0.37968206E+00 0.56364334E+03</pdfrwt>
<pdfrwt beam="2">  1       -2 0.42690634E-02 0.56364334E+03</pdfrwt>
<totfact> 0.10077624E+03</totfact>
</mgrwt>
</event>
<event>
 4    1  0.2058931E-005  0.6986598E+03  0.7818608E-02  0.9719527E-01
          2   -1    0    0  501    0  0.00000000000E+00  0.00000000000E+00  0.11410499215E+03  0.11410499217E+03  0.25500000000E-02 0.  1.
         -2   -1    0    0    0  501 -0.00000000000E+00 -0.00000000000E+00 -0.10694655839E+04  0.10694655839E+04  0.25500000000E-02 0. -1.
    5000001    1    1    2    0    0  0.21859075976E+03  0.68382611157E+02 -0.17129790814E+03  0.34447797476E+03  0.19200000000E+03 0.  0.
   -5000001    1    1    2    0    0 -0.21859075976E+03 -0.68382611157E+02 -0.78406268362E+03  0.83909260132E+03  0.19200000000E+03 0.  0.
<mgrwt>
<rscale>  0 0.69865975E+03</rscale>
<asrwt>0</asrwt>
<pdfrwt beam="1">  1        2 0.16300714E-01 0.69865975E+03</pdfrwt>
<pdfrwt beam="2">  1       -2 0.15278079E+00 0.69865975E+03</pdfrwt>
<totfact> 0.10485661E+02</totfact>
</mgrwt>
</event>
<event>
 4    1  0.2058931E-005  0.9584331E+03  0.7818608E-02  0.9355348E-01
         -2   -1    0    0    0  501 -0.00000000000E+00  0.00000000000E+00  0.19982519942E+03  0.19982519944E+03  0.25500000000E-02 0. -1.
          2   -1    0    0  501    0  0.00000000000E+00 -0.00000000000E+00 -0.11492469953E+04  0.11492469953E+04  0.25500000000E-02 0.  1.
    5000001    1    1    2    0    0 -0.19831643931E+03 -0.32332280667E+03 -0.78602969278E+03  0.89362952354E+03  0.19200000000E+03 0.  0.
   -5000001    1    1    2    0    0  0.19831643931E+03  0.32332280667E+03 -0.16339210313E+03  0.45544267123E+03  0.19200000000E+03 0.  0.
<mgrwt>
<rscale>  0 0.95843312E+03</rscale>
<asrwt>0</asrwt>
<pdfrwt beam="1">  1        2 0.16417814E+00 0.95843312E+03</pdfrwt>
<pdfrwt beam="2">  1       -2 0.28546458E-01 0.95843312E+03</pdfrwt>
<totfact> 0.25638269E+02</totfact>
</mgrwt>
</event>
<event>
 4    1  0.2058931E-005  0.8065282E+03  0.7818608E-02  0.9550616E-01
          2   -1    0    0  501    0  0.00000000000E+00  0.00000000000E+00  0.91560370115E+03  0.91560370115E+03  0.25500000000E-02 0.  1.
         -2   -1    0    0    0  501 -0.00000000000E+00 -0.00000000000E+00 -0.17761172630E+03  0.17761172632E+03  0.25500000000E-02 0. -1.
    5000001    1    1    2    0    0  0.73530367895E+02  0.28891639339E+03  0.10869661198E+03  0.37088859625E+03  0.19200000000E+03 0.  0.
   -5000001    1    1    2    0    0 -0.73530367895E+02 -0.28891639339E+03  0.62929536287E+03  0.72232683122E+03  0.19200000000E+03 0.  0.
<mgrwt>
<rscale>  0 0.80652825E+03</rscale>
<asrwt>0</asrwt>
<pdfrwt beam="1">  1        2 0.13080053E+00 0.80652825E+03</pdfrwt>
<pdfrwt beam="2">  1       -2 0.25373104E-01 0.80652825E+03</pdfrwt>
<totfact> 0.44423340E+02</totfact>
</mgrwt>
</event>
<event>
 4    1  0.2058931E-005  0.7828765E+03  0.7818608E-02  0.9585139E-01
          2   -1    0    0  501    0  0.00000000000E+00  0.00000000000E+00  0.60913284393E+03  0.60913284394E+03  0.25500000000E-02 0.  1.
         -2   -1    0    0    0  501 -0.00000000000E+00 -0.00000000000E+00 -0.25154430268E+03  0.25154430269E+03  0.25500000000E-02 0. -1.
    5000001    1    1    2    0    0 -0.92679653398E+02 -0.32576270742E+03  0.13415036362E+03  0.41179021329E+03  0.19200000000E+03 0.  0.
   -5000001    1    1    2    0    0  0.92679653398E+02  0.32576270742E+03  0.22343817763E+03  0.44888693334E+03  0.19200000000E+03 0.  0.
<mgrwt>
<rscale>  0 0.78287648E+03</rscale>
<asrwt>0</asrwt>
<pdfrwt beam="1">  1        2 0.87018977E-01 0.78287648E+03</pdfrwt>
<pdfrwt beam="2">  1       -2 0.35934901E-01 0.78287648E+03</pdfrwt>
<totfact> 0.38981620E+02</totfact>
</mgrwt>
</event>
<event>
 4    1  0.2058931E-005  0.6102241E+03  0.7818608E-02  0.9884418E-01
         -2   -1    0    0    0  501 -0.00000000000E+00  0.00000000000E+00  0.60546631785E+03  0.60546631786E+03  0.25500000000E-02 0. -1.
          2   -1    0    0  501    0  0.00000000000E+00 -0.00000000000E+00 -0.15375484116E+03  0.15375484118E+03  0.25500000000E-02 0.  1.
    5000001    1    1    2    0    0  0.19619929304E+03  0.13315864293E+03  0.22337027758E+03  0.37813181258E+03  0.19200000000E+03 0.  0.
   -5000001    1    1    2    0    0 -0.19619929304E+03 -0.13315864293E+03  0.22834119910E+03  0.38108934646E+03  0.19200000000E+03 0.  0.
<mgrwt>
<rscale>  0 0.61022415E+03</rscale>
<asrwt>0</asrwt>
<pdfrwt beam="1">  1        2 0.21964977E-01 0.61022415E+03</pdfrwt>
<pdfrwt beam="2">  1       -2 0.86495190E-01 0.61022415E+03</pdfrwt>
<totfact> 0.29793700E+02</totfact>
</mgrwt>
</event>
<event>
 4    1  0.2058931E-005  0.5456990E+03  0.7818608E-02  0.1002494E+00
          2   -1    0    0  501    0  0.00000000000E+00  0.00000000000E+00  0.14682082915E+04  0.14682082915E+04  0.25500000000E-02 0.  1.
         -2   -1    0    0    0  501 -0.00000000000E+00 -0.00000000000E+00 -0.50705926493E+02  0.50705926558E+02  0.25500000000E-02 0. -1.
    5000001    1    1    2    0    0  0.15453388545E+03 -0.96659404007E+02  0.52497955928E+03  0.58795518519E+03  0.19200000000E+03 0.  0.
   -5000001    1    1    2    0    0 -0.15453388545E+03  0.96659404007E+02  0.89252280574E+03  0.93095903288E+03  0.19200000000E+03 0.  0.
<mgrwt>
<rscale>  0 0.54569904E+03</rscale>
<asrwt>0</asrwt>
<pdfrwt beam="1">  1        2 0.20974405E+00 0.54569904E+03</pdfrwt>
<pdfrwt beam="2">  1       -2 0.72437035E-02 0.54569904E+03</pdfrwt>
<totfact> 0.17767563E+03</totfact>
</mgrwt>
</event>
<event>
 4    1  0.2058931E-005  0.7592557E+03  0.7818608E-02  0.9620940E-01
         -2   -1    0    0    0  501 -0.00000000000E+00  0.00000000000E+00  0.12371692555E+03  0.12371692557E+03  0.25500000000E-02 0. -1.
          2   -1    0    0  501    0  0.00000000000E+00 -0.00000000000E+00 -0.11648956454E+04  0.11648956454E+04  0.25500000000E-02 0.  1.
    5000001    1    1    2    0    0 -0.31256878095E+03 -0.82225124330E+02 -0.43089253506E+03  0.57183265967E+03  0.19200000000E+03 0.  0.
   -5000001    1    1    2    0    0  0.31256878095E+03  0.82225124330E+02 -0.61028618479E+03  0.71677991130E+03  0.19200000000E+03 0.  0.
<mgrwt>
<rscale>  0 0.75925571E+03</rscale>
<asrwt>0</asrwt>
<pdfrwt beam="1">  1        2 0.16641366E+00 0.75925571E+03</pdfrwt>
<pdfrwt beam="2">  1       -2 0.17673847E-01 0.75925571E+03</pdfrwt>
<totfact> 0.59521725E+02</totfact>
</mgrwt>
</event>
<event>
 4    1  0.2058931E-005  0.8322373E+03  0.7818608E-02  0.9514493E-01
         -2   -1    0    0    0  501 -0.00000000000E+00  0.00000000000E+00  0.86213966284E+02  0.86213966321E+02  0.25500000000E-02 0. -1.
          2   -1    0    0  501    0  0.00000000000E+00 -0.00000000000E+00 -0.20084299501E+04  0.20084299501E+04  0.25500000000E-02 0.  1.
    5000001    1    1    2    0    0  0.19299374939E+03  0.11703880048E+03 -0.16963913715E+04  0.17220779174E+04  0.19200000000E+03 0.  0.
   -5000001    1    1    2    0    0 -0.19299374939E+03 -0.11703880048E+03 -0.22582461226E+03  0.37256599902E+03  0.19200000000E+03 0.  0.
<mgrwt>
<rscale>  0 0.83223725E+03</rscale>
<asrwt>0</asrwt>
<pdfrwt beam="1">  1        2 0.28691854E+00 0.83223725E+03</pdfrwt>
<pdfrwt beam="2">  1       -2 0.12316282E-01 0.83223725E+03</pdfrwt>
<totfact> 0.39279098E+02</totfact>
</mgrwt>
</event>
<event>
 4    1  0.2058931E-005  0.6083633E+03  0.7818608E-02  0.9888205E-01
          2   -1    0    0  501    0  0.00000000000E+00  0.00000000000E+00  0.32687198633E+03  0.32687198634E+03  0.25500000000E-02 0.  1.
         -2   -1    0    0    0  501 -0.00000000000E+00 -0.00000000000E+00 -0.28306642535E+03  0.28306642536E+03  0.25500000000E-02 0. -1.
    5000001    1    1    2    0    0  0.15769874126E+03  0.17220735270E+03 -0.11922075022E+02  0.30253991669E+03  0.19200000000E+03 0.  0.
   -5000001    1    1    2    0    0 -0.15769874126E+03 -0.17220735270E+03  0.55727636004E+02  0.30739849501E+03  0.19200000000E+03 0.  0.
<mgrwt>
<rscale>  0 0.60836333E+03</rscale>
<asrwt>0</asrwt>
<pdfrwt beam="1">  1        2 0.46695998E-01 0.60836333E+03</pdfrwt>
<pdfrwt beam="2">  1       -2 0.40438061E-01 0.60836333E+03</pdfrwt>
<totfact> 0.63133503E+02</totfact>
</mgrwt>
</event>
<event>
 4    1  0.2058931E-005  0.7421971E+03  0.7818608E-02  0.9647672E-01
          2   -1    0    0  501    0  0.00000000000E+00  0.00000000000E+00  0.27129690320E+03  0.27129690321E+03  0.25500000000E-02 0.  1.
         -2   -1    0    0    0  501 -0.00000000000E+00 -0.00000000000E+00 -0.50761406998E+03  0.50761406999E+03  0.25500000000E-02 0. -1.
    5000001    1    1    2    0    0  0.21158007179E+02  0.31553544707E+03 -0.87744950102E+02  0.38022816294E+03  0.19200000000E+03 0.  0.
   -5000001    1    1    2    0    0 -0.21158007179E+02 -0.31553544707E+03 -0.14857221668E+03  0.39868281026E+03  0.19200000000E+03 0.  0.
<mgrwt>
<rscale>  0 0.74219708E+03</rscale>
<asrwt>0</asrwt>
<pdfrwt beam="1">  1        2 0.38756701E-01 0.74219708E+03</pdfrwt>
<pdfrwt beam="2">  1       -2 0.72516295E-01 0.74219708E+03</pdfrwt>
<totfact> 0.23151294E+02</totfact>
</mgrwt>
</event>
<event>
 4    1  0.2058931E-005  0.5080940E+03  0.7818608E-02  0.1011688E+00
          2   -1    0    0  501    0  0.00000000000E+00  0.00000000000E+00  0.33770236130E+03  0.33770236131E+03  0.25500000000E-02 0.  1.
         -2   -1    0    0    0  501 -0.00000000000E+00 -0.00000000000E+00 -0.19111471260E+03  0.19111471262E+03  0.25500000000E-02 0. -1.
    5000001    1    1    2    0    0  0.15316839577E+03 -0.59345459797E+02  0.10070126759E+03  0.27200585721E+03  0.19200000000E+03 0.  0.
   -5000001    1    1    2    0    0 -0.15316839577E+03  0.59345459797E+02  0.45886381106E+02  0.25681121672E+03  0.19200000000E+03 0.  0.
<mgrwt>
<rscale>  0 0.50809405E+03</rscale>
<asrwt>0</asrwt>
<pdfrwt beam="1">  1        2 0.48243194E-01 0.50809405E+03</pdfrwt>
<pdfrwt beam="2">  1       -2 0.27302102E-01 0.50809405E+03</pdfrwt>
<totfact> 0.12739845E+03</totfact>
</mgrwt>
</event>
<event>
 4    1  0.2058931E-005  0.7193994E+03  0.7818608E-02  0.9684620E-01
         -2   -1    0    0    0  501 -0.00000000000E+00  0.00000000000E+00  0.19504196870E+03  0.19504196872E+03  0.25500000000E-02 0. -1.
          2   -1    0    0  501    0  0.00000000000E+00 -0.00000000000E+00 -0.66336421791E+03  0.66336421792E+03  0.25500000000E-02 0.  1.
    5000001    1    1    2    0    0 -0.23195973910E+03  0.92390944196E+02 -0.26874493174E+02  0.31611334283E+03  0.19200000000E+03 0.  0.
   -5000001    1    1    2    0    0  0.23195973910E+03 -0.92390944196E+02 -0.44144775604E+03  0.54229284381E+03  0.19200000000E+03 0.  0.
<mgrwt>
<rscale>  0 0.71939937E+03</rscale>
<asrwt>0</asrwt>
<pdfrwt beam="1">  1        2 0.94766316E-01 0.71939937E+03</pdfrwt>
<pdfrwt beam="2">  1       -2 0.27863139E-01 0.71939937E+03</pdfrwt>
<totfact> 0.56749705E+02</totfact>
</mgrwt>
</event>
<event>
 4    1  0.2058931E-005  0.8506177E+03  0.7818608E-02  0.9489508E-01
          2   -1    0    0  501    0  0.00000000000E+00  0.00000000000E+00  0.93580251577E+03  0.93580251578E+03  0.25500000000E-02 0.  1.
         -2   -1    0    0    0  501 -0.00000000000E+00 -0.00000000000E+00 -0.19329678995E+03  0.19329678997E+03  0.25500000000E-02 0. -1.
    5000001    1    1    2    0    0  0.33245578239E+03 -0.16093946657E+03  0.25556997194E+03  0.48847555692E+03  0.19200000000E+03 0.  0.
   -5000001    1    1    2    0    0 -0.33245578239E+03  0.16093946657E+03  0.48693575388E+03  0.64062374882E+03  0.19200000000E+03 0.  0.
<mgrwt>
<rscale>  0 0.85061771E+03</rscale>
<asrwt>0</asrwt>
<pdfrwt beam="1">  1        2 0.13368607E+00 0.85061771E+03</pdfrwt>
<pdfrwt beam="2">  1       -2 0.27613827E-01 0.85061771E+03</pdfrwt>
<totfact> 0.36893840E+02</totfact>
</mgrwt>
</event>
<event>
 4    1  0.2058931E-005  0.4879004E+03  0.7818608E-02  0.1016986E+00
          2   -1    0    0  501    0  0.00000000000E+00  0.00000000000E+00  0.21318917334E+03  0.21318917335E+03  0.25500000000E-02 0.  1.
         -2   -1    0    0    0  501 -0.00000000000E+00 -0.00000000000E+00 -0.27914974037E+03  0.27914974038E+03  0.25500000000E-02 0. -1.
    5000001    1    1    2    0    0 -0.13468364019E+03 -0.52064993739E+02 -0.75760003495E+02  0.25190082302E+03  0.19200000000E+03 0.  0.
   -5000001    1    1    2    0    0  0.13468364019E+03  0.52064993739E+02  0.97994364680E+01  0.24043809071E+03  0.19200000000E+03 0.  0.
<mgrwt>
<rscale>  0 0.48790041E+03</rscale>
<asrwt>0</asrwt>
<pdfrwt beam="1">  1        2 0.30455596E-01 0.48790041E+03</pdfrwt>
<pdfrwt beam="2">  1       -2 0.39878534E-01 0.48790041E+03</pdfrwt>
<totfact> 0.10418317E+03</totfact>
</mgrwt>
</event>
<event>
 4    1  0.2058931E-005  0.4442954E+03  0.7818608E-02  0.1029437E+00
          2   -1    0    0  501    0  0.00000000000E+00  0.00000000000E+00  0.15053516419E+04  0.15053516419E+04  0.25500000000E-02 0.  1.
         -2   -1    0    0    0  501 -0.00000000000E+00 -0.00000000000E+00 -0.32782769652E+02  0.32782769751E+02  0.25500000000E-02 0. -1.
    5000001    1    1    2    0    0  0.14188731469E+02  0.93903259603E+02  0.94011307661E+03  0.96420731126E+03  0.19200000000E+03 0.  0.
   -5000001    1    1    2    0    0 -0.14188731469E+02 -0.93903259603E+02  0.53245579566E+03  0.57392710042E+03  0.19200000000E+03 0.  0.
<mgrwt>
<rscale>  0 0.44429538E+03</rscale>
<asrwt>0</asrwt>
<pdfrwt beam="1">  1        2 0.21505025E+00 0.44429538E+03</pdfrwt>
<pdfrwt beam="2">  1       -2 0.46832524E-02 0.44429538E+03</pdfrwt>
<totfact> 0.33576728E+03</totfact>
</mgrwt>
</event>
<event>
 4    1  0.2058931E-005  0.9558136E+03  0.7818608E-02  0.9358381E-01
          2   -1    0    0  501    0  0.00000000000E+00  0.00000000000E+00  0.65021709327E+03  0.65021709328E+03  0.25500000000E-02 0.  1.
         -2   -1    0    0    0  501 -0.00000000000E+00 -0.00000000000E+00 -0.35125948124E+03  0.35125948125E+03  0.25500000000E-02 0. -1.
    5000001    1    1    2    0    0  0.37421645154E+03 -0.21836797448E+03  0.84818386672E+02  0.48143606388E+03  0.19200000000E+03 0.  0.
   -5000001    1    1    2    0    0 -0.37421645154E+03  0.21836797448E+03  0.21413922536E+03  0.52004051065E+03  0.19200000000E+03 0.  0.
<mgrwt>
<rscale>  0 0.95581362E+03</rscale>
<asrwt>0</asrwt>
<pdfrwt beam="1">  1        2 0.92888157E-01 0.95581362E+03</pdfrwt>
<pdfrwt beam="2">  1       -2 0.50179925E-01 0.95581362E+03</pdfrwt>
<totfact> 0.18513625E+02</totfact>
</mgrwt>
</event>
<event>
 4    1  0.2058931E-005  0.4582910E+03  0.7818608E-02  0.1025278E+00
         -2   -1    0    0    0  501 -0.00000000000E+00  0.00000000000E+00  0.21453460592E+02  0.21453460744E+02  0.25500000000E-02 0. -1.
          2   -1    0    0  501    0  0.00000000000E+00 -0.00000000000E+00 -0.24475151551E+04  0.24475151551E+04  0.25500000000E-02 0.  1.
    5000001    1    1    2    0    0 -0.31530771432E+02 -0.12057039807E+03 -0.12701111282E+04  0.12905726203E+04  0.19200000000E+03 0.  0.
   -5000001    1    1    2    0    0  0.31530771432E+02  0.12057039807E+03 -0.11559505664E+04  0.11783959955E+04  0.19200000000E+03 0.  0.
<mgrwt>
<rscale>  0 0.45829104E+03</rscale>
<asrwt>0</asrwt>
<pdfrwt beam="1">  1        2 0.34964484E+00 0.45829104E+03</pdfrwt>
<pdfrwt beam="2">  1       -2 0.30647817E-02 0.45829104E+03</pdfrwt>
<totfact> 0.21566541E+03</totfact>
</mgrwt>
</event>
<event>
 4    1  0.2058931E-005  0.4664392E+03  0.7818608E-02  0.1022930E+00
         -2   -1    0    0    0  501 -0.00000000000E+00  0.00000000000E+00  0.10761404069E+03  0.10761404072E+03  0.25500000000E-02 0. -1.
          2   -1    0    0  501    0  0.00000000000E+00 -0.00000000000E+00 -0.50543017649E+03  0.50543017649E+03  0.25500000000E-02 0.  1.
    5000001    1    1    2    0    0  0.10680269704E+03 -0.71821603385E+02 -0.23967753359E+03  0.33297819586E+03  0.19200000000E+03 0.  0.
   -5000001    1    1    2    0    0 -0.10680269704E+03  0.71821603385E+02 -0.15813860221E+03  0.28006602135E+03  0.19200000000E+03 0.  0.
<mgrwt>
<rscale>  0 0.46643921E+03</rscale>
<asrwt>0</asrwt>
<pdfrwt beam="1">  1        2 0.72204310E-01 0.46643921E+03</pdfrwt>
<pdfrwt beam="2">  1       -2 0.15373435E-01 0.46643921E+03</pdfrwt>
<totfact> 0.22129060E+03</totfact>
</mgrwt>
</event>
<event>
 4    1  0.2058931E-005  0.6653408E+03  0.7818608E-02  0.9778412E-01
          2   -1    0    0  501    0  0.00000000000E+00  0.00000000000E+00  0.16387733016E+03  0.16387733018E+03  0.25500000000E-02 0.  1.
         -2   -1    0    0    0  501 -0.00000000000E+00 -0.00000000000E+00 -0.67531979613E+03  0.67531979614E+03  0.25500000000E-02 0. -1.
    5000001    1    1    2    0    0  0.37242926310E+02  0.25156338381E+03 -0.13517306271E+03  0.34613137465E+03  0.19200000000E+03 0.  0.
   -5000001    1    1    2    0    0 -0.37242926310E+02 -0.25156338381E+03 -0.37626940326E+03  0.49306575167E+03  0.19200000000E+03 0.  0.
<mgrwt>
<rscale>  0 0.66534083E+03</rscale>
<asrwt>0</asrwt>
<pdfrwt beam="1">  1        2 0.23411048E-01 0.66534083E+03</pdfrwt>
<pdfrwt beam="2">  1       -2 0.96474255E-01 0.66534083E+03</pdfrwt>
<totfact> 0.21479260E+02</totfact>
</mgrwt>
</event>
<event>
 4    1  0.2058931E-005  0.8233741E+03  0.7818608E-02  0.9526787E-01
          2   -1    0    0  501    0  0.00000000000E+00  0.00000000000E+00  0.16788842721E+04  0.16788842721E+04  0.25500000000E-02 0.  1.
         -2   -1    0    0    0  501 -0.00000000000E+00 -0.00000000000E+00 -0.10095171545E+03  0.10095171548E+03  0.25500000000E-02 0. -1.
    5000001    1    1    2    0    0 -0.91992025428E+02 -0.22343877562E+03  0.13779273765E+04  0.14120677300E+04  0.19200000000E+03 0.  0.
   -5000001    1    1    2    0    0  0.91992025428E+02  0.22343877562E+03  0.20000518012E+03  0.36776825756E+03  0.19200000000E+03 0.  0.
<mgrwt>
<rscale>  0 0.82337415E+03</rscale>
<asrwt>0</asrwt>
<pdfrwt beam="1">  1        2 0.23984064E+00 0.82337415E+03</pdfrwt>
<pdfrwt beam="2">  1       -2 0.14421672E-01 0.82337415E+03</pdfrwt>
<totfact> 0.44442779E+02</totfact>
</mgrwt>
</event>
<event>
 4    1  0.2058931E-005  0.4190054E+03  0.7818608E-02  0.1037390E+00
          2   -1    0    0  501    0  0.00000000000E+00  0.00000000000E+00  0.14307768848E+04  0.14307768848E+04  0.25500000000E-02 0.  1.
         -2   -1    0    0    0  501 -0.00000000000E+00 -0.00000000000E+00 -0.30676608710E+02  0.30676608816E+02  0.25500000000E-02 0. -1.
    5000001    1    1    2    0    0 -0.98000616773E+01  0.73571976623E+02  0.83596708056E+03  0.86093776589E+03  0.19200000000E+03 0.  0.
   -5000001    1    1    2    0    0  0.98000616773E+01 -0.73571976623E+02  0.56413319555E+03  0.60051572775E+03  0.19200000000E+03 0.  0.
<mgrwt>
<rscale>  0 0.41900541E+03</rscale>
<asrwt>0</asrwt>
<pdfrwt beam="1">  1        2 0.20439674E+00 0.41900541E+03</pdfrwt>
<pdfrwt beam="2">  1       -2 0.43823717E-02 0.41900541E+03</pdfrwt>
<totfact> 0.40627916E+03</totfact>
</mgrwt>
</event>
<event>
 4    1  0.2058931E-005  0.9100163E+03  0.7818608E-02  0.9413146E-01
          2   -1    0    0  501    0  0.00000000000E+00  0.00000000000E+00  0.22190373392E+04  0.22190373393E+04  0.25500000000E-02 0.  1.
         -2   -1    0    0    0  501 -0.00000000000E+00 -0.00000000000E+00 -0.93298307509E+02  0.93298307544E+02  0.25500000000E-02 0. -1.
    5000001    1    1    2    0    0  0.15598793773E+01 -0.41186149362E+03  0.11217032747E+04  0.12102539236E+04  0.19200000000E+03 0.  0.
   -5000001    1    1    2    0    0 -0.15598793773E+01  0.41186149362E+03  0.10040357570E+04  0.11020817231E+04  0.19200000000E+03 0.  0.
<mgrwt>
<rscale>  0 0.91001633E+03</rscale>
<asrwt>0</asrwt>
<pdfrwt beam="1">  1        2 0.31700538E+00 0.91001633E+03</pdfrwt>
<pdfrwt beam="2">  1       -2 0.13328328E-01 0.91001633E+03</pdfrwt>
<totfact> 0.26759412E+02</totfact>
</mgrwt>
</event>
<event>
 4    1  0.2058931E-005  0.7429110E+03  0.7818608E-02  0.9646538E-01
          2   -1    0    0  501    0  0.00000000000E+00  0.00000000000E+00  0.26747026505E+03  0.26747026506E+03  0.25500000000E-02 0.  1.
         -2   -1    0    0    0  501 -0.00000000000E+00 -0.00000000000E+00 -0.51586741137E+03  0.51586741138E+03  0.25500000000E-02 0. -1.
    5000001    1    1    2    0    0 -0.38658580890E+01 -0.30739993537E+03 -0.38501499432E+02  0.36449421200E+03  0.19200000000E+03 0.  0.
   -5000001    1    1    2    0    0  0.38658580890E+01  0.30739993537E+03 -0.20989564690E+03  0.41884346444E+03  0.19200000000E+03 0.  0.
<mgrwt>
<rscale>  0 0.74291101E+03</rscale>
<asrwt>0</asrwt>
<pdfrwt beam="1">  1        2 0.38210038E-01 0.74291101E+03</pdfrwt>
<pdfrwt beam="2">  1       -2 0.73695344E-01 0.74291101E+03</pdfrwt>
<totfact> 0.22699577E+02</totfact>
</mgrwt>
</event>
<event>
 4    1  0.2058931E-005  0.5244369E+03  0.7818608E-02  0.1007590E+00
          2   -1    0    0  501    0  0.00000000000E+00  0.00000000000E+00  0.25591226974E+04  0.25591226974E+04  0.25500000000E-02 0.  1.
         -2   -1    0    0    0  501 -0.00000000000E+00 -0.00000000000E+00 -0.26868007043E+02  0.26868007164E+02  0.25500000000E-02 0. -1.
    5000001    1    1    2    0    0 -0.12464901671E+03 -0.11974808341E+03  0.14876128972E+04  0.15098785093E+04  0.19200000000E+03 0.  0.
   -5000001    1    1    2    0    0  0.12464901671E+03  0.11974808341E+03  0.10446417931E+04  0.10761121953E+04  0.19200000000E+03 0.  0.
<mgrwt>
<rscale>  0 0.52443694E+03</rscale>
<asrwt>0</asrwt>
<pdfrwt beam="1">  1        2 0.36558890E+00 0.52443694E+03</pdfrwt>
<pdfrwt beam="2">  1       -2 0.38382873E-02 0.52443694E+03</pdfrwt>
<totfact> 0.13379651E+03</totfact>
</mgrwt>
</event>
<event>
 4    1  0.2058931E-005  0.6021521E+03  0.7818608E-02  0.9900951E-01
          2   -1    0    0  501    0  0.00000000000E+00  0.00000000000E+00  0.38061136122E+02  0.38061136207E+02  0.25500000000E-02 0.  1.
         -2   -1    0    0    0  501 -0.00000000000E+00 -0.00000000000E+00 -0.23816105217E+04  0.23816105217E+04  0.25500000000E-02 0. -1.
    5000001    1    1    2    0    0 -0.17489345259E+03  0.13133976953E+03 -0.14816052235E+04  0.15099191678E+04  0.19200000000E+03 0.  0.
   -5000001    1    1    2    0    0  0.17489345259E+03 -0.13133976953E+03 -0.86194416205E+03  0.90975249014E+03  0.19200000000E+03 0.  0.
<mgrwt>
<rscale>  0 0.60215215E+03</rscale>
<asrwt>0</asrwt>
<pdfrwt beam="1">  1        2 0.54373067E-02 0.60215215E+03</pdfrwt>
<pdfrwt beam="2">  1       -2 0.34022998E+00 0.60215215E+03</pdfrwt>
<totfact> 0.28325392E+01</totfact>
</mgrwt>
</event>
<event>
 4    1  0.2058931E-005  0.9310087E+03  0.7818608E-02  0.9387628E-01
         -2   -1    0    0    0  501 -0.00000000000E+00  0.00000000000E+00  0.34394895012E+03  0.34394895013E+03  0.25500000000E-02 0. -1.
          2   -1    0    0  501    0  0.00000000000E+00 -0.00000000000E+00 -0.63001884864E+03  0.63001884865E+03  0.25500000000E-02 0.  1.
    5000001    1    1    2    0    0 -0.66187240256E+01 -0.36845725963E+03 -0.36253987862E+03  0.55145600303E+03  0.19200000000E+03 0.  0.
   -5000001    1    1    2    0    0  0.66187240256E+01  0.36845725963E+03  0.76469980098E+02  0.42251179574E+03  0.19200000000E+03 0.  0.
<mgrwt>
<rscale>  0 0.93100875E+03</rscale>
<asrwt>0</asrwt>
<pdfrwt beam="1">  1        2 0.90002692E-01 0.93100875E+03</pdfrwt>
<pdfrwt beam="2">  1       -2 0.49135564E-01 0.93100875E+03</pdfrwt>
<totfact> 0.20097116E+02</totfact>
</mgrwt>
</event>
<event>
 4    1  0.2058931E-005  0.9170585E+03  0.7818608E-02  0.9404505E-01
         -2   -1    0    0    0  501 -0.00000000000E+00  0.00000000000E+00  0.42633990415E+03  0.42633990416E+03  0.25500000000E-02 0. -1.
          2   -1    0    0  501    0  0.00000000000E+00 -0.00000000000E+00 -0.49314892017E+03  0.49314892018E+03  0.25500000000E-02 0.  1.
    5000001    1    1    2    0    0 -0.37762460707E+03 -0.11582888260E+03 -0.16554295522E+03  0.46934544200E+03  0.19200000000E+03 0.  0.
   -5000001    1    1    2    0    0  0.37762460707E+03  0.11582888260E+03  0.98733939202E+02  0.45014338233E+03  0.19200000000E+03 0.  0.
<mgrwt>
<rscale>  0 0.91705848E+03</rscale>
<asrwt>0</asrwt>
<pdfrwt beam="1">  1        2 0.70449846E-01 0.91705848E+03</pdfrwt>
<pdfrwt beam="2">  1       -2 0.60905701E-01 0.91705848E+03</pdfrwt>
<totfact> 0.17164351E+02</totfact>
</mgrwt>
</event>
<event>
 4    1  0.2058931E-005  0.5518492E+03  0.7818608E-02  0.1001067E+00
          2   -1    0    0  501    0  0.00000000000E+00  0.00000000000E+00  0.54728430507E+03  0.54728430507E+03  0.25500000000E-02 0.  1.
         -2   -1    0    0    0  501 -0.00000000000E+00 -0.00000000000E+00 -0.13911301778E+03  0.13911301781E+03  0.25500000000E-02 0. -1.
    5000001    1    1    2    0    0 -0.58583784831E+02  0.18177750168E+03  0.13832506403E+03  0.30409364232E+03  0.19200000000E+03 0.  0.
   -5000001    1    1    2    0    0  0.58583784831E+02 -0.18177750168E+03  0.26984622326E+03  0.38230368056E+03  0.19200000000E+03 0.  0.
<mgrwt>
<rscale>  0 0.55184915E+03</rscale>
<asrwt>0</asrwt>
<pdfrwt beam="1">  1        2 0.78183474E-01 0.55184915E+03</pdfrwt>
<pdfrwt beam="2">  1       -2 0.19873288E-01 0.55184915E+03</pdfrwt>
<totfact> 0.13045556E+03</totfact>
</mgrwt>
</event>
<event>
 4    1  0.2058931E-005  0.5362207E+03  0.7818608E-02  0.1004735E+00
         -2   -1    0    0    0  501 -0.00000000000E+00  0.00000000000E+00  0.15608632537E+02  0.15608632745E+02  0.25500000000E-02 0. -1.
          2   -1    0    0  501    0  0.00000000000E+00 -0.00000000000E+00 -0.46053462897E+04  0.46053462897E+04  0.25500000000E-02 0.  1.
    5000001    1    1    2    0    0 -0.15491198019E+03  0.10321480125E+03 -0.21295220945E+04  0.21462477415E+04  0.19200000000E+03 0.  0.
   -5000001    1    1    2    0    0  0.15491198019E+03 -0.10321480125E+03 -0.24602155627E+04  0.24747071810E+04  0.19200000000E+03 0.  0.
<mgrwt>
<rscale>  0 0.53622069E+03</rscale>
<asrwt>0</asrwt>
<pdfrwt beam="1">  1        2 0.65790574E+00 0.53622069E+03</pdfrwt>
<pdfrwt beam="2">  1       -2 0.22298076E-02 0.53622069E+03</pdfrwt>
<totfact> 0.16414661E+02</totfact>
</mgrwt>
</event>
<event>
 4    1  0.2058931E-005  0.5755885E+03  0.7818608E-02  0.9957388E-01
          2   -1    0    0  501    0  0.00000000000E+00  0.00000000000E+00  0.85271427798E+02  0.85271427836E+02  0.25500000000E-02 0.  1.
         -2   -1    0    0    0  501 -0.00000000000E+00 -0.00000000000E+00 -0.97131637085E+03  0.97131637085E+03  0.25500000000E-02 0. -1.
    5000001    1    1    2    0    0 -0.75509025535E+01 -0.19791617764E+03 -0.29238934356E+03  0.40197432471E+03  0.19200000000E+03 0.  0.
   -5000001    1    1    2    0    0  0.75509025535E+01  0.19791617764E+03 -0.59365559949E+03  0.65461347398E+03  0.19200000000E+03 0.  0.
<mgrwt>
<rscale>  0 0.57558851E+03</rscale>
<asrwt>0</asrwt>
<pdfrwt beam="1">  1        2 0.12181633E-01 0.57558851E+03</pdfrwt>
<pdfrwt beam="2">  1       -2 0.13875948E+00 0.57558851E+03</pdfrwt>
<totfact> 0.19339207E+02</totfact>
</mgrwt>
</event>
<event>
 4    1  0.2058931E-005  0.4721586E+03  0.7818608E-02  0.1021313E+00
         -2   -1    0    0    0  501 -0.00000000000E+00  0.00000000000E+00  0.29134111722E+02  0.29134111834E+02  0.25500000000E-02 0. -1.
          2   -1    0    0  501    0  0.00000000000E+00 -0.00000000000E+00 -0.19129956018E+04  0.19129956018E+04  0.25500000000E-02 0.  1.
    5000001    1    1    2    0    0 -0.55372527240E+02 -0.91177514492E+02 -0.12979147223E+04  0.13163685207E+04  0.19200000000E+03 0.  0.
   -5000001    1    1    2    0    0  0.55372527240E+02  0.91177514492E+02 -0.58594676784E+03  0.62576119300E+03  0.19200000000E+03 0.  0.
<mgrwt>
<rscale>  0 0.47215857E+03</rscale>
<asrwt>0</asrwt>
<pdfrwt beam="1">  1        2 0.27328500E+00 0.47215857E+03</pdfrwt>
<pdfrwt beam="2">  1       -2 0.41620172E-02 0.47215857E+03</pdfrwt>
<totfact> 0.25047389E+03</totfact>
</mgrwt>
</event>
<event>
 4    1  0.2058931E-005  0.6578378E+03  0.7818608E-02  0.9792182E-01
         -2   -1    0    0    0  501 -0.00000000000E+00  0.00000000000E+00  0.53043813277E+03  0.53043813277E+03  0.25500000000E-02 0. -1.
          2   -1    0    0  501    0  0.00000000000E+00 -0.00000000000E+00 -0.20395902798E+03  0.20395902800E+03  0.25500000000E-02 0.  1.
    5000001    1    1    2    0    0 -0.44422634989E+02  0.24636398165E+03  0.26709930891E+03  0.41336983777E+03  0.19200000000E+03 0.  0.
   -5000001    1    1    2    0    0  0.44422634989E+02 -0.24636398165E+03  0.59379795873E+02  0.32102732300E+03  0.19200000000E+03 0.  0.
<mgrwt>
<rscale>  0 0.65783781E+03</rscale>
<asrwt>0</asrwt>
<pdfrwt beam="1">  1        2 0.29137004E-01 0.65783781E+03</pdfrwt>
<pdfrwt beam="2">  1       -2 0.75776876E-01 0.65783781E+03</pdfrwt>
<totfact> 0.28992031E+02</totfact>
</mgrwt>
</event>
<event>
 4    1  0.2058931E-005  0.6452471E+03  0.7818608E-02  0.9815739E-01
         -2   -1    0    0    0  501 -0.00000000000E+00  0.00000000000E+00  0.52621780611E+02  0.52621780673E+02  0.25500000000E-02 0. -1.
          2   -1    0    0  501    0  0.00000000000E+00 -0.00000000000E+00 -0.19780011137E+04  0.19780011137E+04  0.25500000000E-02 0.  1.
    5000001    1    1    2    0    0  0.14828134057E+03 -0.95259291892E+02 -0.15611274028E+04  0.15827332234E+04  0.19200000000E+03 0.  0.
   -5000001    1    1    2    0    0 -0.14828134057E+03  0.95259291892E+02 -0.36425193028E+03  0.44788967098E+03  0.19200000000E+03 0.  0.
<mgrwt>
<rscale>  0 0.64524706E+03</rscale>
<asrwt>0</asrwt>
<pdfrwt beam="1">  1        2 0.28257154E+00 0.64524706E+03</pdfrwt>
<pdfrwt beam="2">  1       -2 0.75173985E-02 0.64524706E+03</pdfrwt>
<totfact> 0.91748917E+02</totfact>
</mgrwt>
</event>
<event>
 4    1  0.2058931E-005  0.5051380E+03  0.7818608E-02  0.1012446E+00
         -2   -1    0    0    0  501 -0.00000000000E+00  0.00000000000E+00  0.14658099381E+03  0.14658099383E+03  0.25500000000E-02 0. -1.
          2   -1    0    0  501    0  0.00000000000E+00 -0.00000000000E+00 -0.43519348220E+03  0.43519348221E+03  0.25500000000E-02 0.  1.
    5000001    1    1    2    0    0 -0.31959349893E+02  0.12796567740E+03 -0.31871121370E+02  0.23510930015E+03  0.19200000000E+03 0.  0.
   -5000001    1    1    2    0    0  0.31959349893E+02 -0.12796567740E+03 -0.25674136702E+03  0.34666517589E+03  0.19200000000E+03 0.  0.
<mgrwt>
<rscale>  0 0.50513797E+03</rscale>
<asrwt>0</asrwt>
<pdfrwt beam="1">  1        2 0.62170497E-01 0.50513797E+03</pdfrwt>
<pdfrwt beam="2">  1       -2 0.20940142E-01 0.50513797E+03</pdfrwt>
<totfact> 0.15431699E+03</totfact>
</mgrwt>
</event>
<event>
 4    1  0.2058931E-005  0.4442511E+03  0.7818608E-02  0.1029450E+00
          2   -1    0    0  501    0  0.00000000000E+00  0.00000000000E+00  0.24414871439E+04  0.24414871439E+04  0.25500000000E-02 0.  1.
         -2   -1    0    0    0  501 -0.00000000000E+00 -0.00000000000E+00 -0.20208896459E+02  0.20208896620E+02  0.25500000000E-02 0. -1.
    5000001    1    1    2    0    0 -0.53936127005E+02 -0.63371698418E+02  0.79780163408E+03  0.82478877617E+03  0.19200000000E+03 0.  0.
   -5000001    1    1    2    0    0  0.53936127005E+02  0.63371698418E+02  0.16234766134E+04  0.16369072644E+04  0.19200000000E+03 0.  0.
<mgrwt>
<rscale>  0 0.44425111E+03</rscale>
<asrwt>0</asrwt>
<pdfrwt beam="1">  1        2 0.34878379E+00 0.44425111E+03</pdfrwt>
<pdfrwt beam="2">  1       -2 0.28869859E-02 0.44425111E+03</pdfrwt>
<totfact> 0.23787393E+03</totfact>
</mgrwt>
</event>
<event>
 4    1  0.2058931E-005  0.5209453E+03  0.7818608E-02  0.1008452E+00
         -2   -1    0    0    0  501 -0.00000000000E+00  0.00000000000E+00  0.14615025015E+03  0.14615025017E+03  0.25500000000E-02 0. -1.
          2   -1    0    0  501    0  0.00000000000E+00 -0.00000000000E+00 -0.46422086981E+03  0.46422086982E+03  0.25500000000E-02 0.  1.
    5000001    1    1    2    0    0 -0.57418302659E+02 -0.15486145749E+03 -0.23033414979E+03  0.34234011313E+03  0.19200000000E+03 0.  0.
   -5000001    1    1    2    0    0  0.57418302659E+02  0.15486145749E+03 -0.87736469870E+02  0.26803100687E+03  0.19200000000E+03 0.  0.
<mgrwt>
<rscale>  0 0.52094528E+03</rscale>
<asrwt>0</asrwt>
<pdfrwt beam="1">  1        2 0.66317266E-01 0.52094528E+03</pdfrwt>
<pdfrwt beam="2">  1       -2 0.20878607E-01 0.52094528E+03</pdfrwt>
<totfact> 0.14432651E+03</totfact>
</mgrwt>
</event>
<event>
 4    1  0.2058931E-005  0.4068189E+03  0.7818608E-02  0.1041444E+00
          2   -1    0    0  501    0  0.00000000000E+00  0.00000000000E+00  0.54153903748E+03  0.54153903748E+03  0.25500000000E-02 0.  1.
         -2   -1    0    0    0  501 -0.00000000000E+00 -0.00000000000E+00 -0.76403361203E+02  0.76403361245E+02  0.25500000000E-02 0. -1.
    5000001    1    1    2    0    0 -0.31064633897E+02 -0.16994008867E+02  0.14587256504E+03  0.24371420362E+03  0.19200000000E+03 0.  0.
   -5000001    1    1    2    0    0  0.31064633897E+02  0.16994008867E+02  0.31926311124E+03  0.37422819511E+03  0.19200000000E+03 0.  0.
<mgrwt>
<rscale>  0 0.40681889E+03</rscale>
<asrwt>0</asrwt>
<pdfrwt beam="1">  1        2 0.77362721E-01 0.40681889E+03</pdfrwt>
<pdfrwt beam="2">  1       -2 0.10914766E-01 0.40681889E+03</pdfrwt>
<totfact> 0.35910351E+03</totfact>
</mgrwt>
</event>
<event>
 4    1  0.2058931E-005  0.5162099E+03  0.7818608E-02  0.1009632E+00
          2   -1    0    0  501    0  0.00000000000E+00  0.00000000000E+00  0.51192121856E+03  0.51192121857E+03  0.25500000000E-02 0.  1.
         -2   -1    0    0    0  501 -0.00000000000E+00 -0.00000000000E+00 -0.13013360429E+03  0.13013360432E+03  0.25500000000E-02 0. -1.
    5000001    1    1    2    0    0  0.11304900008E+03  0.11362916154E+03  0.11161775719E+03  0.27388717840E+03  0.19200000000E+03 0.  0.
   -5000001    1    1    2    0    0 -0.11304900008E+03 -0.11362916154E+03  0.27016985708E+03  0.36816764448E+03  0.19200000000E+03 0.  0.
<mgrwt>
<rscale>  0 0.51620985E+03</rscale>
<asrwt>0</asrwt>
<pdfrwt beam="1">  1        2 0.73131603E-01 0.51620985E+03</pdfrwt>
<pdfrwt beam="2">  1       -2 0.18590515E-01 0.51620985E+03</pdfrwt>
<totfact> 0.15803599E+03</totfact>
</mgrwt>
</event>
<event>
 4    1  0.2058931E-005  0.4771670E+03  0.7818608E-02  0.1019917E+00
         -2   -1    0    0    0  501 -0.00000000000E+00  0.00000000000E+00  0.73636903427E+02  0.73636903471E+02  0.25500000000E-02 0.  1.
          2   -1    0    0  501    0  0.00000000000E+00 -0.00000000000E+00 -0.77301023810E+03  0.77301023811E+03  0.25500000000E-02 0. -1.
    5000001    1    1    2    0    0 -0.60065539461E+02 -0.31529772331E+02 -0.12909870265E+03  0.24110676183E+03  0.19200000000E+03 0.  0.
   -5000001    1    1    2    0    0  0.60065539461E+02  0.31529772331E+02 -0.57027463203E+03  0.60554037975E+03  0.19200000000E+03 0.  0.
<mgrwt>
<rscale>  0 0.47716697E+03</rscale>
<asrwt>0</asrwt>
<pdfrwt beam="1">  1        2 0.11043003E+00 0.47716697E+03</pdfrwt>
<pdfrwt beam="2">  1       -2 0.10519558E-01 0.47716697E+03</pdfrwt>
<totfact> 0.25020619E+03</totfact>
</mgrwt>
</event>
<event>
 4    1  0.2058931E-005  0.5016658E+03  0.7818608E-02  0.1013345E+00
         -2   -1    0    0    0  501 -0.00000000000E+00  0.00000000000E+00  0.23514896536E+03  0.23514896538E+03  0.25500000000E-02 0. -1.
          2   -1    0    0  501    0  0.00000000000E+00 -0.00000000000E+00 -0.26756292811E+03  0.26756292812E+03  0.25500000000E-02 0.  1.
    5000001    1    1    2    0    0 -0.71453238475E+01 -0.10427737200E+03 -0.13946069289E+03  0.25930312537E+03  0.19200000000E+03 0.  0.
   -5000001    1    1    2    0    0  0.71453238475E+01  0.10427737200E+03  0.10704673015E+03  0.24340876812E+03  0.19200000000E+03 0.  0.
<mgrwt>
<rscale>  0 0.50166581E+03</rscale>
<asrwt>0</asrwt>
<pdfrwt beam="1">  1        2 0.38223275E-01 0.50166581E+03</pdfrwt>
<pdfrwt beam="2">  1       -2 0.33592710E-01 0.50166581E+03</pdfrwt>
<totfact> 0.11225860E+03</totfact>
</mgrwt>
</event>
<event>
 4    1  0.2058931E-005  0.5343464E+03  0.7818608E-02  0.1005183E+00
         -2   -1    0    0    0  501 -0.00000000000E+00  0.00000000000E+00  0.16361911914E+03  0.16361911916E+03  0.25500000000E-02 0. -1.
          2   -1    0    0  501    0  0.00000000000E+00 -0.00000000000E+00 -0.43626642636E+03  0.43626642637E+03  0.25500000000E-02 0.  1.
    5000001    1    1    2    0    0 -0.47339346079E+02 -0.10954333868E+03 -0.29618552250E+03  0.37259981277E+03  0.19200000000E+03 0.  0.
   -5000001    1    1    2    0    0  0.47339346079E+02  0.10954333868E+03  0.23538215277E+02  0.22728573276E+03  0.19200000000E+03 0.  0.
<mgrwt>
<rscale>  0 0.53434644E+03</rscale>
<asrwt>0</asrwt>
<pdfrwt beam="1">  1        2 0.62323775E-01 0.53434644E+03</pdfrwt>
<pdfrwt beam="2">  1       -2 0.23374160E-01 0.53434644E+03</pdfrwt>
<totfact> 0.12682627E+03</totfact>
</mgrwt>
</event>
<event>
 4    1  0.2058931E-005  0.6995305E+03  0.7818608E-02  0.9718035E-01
         -2   -1    0    0    0  501 -0.00000000000E+00  0.00000000000E+00  0.20193439020E+03  0.20193439022E+03  0.25500000000E-02 0. -1.
          2   -1    0    0  501    0  0.00000000000E+00 -0.00000000000E+00 -0.60581913493E+03  0.60581913493E+03  0.25500000000E-02 0.  1.
    5000001    1    1    2    0    0  0.85434669659E+02  0.81584973439E+02  0.10685630906E+03  0.24947437034E+03  0.19200000000E+03 0.  0.
   -5000001    1    1    2    0    0 -0.85434669659E+02 -0.81584973439E+02 -0.51074105379E+03  0.55827915481E+03  0.19200000000E+03 0.  0.
<mgrwt>
<rscale>  0 0.69953046E+03</rscale>
<asrwt>0</asrwt>
<pdfrwt beam="1">  1        2 0.86545590E-01 0.69953046E+03</pdfrwt>
<pdfrwt beam="2">  1       -2 0.28847770E-01 0.69953046E+03</pdfrwt>
<totfact> 0.59390680E+02</totfact>
</mgrwt>
</event>
<event>
 4    1  0.2058931E-005  0.6484671E+03  0.7818608E-02  0.9809660E-01
          2   -1    0    0  501    0  0.00000000000E+00  0.00000000000E+00  0.33006002979E+03  0.33006002980E+03  0.25500000000E-02 0.  1.
         -2   -1    0    0    0  501 -0.00000000000E+00 -0.00000000000E+00 -0.31850990157E+03  0.31850990158E+03  0.25500000000E-02 0. -1.
    5000001    1    1    2    0    0 -0.22688413062E+03  0.36862133180E+02 -0.11845478963E+03  0.32207260482E+03  0.19200000000E+03 0.  0.
   -5000001    1    1    2    0    0  0.22688413062E+03 -0.36862133180E+02  0.13000491785E+03  0.32649732657E+03  0.19200000000E+03 0.  0.
<mgrwt>
<rscale>  0 0.64846708E+03</rscale>
<asrwt>0</asrwt>
<pdfrwt beam="1">  1        2 0.47151433E-01 0.64846708E+03</pdfrwt>
<pdfrwt beam="2">  1       -2 0.45501414E-01 0.64846708E+03</pdfrwt>
<totfact> 0.49480182E+02</totfact>
</mgrwt>
</event>
<event>
 4    1  0.2058931E-005  0.5686903E+03  0.7818608E-02  0.9972581E-01
         -2   -1    0    0    0  501 -0.00000000000E+00  0.00000000000E+00  0.56455298190E+02  0.56455298248E+02  0.25500000000E-02 0. -1.
          2   -1    0    0  501    0  0.00000000000E+00 -0.00000000000E+00 -0.14321449183E+04  0.14321449183E+04  0.25500000000E-02 0.  1.
    5000001    1    1    2    0    0 -0.47877185549E+02  0.20413442498E+03 -0.67473589149E+03  0.73218550356E+03  0.19200000000E+03 0.  0.
   -5000001    1    1    2    0    0  0.47877185549E+02 -0.20413442498E+03 -0.70095372860E+03  0.75641471297E+03  0.19200000000E+03 0.  0.
<mgrwt>
<rscale>  0 0.56869031E+03</rscale>
<asrwt>0</asrwt>
<pdfrwt beam="1">  1        2 0.20459211E+00 0.56869031E+03</pdfrwt>
<pdfrwt beam="2">  1       -2 0.80650435E-02 0.56869031E+03</pdfrwt>
<totfact> 0.15640535E+03</totfact>
</mgrwt>
</event>
<event>
 4    1  0.2058931E-005  0.9971301E+03  0.7818608E-02  0.9311698E-01
         -2   -1    0    0    0  501 -0.00000000000E+00  0.00000000000E+00  0.13281615602E+03  0.13281615605E+03  0.25500000000E-02 0. -1.
          2   -1    0    0  501    0  0.00000000000E+00 -0.00000000000E+00 -0.18715126155E+04  0.18715126155E+04  0.25500000000E-02 0.  1.
    5000001    1    1    2    0    0  0.42269244900E+03  0.16067328204E+03 -0.69856916007E+03  0.85401854862E+03  0.19200000000E+03 0.  0.
   -5000001    1    1    2    0    0 -0.42269244900E+03 -0.16067328204E+03 -0.10401272994E+04  0.11503102230E+04  0.19200000000E+03 0.  0.
<mgrwt>
<rscale>  0 0.99713010E+03</rscale>
<asrwt>0</asrwt>
<pdfrwt beam="1">  1        2 0.26735893E+00 0.99713010E+03</pdfrwt>
<pdfrwt beam="2">  1       -2 0.18973738E-01 0.99713010E+03</pdfrwt>
<totfact> 0.21885191E+02</totfact>
</mgrwt>
</event>
<event>
 4    1  0.2058931E-005  0.5099378E+03  0.7818608E-02  0.1011217E+00
          2   -1    0    0  501    0  0.00000000000E+00  0.00000000000E+00  0.72808881653E+03  0.72808881653E+03  0.25500000000E-02 0.  1.
         -2   -1    0    0    0  501 -0.00000000000E+00 -0.00000000000E+00 -0.89287382504E+02  0.89287382541E+02  0.25500000000E-02 0. -1.
    5000001    1    1    2    0    0 -0.95354128480E+02  0.77408712856E+02  0.13621704394E+03  0.26552514326E+03  0.19200000000E+03 0.  0.
   -5000001    1    1    2    0    0  0.95354128480E+02 -0.77408712856E+02  0.50258439008E+03  0.55185105581E+03  0.19200000000E+03 0.  0.
<mgrwt>
<rscale>  0 0.50993782E+03</rscale>
<asrwt>0</asrwt>
<pdfrwt beam="1">  1        2 0.10401269E+00 0.50993782E+03</pdfrwt>
<pdfrwt beam="2">  1       -2 0.12755340E-01 0.50993782E+03</pdfrwt>
<totfact> 0.19675178E+03</totfact>
</mgrwt>
</event>
<event>
 4    1  0.2058931E-005  0.1566724E+04  0.7818608E-02  0.8841255E-01
          2   -1    0    0  501    0  0.00000000000E+00  0.00000000000E+00  0.13693706873E+04  0.13693706873E+04  0.25500000000E-02 0.  1.
         -2   -1    0    0    0  501 -0.00000000000E+00 -0.00000000000E+00 -0.44813023991E+03  0.44813023991E+03  0.25500000000E-02 0. -1.
    5000001    1    1    2    0    0  0.64751569323E+03  0.27987922026E+03  0.78705713037E+03  0.10742122125E+04  0.19200000000E+03 0.  0.
   -5000001    1    1    2    0    0 -0.64751569323E+03 -0.27987922026E+03  0.13418331702E+03  0.74328871476E+03  0.19200000000E+03 0.  0.
<mgrwt>
<rscale>  0 0.15667245E+04</rscale>
<asrwt>0</asrwt>
<pdfrwt beam="1">  1        2 0.19562438E+00 0.15667245E+04</pdfrwt>
<pdfrwt beam="2">  1       -2 0.64018605E-01 0.15667245E+04</pdfrwt>
<totfact> 0.37355320E+01</totfact>
</mgrwt>
</event>
<event>
 4    1  0.2058931E-005  0.5213620E+03  0.7818608E-02  0.1008349E+00
         -2   -1    0    0    0  501 -0.00000000000E+00  0.00000000000E+00  0.30053269956E+03  0.30053269958E+03  0.25500000000E-02 0. -1.
          2   -1    0    0  501    0  0.00000000000E+00 -0.00000000000E+00 -0.22611374108E+03  0.22611374109E+03  0.25500000000E-02 0.  1.
    5000001    1    1    2    0    0  0.93849116931E+02  0.14671555708E+03  0.94084983317E+01  0.25939474027E+03  0.19200000000E+03 0.  0.
   -5000001    1    1    2    0    0 -0.93849116931E+02 -0.14671555708E+03  0.65010460156E+02  0.26725170040E+03  0.19200000000E+03 0.  0.
<mgrwt>
<rscale>  0 0.52136196E+03</rscale>
<asrwt>0</asrwt>
<pdfrwt beam="1">  1        2 0.32301963E-01 0.52136196E+03</pdfrwt>
<pdfrwt beam="2">  1       -2 0.42933243E-01 0.52136196E+03</pdfrwt>
<totfact> 0.84505982E+02</totfact>
</mgrwt>
</event>
<event>
 4    1  0.2058931E-005  0.6372202E+03  0.7818608E-02  0.9831060E-01
         -2   -1    0    0    0  501 -0.00000000000E+00  0.00000000000E+00  0.44353242443E+02  0.44353242516E+02  0.25500000000E-02 0. -1.
          2   -1    0    0  501    0  0.00000000000E+00 -0.00000000000E+00 -0.22887253813E+04  0.22887253813E+04  0.25500000000E-02 0.  1.
    5000001    1    1    2    0    0 -0.13715815133E+03 -0.21250700860E+03 -0.10269346382E+04  0.10749094559E+04  0.19200000000E+03 0.  0.
   -5000001    1    1    2    0    0  0.13715815133E+03  0.21250700860E+03 -0.12174375007E+04  0.12581691680E+04  0.19200000000E+03 0.  0.
<mgrwt>
<rscale>  0 0.63722019E+03</rscale>
<asrwt>0</asrwt>
<pdfrwt beam="1">  1        2 0.32696070E+00 0.63722019E+03</pdfrwt>
<pdfrwt beam="2">  1       -2 0.63361789E-02 0.63722019E+03</pdfrwt>
<totfact> 0.83851102E+02</totfact>
</mgrwt>
</event>
<event>
 4    1  0.2058931E-005  0.5386384E+03  0.7818608E-02  0.1004158E+00
         -2   -1    0    0    0  501 -0.00000000000E+00  0.00000000000E+00  0.77395698140E+02  0.77395698182E+02  0.25500000000E-02 0. -1.
          2   -1    0    0  501    0  0.00000000000E+00 -0.00000000000E+00 -0.93716875937E+03  0.93716875938E+03  0.25500000000E-02 0.  1.
    5000001    1    1    2    0    0  0.84278613169E+02  0.16623726041E+03 -0.48736231935E+03  0.55598897625E+03  0.19200000000E+03 0.  0.
   -5000001    1    1    2    0    0 -0.84278613169E+02 -0.16623726041E+03 -0.37241074188E+03  0.45857548131E+03  0.19200000000E+03 0.  0.
<mgrwt>
<rscale>  0 0.53863840E+03</rscale>
<asrwt>0</asrwt>
<pdfrwt beam="1">  1        2 0.13388124E+00 0.53863840E+03</pdfrwt>
<pdfrwt beam="2">  1       -2 0.11056529E-01 0.53863840E+03</pdfrwt>
<totfact> 0.17962418E+03</totfact>
</mgrwt>
</event>
<event>
 4    1  0.2058931E-005  0.4684965E+03  0.7818608E-02  0.1022345E+00
         -2   -1    0    0    0  501 -0.00000000000E+00  0.00000000000E+00  0.55171568697E+02  0.55171568755E+02  0.25500000000E-02 0. -1.
          2   -1    0    0  501    0  0.00000000000E+00 -0.00000000000E+00 -0.99457471732E+03  0.99457471733E+03  0.25500000000E-02 0.  1.
    5000001    1    1    2    0    0 -0.93825771363E+02  0.61266788872E+02 -0.63513760954E+03  0.67291951810E+03  0.19200000000E+03 0.  0.
   -5000001    1    1    2    0    0  0.93825771363E+02 -0.61266788872E+02 -0.30426553909E+03  0.37682676798E+03  0.19200000000E+03 0.  0.
<mgrwt>
<rscale>  0 0.46849652E+03</rscale>
<asrwt>0</asrwt>
<pdfrwt beam="1">  1        2 0.14208209E+00 0.46849652E+03</pdfrwt>
<pdfrwt beam="2">  1       -2 0.78816533E-02 0.46849652E+03</pdfrwt>
<totfact> 0.28515800E+03</totfact>
</mgrwt>
</event>
<event>
 4    1  0.2058931E-005  0.8678621E+03  0.7818608E-02  0.9466672E-01
         -2   -1    0    0    0  501 -0.00000000000E+00  0.00000000000E+00  0.45074811608E+03  0.45074811609E+03  0.25500000000E-02 0. -1.
          2   -1    0    0  501    0  0.00000000000E+00 -0.00000000000E+00 -0.41774140922E+03  0.41774140923E+03  0.25500000000E-02 0.  1.
    5000001    1    1    2    0    0 -0.22064873572E+03 -0.28640177678E+03  0.16055293437E+03  0.43971932758E+03  0.19200000000E+03 0.  0.
   -5000001    1    1    2    0    0  0.22064873572E+03  0.28640177678E+03 -0.12754622751E+03  0.42877019774E+03  0.19200000000E+03 0.  0.
<mgrwt>
<rscale>  0 0.86786209E+03</rscale>
<asrwt>0</asrwt>
<pdfrwt beam="1">  1        2 0.59677344E-01 0.86786209E+03</pdfrwt>
<pdfrwt beam="2">  1       -2 0.64392588E-01 0.86786209E+03</pdfrwt>
<totfact> 0.18439608E+02</totfact>
</mgrwt>
</event>
<event>
 4    1  0.2058931E-005  0.4483943E+03  0.7818608E-02  0.1028202E+00
         -2   -1    0    0    0  501 -0.00000000000E+00  0.00000000000E+00  0.33555388308E+02  0.33555388405E+02  0.25500000000E-02 0. -1.
          2   -1    0    0  501    0  0.00000000000E+00 -0.00000000000E+00 -0.14979517443E+04  0.14979517443E+04  0.25500000000E-02 0.  1.
    5000001    1    1    2    0    0 -0.10564553118E+03  0.18434550427E+02 -0.88106001986E+03  0.90809226926E+03  0.19200000000E+03 0.  0.
   -5000001    1    1    2    0    0  0.10564553118E+03 -0.18434550427E+02 -0.58333633616E+03  0.62341486347E+03  0.19200000000E+03 0.  0.
<mgrwt>
<rscale>  0 0.44839426E+03</rscale>
<asrwt>0</asrwt>
<pdfrwt beam="1">  1        2 0.21399306E+00 0.44839426E+03</pdfrwt>
<pdfrwt beam="2">  1       -2 0.47936279E-02 0.44839426E+03</pdfrwt>
<totfact> 0.32680968E+03</totfact>
</mgrwt>
</event>
<event>
 4    1  0.2058931E-005  0.4589878E+03  0.7818608E-02  0.1025075E+00
          2   -1    0    0  501    0  0.00000000000E+00  0.00000000000E+00  0.64931654609E+03  0.64931654610E+03  0.25500000000E-02 0.  1.
         -2   -1    0    0    0  501 -0.00000000000E+00 -0.00000000000E+00 -0.81112138046E+02  0.81112138086E+02  0.25500000000E-02 0. -1.
    5000001    1    1    2    0    0 -0.98391337652E+02  0.75776637640E+02  0.31514447886E+03  0.38936229490E+03  0.19200000000E+03 0.  0.
   -5000001    1    1    2    0    0  0.98391337652E+02 -0.75776637640E+02  0.25305992919E+03  0.34106638928E+03  0.19200000000E+03 0.  0.
<mgrwt>
<rscale>  0 0.45898781E+03</rscale>
<asrwt>0</asrwt>
<pdfrwt beam="1">  1        2 0.92759500E-01 0.45898781E+03</pdfrwt>
<pdfrwt beam="2">  1       -2 0.11587449E-01 0.45898781E+03</pdfrwt>
<totfact> 0.26435210E+03</totfact>
</mgrwt>
</event>
<event>
 4    1  0.2058931E-005  0.7356531E+03  0.7818608E-02  0.9658131E-01
          2   -1    0    0  501    0  0.00000000000E+00  0.00000000000E+00  0.64958149932E+03  0.64958149933E+03  0.25500000000E-02 0. -1.
         -2   -1    0    0    0  501 -0.00000000000E+00 -0.00000000000E+00 -0.20828237002E+03  0.20828237003E+03  0.25500000000E-02 0.  1.
    5000001    1    1    2    0    0 -0.25901371265E+03  0.15490168619E+03  0.32062222414E+03  0.48035949698E+03  0.19200000000E+03 0.  0.
   -5000001    1    1    2    0    0  0.25901371265E+03 -0.15490168619E+03  0.12067690516E+03  0.37750437238E+03  0.19200000000E+03 0.  0.
<mgrwt>
<rscale>  0 0.73565311E+03</rscale>
<asrwt>0</asrwt>
<pdfrwt beam="1">  1        2 0.92797356E-01 0.73565311E+03</pdfrwt>
<pdfrwt beam="2">  1       -2 0.29754625E-01 0.73565311E+03</pdfrwt>
<totfact> 0.51553177E+02</totfact>
</mgrwt>
</event>
<event>
 4    1  0.2058931E-005  0.5234188E+03  0.7818608E-02  0.1007841E+00
         -2   -1    0    0    0  501 -0.00000000000E+00  0.00000000000E+00  0.12106170075E+03  0.12106170078E+03  0.25500000000E-02 0.  1.
          2   -1    0    0  501    0  0.00000000000E+00 -0.00000000000E+00 -0.56575953072E+03  0.56575953072E+03  0.25500000000E-02 0. -1.
    5000001    1    1    2    0    0  0.13594679904E+03 -0.11391896349E+03 -0.23939460103E+03  0.35444722797E+03  0.19200000000E+03 0.  0.
   -5000001    1    1    2    0    0 -0.13594679904E+03  0.11391896349E+03 -0.20530322894E+03  0.33237400353E+03  0.19200000000E+03 0.  0.
<mgrwt>
<rscale>  0 0.52341880E+03</rscale>
<asrwt>0</asrwt>
<pdfrwt beam="1">  1        2 0.80822789E-01 0.52341880E+03</pdfrwt>
<pdfrwt beam="2">  1       -2 0.17294529E-01 0.52341880E+03</pdfrwt>
<totfact> 0.15947928E+03</totfact>
</mgrwt>
</event>
<event>
 4    1  0.2058931E-005  0.5351222E+03  0.7818608E-02  0.1004997E+00
          2   -1    0    0  501    0  0.00000000000E+00  0.00000000000E+00  0.10410303507E+04  0.10410303507E+04  0.25500000000E-02 0.  1.
         -2   -1    0    0    0  501 -0.00000000000E+00 -0.00000000000E+00 -0.68767382052E+02  0.68767382099E+02  0.25500000000E-02 0. -1.
    5000001    1    1    2    0    0 -0.92772737954E+02 -0.13097597345E+03  0.68248034417E+03  0.72691464884E+03  0.19200000000E+03 0.  0.
   -5000001    1    1    2    0    0  0.92772737954E+02  0.13097597345E+03  0.28978262447E+03  0.38288308395E+03  0.19200000000E+03 0.  0.
<mgrwt>
<rscale>  0 0.53512216E+03</rscale>
<asrwt>0</asrwt>
<pdfrwt beam="1">  1        2 0.14871863E+00 0.53512216E+03</pdfrwt>
<pdfrwt beam="2">  1       -2 0.98239114E-02 0.53512216E+03</pdfrwt>
<totfact> 0.18803001E+03</totfact>
</mgrwt>
</event>
<event>
 4    1  0.2058931E-005  0.5287290E+03  0.7818608E-02  0.1006541E+00
         -2   -1    0    0    0  501 -0.00000000000E+00  0.00000000000E+00  0.48841508844E+02  0.48841508910E+02  0.25500000000E-02 0. -1.
          2   -1    0    0  501    0  0.00000000000E+00 -0.00000000000E+00 -0.14309260355E+04  0.14309260355E+04  0.25500000000E-02 0.  1.
    5000001    1    1    2    0    0 -0.10833926816E+03  0.11002869507E+03 -0.95920747153E+03  0.99034674948E+03  0.19200000000E+03 0.  0.
   -5000001    1    1    2    0    0  0.10833926816E+03 -0.11002869507E+03 -0.42287705517E+03  0.48942079497E+03  0.19200000000E+03 0.  0.
<mgrwt>
<rscale>  0 0.52872899E+03</rscale>
<asrwt>0</asrwt>
<pdfrwt beam="1">  1        2 0.20441798E+00 0.52872899E+03</pdfrwt>
<pdfrwt beam="2">  1       -2 0.69773593E-02 0.52872899E+03</pdfrwt>
<totfact> 0.19724762E+03</totfact>
</mgrwt>
</event>
<event>
 4    1  0.2058931E-005  0.4657725E+03  0.7818608E-02  0.1023120E+00
         -2   -1    0    0    0  501 -0.00000000000E+00  0.00000000000E+00  0.14626993091E+03  0.14626993094E+03  0.25500000000E-02 0. -1.
          2   -1    0    0  501    0  0.00000000000E+00 -0.00000000000E+00 -0.37079400913E+03  0.37079400914E+03  0.25500000000E-02 0.  1.
    5000001    1    1    2    0    0 -0.76344208676E+02  0.10703090062E+03 -0.10185041536E+03  0.25401094267E+03  0.19200000000E+03 0.  0.
   -5000001    1    1    2    0    0  0.76344208676E+02 -0.10703090062E+03 -0.12267366286E+03  0.26305299741E+03  0.19200000000E+03 0.  0.
<mgrwt>
<rscale>  0 0.46577254E+03</rscale>
<asrwt>0</asrwt>
<pdfrwt beam="1">  1        2 0.52970573E-01 0.46577254E+03</pdfrwt>
<pdfrwt beam="2">  1       -2 0.20895705E-01 0.46577254E+03</pdfrwt>
<totfact> 0.18478839E+03</totfact>
</mgrwt>
</event>
<event>
 4    1  0.2058931E-005  0.5270808E+03  0.7818608E-02  0.1006943E+00
          2   -1    0    0  501    0  0.00000000000E+00  0.00000000000E+00  0.32539908120E+03  0.32539908121E+03  0.25500000000E-02 0.  1.
         -2   -1    0    0    0  501 -0.00000000000E+00 -0.00000000000E+00 -0.21344114557E+03  0.21344114559E+03  0.25500000000E-02 0. -1.
    5000001    1    1    2    0    0  0.12106009971E+03 -0.13385626520E+03  0.51825670021E+02  0.26855715881E+03  0.19200000000E+03 0.  0.
   -5000001    1    1    2    0    0 -0.12106009971E+03  0.13385626520E+03  0.60132265603E+02  0.27028306799E+03  0.19200000000E+03 0.  0.
<mgrwt>
<rscale>  0 0.52708084E+03</rscale>
<asrwt>0</asrwt>
<pdfrwt beam="1">  1        2 0.46485583E-01 0.52708084E+03</pdfrwt>
<pdfrwt beam="2">  1       -2 0.30491593E-01 0.52708084E+03</pdfrwt>
<totfact> 0.10840645E+03</totfact>
</mgrwt>
</event>
<event>
 4    1  0.2058931E-005  0.4450465E+03  0.7818608E-02  0.1029210E+00
          2   -1    0    0  501    0  0.00000000000E+00  0.00000000000E+00  0.20907959778E+03  0.20907959780E+03  0.25500000000E-02 0.  1.
         -2   -1    0    0    0  501 -0.00000000000E+00 -0.00000000000E+00 -0.23683132727E+03  0.23683132728E+03  0.25500000000E-02 0. -1.
    5000001    1    1    2    0    0  0.64126297742E+01 -0.44429543430E+02  0.89462681670E+02  0.21652408079E+03  0.19200000000E+03 0.  0.
   -5000001    1    1    2    0    0 -0.64126297742E+01  0.44429543430E+02 -0.11721441115E+03  0.22938684429E+03  0.19200000000E+03 0.  0.
<mgrwt>
<rscale>  0 0.44504651E+03</rscale>
<asrwt>0</asrwt>
<pdfrwt beam="1">  1        2 0.29868514E-01 0.44504651E+03</pdfrwt>
<pdfrwt beam="2">  1       -2 0.33833047E-01 0.44504651E+03</pdfrwt>
<totfact> 0.14548489E+03</totfact>
</mgrwt>
</event>
<event>
 4    1  0.2058931E-005  0.5127306E+03  0.7818608E-02  0.1010508E+00
          2   -1    0    0  501    0  0.00000000000E+00  0.00000000000E+00  0.47913620873E+03  0.47913620873E+03  0.25500000000E-02 0.  1.
         -2   -1    0    0    0  501 -0.00000000000E+00 -0.00000000000E+00 -0.13717013263E+03  0.13717013266E+03  0.25500000000E-02 0. -1.
    5000001    1    1    2    0    0 -0.69835908376E+02 -0.15201684488E+03  0.13546777746E+03  0.28844703839E+03  0.19200000000E+03 0.  0.
   -5000001    1    1    2    0    0  0.69835908376E+02  0.15201684488E+03  0.20649829863E+03  0.32785930300E+03  0.19200000000E+03 0.  0.
<mgrwt>
<rscale>  0 0.51273064E+03</rscale>
<asrwt>0</asrwt>
<pdfrwt beam="1">  1        2 0.68448028E-01 0.51273064E+03</pdfrwt>
<pdfrwt beam="2">  1       -2 0.19595734E-01 0.51273064E+03</pdfrwt>
<totfact> 0.15552160E+03</totfact>
</mgrwt>
</event>
<event>
 4    1  0.2058931E-005  0.6316520E+03  0.7818608E-02  0.9841830E-01
         -2   -1    0    0    0  501 -0.00000000000E+00  0.00000000000E+00  0.36774237836E+02  0.36774237924E+02  0.25500000000E-02 0. -1.
          2   -1    0    0  501    0  0.00000000000E+00 -0.00000000000E+00 -0.27123899563E+04  0.27123899563E+04  0.25500000000E-02 0.  1.
    5000001    1    1    2    0    0  0.12461042056E+03 -0.21155454321E+03 -0.15596914751E+04  0.15905296536E+04  0.19200000000E+03 0.  0.
   -5000001    1    1    2    0    0 -0.12461042056E+03  0.21155454321E+03 -0.11159242434E+04  0.11586345406E+04  0.19200000000E+03 0.  0.
<mgrwt>
<rscale>  0 0.63165204E+03</rscale>
<asrwt>0</asrwt>
<pdfrwt beam="1">  1        2 0.38748415E+00 0.63165204E+03</pdfrwt>
<pdfrwt beam="2">  1       -2 0.52534643E-02 0.63165204E+03</pdfrwt>
<totfact> 0.68072844E+02</totfact>
</mgrwt>
</event>
<event>
 4    1  0.2058931E-005  0.7006177E+03  0.7818608E-02  0.9716176E-01
          2   -1    0    0  501    0  0.00000000000E+00  0.00000000000E+00  0.37067642777E+03  0.37067642778E+03  0.25500000000E-02 0.  1.
         -2   -1    0    0    0  501 -0.00000000000E+00 -0.00000000000E+00 -0.33106041231E+03  0.33106041232E+03  0.25500000000E-02 0. -1.
    5000001    1    1    2    0    0 -0.87105608940E+01 -0.24532553646E+03  0.18003791196E+03  0.35991407649E+03  0.19200000000E+03 0.  0.
   -5000001    1    1    2    0    0  0.87105608940E+01  0.24532553646E+03 -0.14042189650E+03  0.34182276362E+03  0.19200000000E+03 0.  0.
<mgrwt>
<rscale>  0 0.70061770E+03</rscale>
<asrwt>0</asrwt>
<pdfrwt beam="1">  1        2 0.52953776E-01 0.70061770E+03</pdfrwt>
<pdfrwt beam="2">  1       -2 0.47294344E-01 0.70061770E+03</pdfrwt>
<totfact> 0.40219288E+02</totfact>
</mgrwt>
</event>
<event>
 4    1  0.2058931E-005  0.8259405E+03  0.7818608E-02  0.9523210E-01
         -2   -1    0    0    0  501 -0.00000000000E+00  0.00000000000E+00  0.18214677711E+03  0.18214677713E+03  0.25500000000E-02 0.  1.
          2   -1    0    0  501    0  0.00000000000E+00 -0.00000000000E+00 -0.93630229882E+03  0.93630229882E+03  0.25500000000E-02 0. -1.
    5000001    1    1    2    0    0  0.25545490326E+03  0.26157815283E+03 -0.37752381740E+03  0.55952530805E+03  0.19200000000E+03 0.  0.
   -5000001    1    1    2    0    0 -0.25545490326E+03 -0.26157815283E+03 -0.37663170431E+03  0.55892376790E+03  0.19200000000E+03 0.  0.
<mgrwt>
<rscale>  0 0.82594055E+03</rscale>
<asrwt>0</asrwt>
<pdfrwt beam="1">  1        2 0.13375747E+00 0.82594055E+03</pdfrwt>
<pdfrwt beam="2">  1       -2 0.26020969E-01 0.82594055E+03</pdfrwt>
<totfact> 0.41129621E+02</totfact>
</mgrwt>
</event>
<event>
 4    1  0.2058931E-005  0.3971159E+03  0.7818608E-02  0.1044783E+00
         -2   -1    0    0    0  501 -0.00000000000E+00  0.00000000000E+00  0.26254844224E+03  0.26254844225E+03  0.25500000000E-02 0. -1.
          2   -1    0    0  501    0  0.00000000000E+00 -0.00000000000E+00 -0.15016373796E+03  0.15016373799E+03  0.25500000000E-02 0.  1.
    5000001    1    1    2    0    0  0.17993179707E+02  0.36815133361E+02  0.87059783844E+02  0.21476152943E+03  0.19200000000E+03 0.  0.
   -5000001    1    1    2    0    0 -0.17993179707E+02 -0.36815133361E+02  0.25324920430E+02  0.19795065081E+03  0.19200000000E+03 0.  0.
<mgrwt>
<rscale>  0 0.39711588E+03</rscale>
<asrwt>0</asrwt>
<pdfrwt beam="1">  1        2 0.21451963E-01 0.39711588E+03</pdfrwt>
<pdfrwt beam="2">  1       -2 0.37506920E-01 0.39711588E+03</pdfrwt>
<totfact> 0.17393602E+03</totfact>
</mgrwt>
</event>
<event>
 4    1  0.2058931E-005  0.8291434E+03  0.7818608E-02  0.9518766E-01
          2   -1    0    0  501    0  0.00000000000E+00  0.00000000000E+00  0.28898830550E+04  0.28898830550E+04  0.25500000000E-02 0.  1.
         -2   -1    0    0    0  501 -0.00000000000E+00 -0.00000000000E+00 -0.59472894526E+02  0.59472894581E+02  0.25500000000E-02 0. -1.
    5000001    1    1    2    0    0 -0.54921057559E+02 -0.35915067104E+03  0.16100420667E+04  0.16616573003E+04  0.19200000000E+03 0.  0.
   -5000001    1    1    2    0    0  0.54921057559E+02  0.35915067104E+03  0.12203680938E+04  0.12876986493E+04  0.19200000000E+03 0.  0.
<mgrwt>
<rscale>  0 0.82914344E+03</rscale>
<asrwt>0</asrwt>
<pdfrwt beam="1">  1        2 0.41284061E+00 0.82914344E+03</pdfrwt>
<pdfrwt beam="2">  1       -2 0.84961243E-02 0.82914344E+03</pdfrwt>
<totfact> 0.25146403E+02</totfact>
</mgrwt>
</event>
<event>
 4    1  0.2058931E-005  0.6171901E+03  0.7818608E-02  0.9870370E-01
         -2   -1    0    0    0  501 -0.00000000000E+00  0.00000000000E+00  0.28280361166E+03  0.28280361167E+03  0.25500000000E-02 0. -1.
          2   -1    0    0  501    0  0.00000000000E+00 -0.00000000000E+00 -0.33673865872E+03  0.33673865873E+03  0.25500000000E-02 0.  1.
    5000001    1    1    2    0    0  0.47210299772E+02 -0.23688366093E+03 -0.22026604769E+02  0.30934099718E+03  0.19200000000E+03 0.  0.
   -5000001    1    1    2    0    0 -0.47210299772E+02  0.23688366093E+03 -0.31908442286E+02  0.31020127322E+03  0.19200000000E+03 0.  0.
<mgrwt>
<rscale>  0 0.61719011E+03</rscale>
<asrwt>0</asrwt>
<pdfrwt beam="1">  1        2 0.48105522E-01 0.61719011E+03</pdfrwt>
<pdfrwt beam="2">  1       -2 0.40400516E-01 0.61719011E+03</pdfrwt>
<totfact> 0.61194680E+02</totfact>
</mgrwt>
</event>
<event>
 4    1  0.2058931E-005  0.5759704E+03  0.7818608E-02  0.9956553E-01
          2   -1    0    0  501    0  0.00000000000E+00  0.00000000000E+00  0.10581996222E+04  0.10581996222E+04  0.25500000000E-02 0.  1.
         -2   -1    0    0    0  501 -0.00000000000E+00 -0.00000000000E+00 -0.78374124238E+02  0.78374124280E+02  0.25500000000E-02 0. -1.
    5000001    1    1    2    0    0 -0.84244176145E+02 -0.18744097730E+03  0.36762633449E+03  0.46286534002E+03  0.19200000000E+03 0.  0.
   -5000001    1    1    2    0    0  0.84244176145E+02  0.18744097730E+03  0.61219916352E+03  0.67370840650E+03  0.19200000000E+03 0.  0.
<mgrwt>
<rscale>  0 0.57597038E+03</rscale>
<asrwt>0</asrwt>
<pdfrwt beam="1">  1        2 0.15117137E+00 0.57597038E+03</pdfrwt>
<pdfrwt beam="2">  1       -2 0.11196304E-01 0.57597038E+03</pdfrwt>
<totfact> 0.14843293E+03</totfact>
</mgrwt>
</event>
<event>
 4    1  0.2058931E-005  0.4695283E+03  0.7818608E-02  0.1022053E+00
          2   -1    0    0  501    0  0.00000000000E+00  0.00000000000E+00  0.11699473235E+04  0.11699473235E+04  0.25500000000E-02 0.  1.
         -2   -1    0    0    0  501 -0.00000000000E+00 -0.00000000000E+00 -0.47108274565E+02  0.47108274634E+02  0.25500000000E-02 0. -1.
    5000001    1    1    2    0    0 -0.65791576151E+02 -0.11788754160E+03  0.54866926874E+03  0.59676458543E+03  0.19200000000E+03 0.  0.
   -5000001    1    1    2    0    0  0.65791576151E+02  0.11788754160E+03  0.57416978016E+03  0.62029101268E+03  0.19200000000E+03 0.  0.
<mgrwt>
<rscale>  0 0.46952827E+03</rscale>
<asrwt>0</asrwt>
<pdfrwt beam="1">  1        2 0.16713535E+00 0.46952827E+03</pdfrwt>
<pdfrwt beam="2">  1       -2 0.67297528E-02 0.46952827E+03</pdfrwt>
<totfact> 0.28919097E+03</totfact>
</mgrwt>
</event>
<event>
 4    1  0.2058931E-005  0.9156064E+03  0.7818608E-02  0.9406280E-01
          2   -1    0    0  501    0  0.00000000000E+00  0.00000000000E+00  0.11167106792E+04  0.11167106792E+04  0.25500000000E-02 0.  1.
         -2   -1    0    0    0  501 -0.00000000000E+00 -0.00000000000E+00 -0.18767954307E+03  0.18767954309E+03  0.25500000000E-02 0. -1.
    5000001    1    1    2    0    0 -0.23928806429E+03 -0.19198135246E+03  0.65103276767E+02  0.36772007567E+03  0.19200000000E+03 0.  0.
   -5000001    1    1    2    0    0  0.23928806429E+03  0.19198135246E+03  0.86392785939E+03  0.93667014665E+03  0.19200000000E+03 0.  0.
<mgrwt>
<rscale>  0 0.91560636E+03</rscale>
<asrwt>0</asrwt>
<pdfrwt beam="1">  1        2 0.15953010E+00 0.91560636E+03</pdfrwt>
<pdfrwt beam="2">  1       -2 0.26811363E-01 0.91560636E+03</pdfrwt>
<totfact> 0.30113883E+02</totfact>
</mgrwt>
</event>
<event>
 4    1  0.2058931E-005  0.6036683E+03  0.7818608E-02  0.9897825E-01
         -2   -1    0    0    0  501 -0.00000000000E+00  0.00000000000E+00  0.51073947507E+02  0.51073947571E+02  0.25500000000E-02 0. -1.
          2   -1    0    0  501    0  0.00000000000E+00 -0.00000000000E+00 -0.17837635112E+04  0.17837635112E+04  0.25500000000E-02 0.  1.
    5000001    1    1    2    0    0 -0.20772290012E+03 -0.10231588921E+03 -0.94217962311E+03  0.98903174197E+03  0.19200000000E+03 0.  0.
   -5000001    1    1    2    0    0  0.20772290012E+03  0.10231588921E+03 -0.79050994058E+03  0.84580571680E+03  0.19200000000E+03 0.  0.
<mgrwt>
<rscale>  0 0.60366827E+03</rscale>
<asrwt>0</asrwt>
<pdfrwt beam="1">  1        2 0.25482332E+00 0.60366827E+03</pdfrwt>
<pdfrwt beam="2">  1       -2 0.72962793E-02 0.60366827E+03</pdfrwt>
<totfact> 0.12079230E+03</totfact>
</mgrwt>
</event>
<event>
 4    1  0.2058931E-005  0.7644352E+03  0.7818608E-02  0.9612972E-01
          2   -1    0    0  501    0  0.00000000000E+00  0.00000000000E+00  0.24312778504E+03  0.24312778506E+03  0.25500000000E-02 0.  1.
         -2   -1    0    0    0  501 -0.00000000000E+00 -0.00000000000E+00 -0.60087867058E+03  0.60087867059E+03  0.25500000000E-02 0. -1.
    5000001    1    1    2    0    0  0.22354583304E+03  0.13412464427E+03 -0.40315592656E+03  0.51706949319E+03  0.19200000000E+03 0.  0.
   -5000001    1    1    2    0    0 -0.22354583304E+03 -0.13412464427E+03  0.45405041021E+02  0.32693696245E+03  0.19200000000E+03 0.  0.
<mgrwt>
<rscale>  0 0.76443522E+03</rscale>
<asrwt>0</asrwt>
<pdfrwt beam="1">  1        2 0.34732541E-01 0.76443522E+03</pdfrwt>
<pdfrwt beam="2">  1       -2 0.85839809E-01 0.76443522E+03</pdfrwt>
<totfact> 0.17921423E+02</totfact>
</mgrwt>
</event>
<event>
 4    1  0.2058931E-005  0.4608957E+03  0.7818608E-02  0.1024522E+00
         -2   -1    0    0    0  501 -0.00000000000E+00  0.00000000000E+00  0.32233680296E+02  0.32233680397E+02  0.25500000000E-02 0. -1.
          2   -1    0    0  501    0  0.00000000000E+00 -0.00000000000E+00 -0.16475377570E+04  0.16475377570E+04  0.25500000000E-02 0.  1.
    5000001    1    1    2    0    0 -0.81131353861E+02  0.67390033781E+02 -0.54690548076E+03  0.58914626208E+03  0.19200000000E+03 0.  0.
   -5000001    1    1    2    0    0  0.81131353861E+02 -0.67390033781E+02 -0.10683985959E+04  0.10906251753E+04  0.19200000000E+03 0.  0.
<mgrwt>
<rscale>  0 0.46089567E+03</rscale>
<asrwt>0</asrwt>
<pdfrwt beam="1">  1        2 0.23536248E+00 0.46089567E+03</pdfrwt>
<pdfrwt beam="2">  1       -2 0.46048125E-02 0.46089567E+03</pdfrwt>
<totfact> 0.29152832E+03</totfact>
</mgrwt>
</event>
<event>
 4    1  0.2058931E-005  0.1241430E+04  0.7818608E-02  0.9077346E-01
          2   -1    0    0  501    0  0.00000000000E+00  0.00000000000E+00  0.15430879345E+04  0.15430879345E+04  0.25500000000E-02 0.  1.
         -2   -1    0    0    0  501 -0.00000000000E+00 -0.00000000000E+00 -0.24968572556E+03  0.24968572558E+03  0.25500000000E-02 0. -1.
    5000001    1    1    2    0    0  0.55754350480E+03 -0.10674308047E+03  0.88033715749E+03  0.10649442971E+04  0.19200000000E+03 0.  0.
   -5000001    1    1    2    0    0 -0.55754350480E+03  0.10674308047E+03  0.41306505149E+03  0.72782936306E+03  0.19200000000E+03 0.  0.
<mgrwt>
<rscale>  0 0.12414299E+04</rscale>
<asrwt>0</asrwt>
<pdfrwt beam="1">  1        2 0.22044113E+00 0.12414299E+04</pdfrwt>
<pdfrwt beam="2">  1       -2 0.35669390E-01 0.12414299E+04</pdfrwt>
<totfact> 0.10075360E+02</totfact>
</mgrwt>
</event>
<event>
 4    1  0.2058931E-005  0.9063869E+03  0.7818608E-02  0.9417632E-01
          2   -1    0    0  501    0  0.00000000000E+00  0.00000000000E+00  0.25719064439E+04  0.25719064439E+04  0.25500000000E-02 0.  1.
         -2   -1    0    0    0  501 -0.00000000000E+00 -0.00000000000E+00 -0.79856839823E+02  0.79856839864E+02  0.25500000000E-02 0. -1.
    5000001    1    1    2    0    0  0.33147827223E+03  0.23035021139E+03  0.10274565439E+04  0.11204775832E+04  0.19200000000E+03 0.  0.
   -5000001    1    1    2    0    0 -0.33147827223E+03 -0.23035021139E+03  0.14645930602E+04  0.15312857006E+04  0.19200000000E+03 0.  0.
<mgrwt>
<rscale>  0 0.90638694E+03</rscale>
<asrwt>0</asrwt>
<pdfrwt beam="1">  1        2 0.36741520E+00 0.90638694E+03</pdfrwt>
<pdfrwt beam="2">  1       -2 0.11408120E-01 0.90638694E+03</pdfrwt>
<totfact> 0.22795877E+02</totfact>
</mgrwt>
</event>
<event>
 4    1  0.2058931E-005  0.8060124E+03  0.7818608E-02  0.9551355E-01
         -2   -1    0    0    0  501 -0.00000000000E+00  0.00000000000E+00  0.83927346270E+02  0.83927346309E+02  0.25500000000E-02 0. -1.
          2   -1    0    0  501    0  0.00000000000E+00 -0.00000000000E+00 -0.19351735810E+04  0.19351735810E+04  0.25500000000E-02 0.  1.
    5000001    1    1    2    0    0 -0.10948476468E+03 -0.32747568891E+03 -0.72643240739E+03  0.82691915145E+03  0.19200000000E+03 0.  0.
   -5000001    1    1    2    0    0  0.10948476468E+03  0.32747568891E+03 -0.11248138273E+04  0.11921817758E+04  0.19200000000E+03 0.  0.
<mgrwt>
<rscale>  0 0.80601237E+03</rscale>
<asrwt>0</asrwt>
<pdfrwt beam="1">  1        2 0.27645334E+00 0.80601237E+03</pdfrwt>
<pdfrwt beam="2">  1       -2 0.11989622E-01 0.80601237E+03</pdfrwt>
<totfact> 0.44814719E+02</totfact>
</mgrwt>
</event>
<event>
 4    1  0.2058931E-005  0.5077771E+03  0.7818608E-02  0.1011769E+00
          2   -1    0    0  501    0  0.00000000000E+00  0.00000000000E+00  0.11119779965E+03  0.11119779968E+03  0.25500000000E-02 0.  1.
         -2   -1    0    0    0  501 -0.00000000000E+00 -0.00000000000E+00 -0.57968240325E+03  0.57968240326E+03  0.25500000000E-02 0. -1.
    5000001    1    1    2    0    0 -0.74057193414E+02 -0.14250631308E+03 -0.29201388675E+03  0.38461490769E+03  0.19200000000E+03 0.  0.
   -5000001    1    1    2    0    0  0.74057193414E+02  0.14250631308E+03 -0.17647071686E+03  0.30626529525E+03  0.19200000000E+03 0.  0.
<mgrwt>
<rscale>  0 0.50777715E+03</rscale>
<asrwt>0</asrwt>
<pdfrwt beam="1">  1        2 0.15885400E-01 0.50777715E+03</pdfrwt>
<pdfrwt beam="2">  1       -2 0.82811770E-01 0.50777715E+03</pdfrwt>
<totfact> 0.48252394E+02</totfact>
</mgrwt>
</event>
<event>
 4    1  0.2058931E-005  0.4086036E+03  0.7818608E-02  0.1040841E+00
         -2   -1    0    0    0  501 -0.00000000000E+00  0.00000000000E+00  0.18274516173E+02  0.18274516351E+02  0.25500000000E-02 0. -1.
          2   -1    0    0  501    0  0.00000000000E+00 -0.00000000000E+00 -0.22840121366E+04  0.22840121366E+04  0.25500000000E-02 0.  1.
    5000001    1    1    2    0    0 -0.63284075285E+02  0.15611883565E+02 -0.99182418163E+03  0.10123377956E+04  0.19200000000E+03 0.  0.
   -5000001    1    1    2    0    0  0.63284075285E+02 -0.15611883565E+02 -0.12739134388E+04  0.12899488574E+04  0.19200000000E+03 0.  0.
<mgrwt>
<rscale>  0 0.40860356E+03</rscale>
<asrwt>0</asrwt>
<pdfrwt beam="1">  1        2 0.32628727E+00 0.40860356E+03</pdfrwt>
<pdfrwt beam="2">  1       -2 0.26106466E-02 0.40860356E+03</pdfrwt>
<totfact> 0.33249139E+03</totfact>
</mgrwt>
</event>
<event>
 4    1  0.2058931E-005  0.5252628E+03  0.7818608E-02  0.1007387E+00
         -2   -1    0    0    0  501 -0.00000000000E+00  0.00000000000E+00  0.30640465905E+03  0.30640465906E+03  0.25500000000E-02 0.  1.
          2   -1    0    0  501    0  0.00000000000E+00 -0.00000000000E+00 -0.22511160722E+03  0.22511160724E+03  0.25500000000E-02 0. -1.
    5000001    1    1    2    0    0  0.14395010482E+03 -0.35592947420E+02 -0.61163205963E+02  0.25018678692E+03  0.19200000000E+03 0.  0.
   -5000001    1    1    2    0    0 -0.14395010482E+03  0.35592947420E+02  0.14245625779E+03  0.28132947938E+03  0.19200000000E+03 0.  0.
<mgrwt>
<rscale>  0 0.52526277E+03</rscale>
<asrwt>0</asrwt>
<pdfrwt beam="1">  1        2 0.32158801E-01 0.52526277E+03</pdfrwt>
<pdfrwt beam="2">  1       -2 0.43772094E-01 0.52526277E+03</pdfrwt>
<totfact> 0.81754563E+02</totfact>
</mgrwt>
</event>
<event>
 4    1  0.2058931E-005  0.6194871E+03  0.7818608E-02  0.9865781E-01
         -2   -1    0    0    0  501 -0.00000000000E+00  0.00000000000E+00  0.62359788621E+02  0.62359788673E+02  0.25500000000E-02 0. -1.
          2   -1    0    0  501    0  0.00000000000E+00 -0.00000000000E+00 -0.15385083873E+04  0.15385083873E+04  0.25500000000E-02 0.  1.
    5000001    1    1    2    0    0 -0.21722853905E+03  0.10351462362E+03 -0.82660068099E+03  0.88206360389E+03  0.19200000000E+03 0.  0.
   -5000001    1    1    2    0    0  0.21722853905E+03 -0.10351462362E+03 -0.64954791768E+03  0.71880457208E+03  0.19200000000E+03 0.  0.
<mgrwt>
<rscale>  0 0.61948707E+03</rscale>
<asrwt>0</asrwt>
<pdfrwt beam="1">  1        2 0.21978689E+00 0.61948707E+03</pdfrwt>
<pdfrwt beam="2">  1       -2 0.89085422E-02 0.61948707E+03</pdfrwt>
<totfact> 0.11716529E+03</totfact>
</mgrwt>
</event>
<event>
 4    1  0.2058931E-005  0.6397835E+03  0.7818608E-02  0.9826141E-01
          2   -1    0    0  501    0  0.00000000000E+00  0.00000000000E+00  0.12054351545E+04  0.12054351545E+04  0.25500000000E-02 0.  1.
         -2   -1    0    0    0  501 -0.00000000000E+00 -0.00000000000E+00 -0.84891112362E+02  0.84891112400E+02  0.25500000000E-02 0. -1.
    5000001    1    1    2    0    0 -0.82745932929E+02  0.22845325784E+03  0.39856214180E+03  0.50473117727E+03  0.19200000000E+03 0.  0.
   -5000001    1    1    2    0    0  0.82745932929E+02 -0.22845325784E+03  0.72198190032E+03  0.78559508961E+03  0.19200000000E+03 0.  0.
<mgrwt>
<rscale>  0 0.63978350E+03</rscale>
<asrwt>0</asrwt>
<pdfrwt beam="1">  1        2 0.17220501E+00 0.63978350E+03</pdfrwt>
<pdfrwt beam="2">  1       -2 0.12127303E-01 0.63978350E+03</pdfrwt>
<totfact> 0.10694843E+03</totfact>
</mgrwt>
</event>
<event>
 4    1  0.2058931E-005  0.4452529E+03  0.7818608E-02  0.1029147E+00
         -2   -1    0    0    0  501 -0.00000000000E+00  0.00000000000E+00  0.20378750716E+02  0.20378750876E+02  0.25500000000E-02 0. -1.
          2   -1    0    0  501    0  0.00000000000E+00 -0.00000000000E+00 -0.24320694612E+04  0.24320694612E+04  0.25500000000E-02 0.  1.
    5000001    1    1    2    0    0 -0.74053559256E+02 -0.84032082595E+02 -0.12740237009E+04  0.12932693884E+04  0.19200000000E+03 0.  0.
   -5000001    1    1    2    0    0  0.74053559256E+02  0.84032082595E+02 -0.11376670096E+04  0.11591788236E+04  0.19200000000E+03 0.  0.
<mgrwt>
<rscale>  0 0.44525291E+03</rscale>
<asrwt>0</asrwt>
<pdfrwt beam="1">  1        2 0.34743831E+00 0.44525291E+03</pdfrwt>
<pdfrwt beam="2">  1       -2 0.29112517E-02 0.44525291E+03</pdfrwt>
<totfact> 0.23746730E+03</totfact>
</mgrwt>
</event>
<event>
 4    1  0.2058931E-005  0.4217167E+03  0.7818608E-02  0.1036509E+00
          2   -1    0    0  501    0  0.00000000000E+00  0.00000000000E+00  0.10340888471E+04  0.10340888472E+04  0.25500000000E-02 0.  1.
         -2   -1    0    0    0  501 -0.00000000000E+00 -0.00000000000E+00 -0.42995579895E+02  0.42995579971E+02  0.25500000000E-02 0. -1.
    5000001    1    1    2    0    0  0.69229848571E+02  0.44275569164E+02  0.56975265994E+03  0.60682385539E+03  0.19200000000E+03 0.  0.
   -5000001    1    1    2    0    0 -0.69229848571E+02 -0.44275569164E+02  0.42134060731E+03  0.47026057173E+03  0.19200000000E+03 0.  0.
<mgrwt>
<rscale>  0 0.42171673E+03</rscale>
<asrwt>0</asrwt>
<pdfrwt beam="1">  1        2 0.14772698E+00 0.42171673E+03</pdfrwt>
<pdfrwt beam="2">  1       -2 0.61422256E-02 0.42171673E+03</pdfrwt>
<totfact> 0.39905955E+03</totfact>
</mgrwt>
</event>
<event>
 4    1  0.2058931E-005  0.5934744E+03  0.7818608E-02  0.9919038E-01
          2   -1    0    0  501    0  0.00000000000E+00  0.00000000000E+00  0.11702000267E+04  0.11702000267E+04  0.25500000000E-02 0.  1.
         -2   -1    0    0    0  501 -0.00000000000E+00 -0.00000000000E+00 -0.75246070031E+02  0.75246070075E+02  0.25500000000E-02 0. -1.
    5000001    1    1    2    0    0  0.65878877320E+02 -0.14622188723E+03  0.21257236160E+03  0.32828627096E+03  0.19200000000E+03 0.  0.
   -5000001    1    1    2    0    0 -0.65878877320E+02  0.14622188723E+03  0.88238159504E+03  0.91715982580E+03  0.19200000000E+03 0.  0.
<mgrwt>
<rscale>  0 0.59347436E+03</rscale>
<asrwt>0</asrwt>
<pdfrwt beam="1">  1        2 0.16717144E+00 0.59347436E+03</pdfrwt>
<pdfrwt beam="2">  1       -2 0.10749438E-01 0.59347436E+03</pdfrwt>
<totfact> 0.13661184E+03</totfact>
</mgrwt>
</event>
<event>
 4    1  0.2058931E-005  0.5524181E+03  0.7818608E-02  0.1000936E+00
          2   -1    0    0  501    0  0.00000000000E+00  0.00000000000E+00  0.25883709508E+03  0.25883709510E+03  0.25500000000E-02 0. -1.
         -2   -1    0    0    0  501 -0.00000000000E+00 -0.00000000000E+00 -0.29474692818E+03  0.29474692819E+03  0.25500000000E-02 0.  1.
    5000001    1    1    2    0    0  0.14185891812E+03 -0.13568299668E+03 -0.47911326651E+02  0.27873522106E+03  0.19200000000E+03 0.  0.
   -5000001    1    1    2    0    0 -0.14185891812E+03  0.13568299668E+03  0.12001493558E+02  0.27484880222E+03  0.19200000000E+03 0.  0.
<mgrwt>
<rscale>  0 0.55241810E+03</rscale>
<asrwt>0</asrwt>
<pdfrwt beam="1">  1        2 0.36976728E-01 0.55241810E+03</pdfrwt>
<pdfrwt beam="2">  1       -2 0.42106704E-01 0.55241810E+03</pdfrwt>
<totfact> 0.75540857E+02</totfact>
</mgrwt>
</event>
<event>
 4    1  0.2058931E-005  0.5292162E+03  0.7818608E-02  0.1006422E+00
          2   -1    0    0  501    0  0.00000000000E+00  0.00000000000E+00  0.41045883540E+03  0.41045883540E+03  0.25500000000E-02 0.  1.
         -2   -1    0    0    0  501 -0.00000000000E+00 -0.00000000000E+00 -0.17058338567E+03  0.17058338569E+03  0.25500000000E-02 0. -1.
    5000001    1    1    2    0    0 -0.16509477293E+03  0.66800857828E+02  0.78349238702E+02  0.27335186456E+03  0.19200000000E+03 0.  0.
   -5000001    1    1    2    0    0  0.16509477293E+03 -0.66800857828E+02  0.16152621102E+03  0.30769035653E+03  0.19200000000E+03 0.  0.
<mgrwt>
<rscale>  0 0.52921624E+03</rscale>
<asrwt>0</asrwt>
<pdfrwt beam="1">  1        2 0.58636976E-01 0.52921624E+03</pdfrwt>
<pdfrwt beam="2">  1       -2 0.24369055E-01 0.52921624E+03</pdfrwt>
<totfact> 0.12602121E+03</totfact>
</mgrwt>
</event>
<event>
 4    1  0.2058931E-005  0.6368080E+03  0.7818608E-02  0.9831853E-01
          2   -1    0    0  501    0  0.00000000000E+00  0.00000000000E+00  0.78526620091E+03  0.78526620091E+03  0.25500000000E-02 0.  1.
         -2   -1    0    0    0  501 -0.00000000000E+00 -0.00000000000E+00 -0.12910414204E+03  0.12910414206E+03  0.25500000000E-02 0. -1.
    5000001    1    1    2    0    0 -0.23886054202E+03  0.42705272238E+02  0.43590502616E+03  0.53456083905E+03  0.19200000000E+03 0.  0.
   -5000001    1    1    2    0    0  0.23886054202E+03 -0.42705272238E+02  0.22025703271E+03  0.37980950392E+03  0.19200000000E+03 0.  0.
<mgrwt>
<rscale>  0 0.63680804E+03</rscale>
<asrwt>0</asrwt>
<pdfrwt beam="1">  1        2 0.11218088E+00 0.63680804E+03</pdfrwt>
<pdfrwt beam="2">  1       -2 0.18443450E-01 0.63680804E+03</pdfrwt>
<totfact> 0.95985385E+02</totfact>
</mgrwt>
</event>
<event>
 4    1  0.2058931E-005  0.5411502E+03  0.7818608E-02  0.1003563E+00
          2   -1    0    0  501    0  0.00000000000E+00  0.00000000000E+00  0.33377707100E+04  0.33377707101E+04  0.25500000000E-02 0.  1.
         -2   -1    0    0    0  501 -0.00000000000E+00 -0.00000000000E+00 -0.21934064133E+02  0.21934064281E+02  0.25500000000E-02 0. -1.
    5000001    1    1    2    0    0 -0.17444641061E+03  0.99480938352E+01  0.21314063942E+04  0.21471580593E+04  0.19200000000E+03 0.  0.
   -5000001    1    1    2    0    0  0.17444641061E+03 -0.99480938352E+01  0.11844302518E+04  0.12125467150E+04  0.19200000000E+03 0.  0.
<mgrwt>
<rscale>  0 0.54115017E+03</rscale>
<asrwt>0</asrwt>
<pdfrwt beam="1">  1        2 0.47682450E+00 0.54115017E+03</pdfrwt>
<pdfrwt beam="2">  1       -2 0.31334370E-02 0.54115017E+03</pdfrwt>
<totfact> 0.69132913E+02</totfact>
</mgrwt>
</event>
<event>
 4    1  0.2058931E-005  0.6803795E+03  0.7818608E-02  0.9751387E-01
          2   -1    0    0  501    0  0.00000000000E+00  0.00000000000E+00  0.47388261716E+03  0.47388261717E+03  0.25500000000E-02 0.  1.
         -2   -1    0    0    0  501 -0.00000000000E+00 -0.00000000000E+00 -0.24421465418E+03  0.24421465419E+03  0.25500000000E-02 0. -1.
    5000001    1    1    2    0    0 -0.27407019206E+03  0.60266766516E+02  0.10334347589E+03  0.35537364467E+03  0.19200000000E+03 0.  0.
   -5000001    1    1    2    0    0  0.27407019206E+03 -0.60266766516E+02  0.12632448710E+03  0.36272362669E+03  0.19200000000E+03 0.  0.
<mgrwt>
<rscale>  0 0.68037954E+03</rscale>
<asrwt>0</asrwt>
<pdfrwt beam="1">  1        2 0.67697516E-01 0.68037954E+03</pdfrwt>
<pdfrwt beam="2">  1       -2 0.34887808E-01 0.68037954E+03</pdfrwt>
<totfact> 0.55336885E+02</totfact>
</mgrwt>
</event>
<event>
 4    1  0.2058931E-005  0.6514265E+03  0.7818608E-02  0.9804106E-01
         -2   -1    0    0    0  501 -0.00000000000E+00  0.00000000000E+00  0.62446486310E+02  0.62446486362E+02  0.25500000000E-02 0. -1.
          2   -1    0    0  501    0  0.00000000000E+00 -0.00000000000E+00 -0.16988803049E+04  0.16988803049E+04  0.25500000000E-02 0.  1.
    5000001    1    1    2    0    0  0.17272510692E+03  0.19697258921E+03 -0.88405553612E+03  0.94183350673E+03  0.19200000000E+03 0.  0.
   -5000001    1    1    2    0    0 -0.17272510692E+03 -0.19697258921E+03 -0.75237828251E+03  0.81949328457E+03  0.19200000000E+03 0.  0.
<mgrwt>
<rscale>  0 0.65142645E+03</rscale>
<asrwt>0</asrwt>
<pdfrwt beam="1">  1        2 0.24269716E+00 0.65142645E+03</pdfrwt>
<pdfrwt beam="2">  1       -2 0.89209277E-02 0.65142645E+03</pdfrwt>
<totfact> 0.96556817E+02</totfact>
</mgrwt>
</event>
<event>
 4    1  0.2058931E-005  0.7679304E+03  0.7818608E-02  0.9607633E-01
         -2   -1    0    0    0  501 -0.00000000000E+00  0.00000000000E+00  0.54526447032E+02  0.54526447091E+02  0.25500000000E-02 0. -1.
          2   -1    0    0  501    0  0.00000000000E+00 -0.00000000000E+00 -0.27038122225E+04  0.27038122225E+04  0.25500000000E-02 0.  1.
    5000001    1    1    2    0    0 -0.17387827125E+02  0.32794978178E+03 -0.15116942227E+04  0.15588254613E+04  0.19200000000E+03 0.  0.
   -5000001    1    1    2    0    0  0.17387827125E+02 -0.32794978178E+03 -0.11375915528E+04  0.11995132083E+04  0.19200000000E+03 0.  0.
<mgrwt>
<rscale>  0 0.76793040E+03</rscale>
<asrwt>0</asrwt>
<pdfrwt beam="1">  1        2 0.38625881E+00 0.76793040E+03</pdfrwt>
<pdfrwt beam="2">  1       -2 0.77894941E-02 0.76793040E+03</pdfrwt>
<totfact> 0.36533488E+02</totfact>
</mgrwt>
</event>
<event>
 4    1  0.2058931E-005  0.6412585E+03  0.7818608E-02  0.9823322E-01
         -2   -1    0    0    0  501 -0.00000000000E+00  0.00000000000E+00  0.30096002848E+03  0.30096002849E+03  0.25500000000E-02 0. -1.
          2   -1    0    0  501    0  0.00000000000E+00 -0.00000000000E+00 -0.34158390092E+03  0.34158390093E+03  0.25500000000E-02 0.  1.
    5000001    1    1    2    0    0  0.12465442090E+03 -0.18339485304E+03 -0.15005781396E+03  0.32947495246E+03  0.19200000000E+03 0.  0.
   -5000001    1    1    2    0    0 -0.12465442090E+03  0.18339485304E+03  0.10943394152E+03  0.31306897695E+03  0.19200000000E+03 0.  0.
<mgrwt>
<rscale>  0 0.64125845E+03</rscale>
<asrwt>0</asrwt>
<pdfrwt beam="1">  1        2 0.48797700E-01 0.64125845E+03</pdfrwt>
<pdfrwt beam="2">  1       -2 0.42994290E-01 0.64125845E+03</pdfrwt>
<totfact> 0.53303397E+02</totfact>
</mgrwt>
</event>
<event>
 4    1  0.2058931E-005  0.5250449E+03  0.7818608E-02  0.1007441E+00
          2   -1    0    0  501    0  0.00000000000E+00  0.00000000000E+00  0.35945309035E+03  0.35945309036E+03  0.25500000000E-02 0.  1.
         -2   -1    0    0    0  501 -0.00000000000E+00 -0.00000000000E+00 -0.19173028919E+03  0.19173028921E+03  0.25500000000E-02 0. -1.
    5000001    1    1    2    0    0  0.10079852588E+03 -0.10494231383E+03  0.19336548410E+03  0.30891332521E+03  0.19200000000E+03 0.  0.
   -5000001    1    1    2    0    0 -0.10079852588E+03  0.10494231383E+03 -0.25642682935E+02  0.24227005436E+03  0.19200000000E+03 0.  0.
<mgrwt>
<rscale>  0 0.52504493E+03</rscale>
<asrwt>0</asrwt>
<pdfrwt beam="1">  1        2 0.51350441E-01 0.52504493E+03</pdfrwt>
<pdfrwt beam="2">  1       -2 0.27390041E-01 0.52504493E+03</pdfrwt>
<totfact> 0.11825310E+03</totfact>
</mgrwt>
</event>
<event>
 4    1  0.2058931E-005  0.4852203E+03  0.7818608E-02  0.1017710E+00
          2   -1    0    0  501    0  0.00000000000E+00  0.00000000000E+00  0.20507590619E+03  0.20507590621E+03  0.25500000000E-02 0.  1.
         -2   -1    0    0    0  501 -0.00000000000E+00 -0.00000000000E+00 -0.28701411226E+03  0.28701411227E+03  0.25500000000E-02 0. -1.
    5000001    1    1    2    0    0  0.12894805014E+03 -0.24646277273E+02  0.29005156381E+02  0.23439355306E+03  0.19200000000E+03 0.  0.
   -5000001    1    1    2    0    0 -0.12894805014E+03  0.24646277273E+02 -0.11094336245E+03  0.25769646542E+03  0.19200000000E+03 0.  0.
<mgrwt>
<rscale>  0 0.48522028E+03</rscale>
<asrwt>0</asrwt>
<pdfrwt beam="1">  1        2 0.29296558E-01 0.48522028E+03</pdfrwt>
<pdfrwt beam="2">  1       -2 0.41002016E-01 0.48522028E+03</pdfrwt>
<totfact> 0.10309839E+03</totfact>
</mgrwt>
</event>
<event>
 4    1  0.2058931E-005  0.9232914E+03  0.7818608E-02  0.9396925E-01
          2   -1    0    0  501    0  0.00000000000E+00  0.00000000000E+00  0.11371581394E+04  0.11371581394E+04  0.25500000000E-02 0.  1.
         -2   -1    0    0    0  501 -0.00000000000E+00 -0.00000000000E+00 -0.18741169317E+03  0.18741169319E+03  0.25500000000E-02 0. -1.
    5000001    1    1    2    0    0 -0.40463808556E+02  0.18691292490E+03  0.10110421030E+04  0.10467300967E+04  0.19200000000E+03 0.  0.
   -5000001    1    1    2    0    0  0.40463808556E+02 -0.18691292490E+03 -0.61295656777E+02  0.27783973588E+03  0.19200000000E+03 0.  0.
<mgrwt>
<rscale>  0 0.92329136E+03</rscale>
<asrwt>0</asrwt>
<pdfrwt beam="1">  1        2 0.16245116E+00 0.92329136E+03</pdfrwt>
<pdfrwt beam="2">  1       -2 0.26773099E-01 0.92329136E+03</pdfrwt>
<totfact> 0.29363532E+02</totfact>
</mgrwt>
</event>
<event>
 4    1  0.2058931E-005  0.2791453E+04  0.7818608E-02  0.8305927E-01
          2   -1    0    0  501    0  0.00000000000E+00  0.00000000000E+00  0.19768948730E+04  0.19768948731E+04  0.25500000000E-02 0.  1.
         -2   -1    0    0    0  501 -0.00000000000E+00 -0.00000000000E+00 -0.98541030347E+03  0.98541030348E+03  0.25500000000E-02 0. -1.
    5000001    1    1    2    0    0  0.10828384396E+04  0.85938179160E+03  0.50699440844E+03  0.14849186780E+04  0.19200000000E+03 0.  0.
   -5000001    1    1    2    0    0 -0.10828384396E+04 -0.85938179160E+03  0.48449016113E+03  0.14773864986E+04  0.19200000000E+03 0.  0.
<mgrwt>
<rscale>  0 0.27914531E+04</rscale>
<asrwt>0</asrwt>
<pdfrwt beam="1">  1        2 0.28241355E+00 0.27914531E+04</pdfrwt>
<pdfrwt beam="2">  1       -2 0.14077290E+00 0.27914531E+04</pdfrwt>
<totfact> 0.25608948E+00</totfact>
</mgrwt>
</event>
<event>
 4    1  0.2058931E-005  0.4937128E+03  0.7818608E-02  0.1015433E+00
         -2   -1    0    0    0  501 -0.00000000000E+00  0.00000000000E+00  0.57943079590E+02  0.57943079646E+02  0.25500000000E-02 0. -1.
          2   -1    0    0  501    0  0.00000000000E+00 -0.00000000000E+00 -0.10516887884E+04  0.10516887884E+04  0.25500000000E-02 0.  1.
    5000001    1    1    2    0    0  0.12768753765E+03  0.63465339375E+02 -0.35938510969E+03  0.43168693939E+03  0.19200000000E+03 0.  0.
   -5000001    1    1    2    0    0 -0.12768753765E+03 -0.63465339375E+02 -0.63436059910E+03  0.67794492863E+03  0.19200000000E+03 0.  0.
<mgrwt>
<rscale>  0 0.49371282E+03</rscale>
<asrwt>0</asrwt>
<pdfrwt beam="1">  1        2 0.15024124E+00 0.49371282E+03</pdfrwt>
<pdfrwt beam="2">  1       -2 0.82775834E-02 0.49371282E+03</pdfrwt>
<totfact> 0.24390563E+03</totfact>
</mgrwt>
</event>
<event>
 4    1  0.2058931E-005  0.4111726E+03  0.7818608E-02  0.1039978E+00
          2   -1    0    0  501    0  0.00000000000E+00  0.00000000000E+00  0.63438457525E+03  0.63438457526E+03  0.25500000000E-02 0.  1.
         -2   -1    0    0    0  501 -0.00000000000E+00 -0.00000000000E+00 -0.66624782514E+02  0.66624782563E+02  0.25500000000E-02 0. -1.
    5000001    1    1    2    0    0 -0.69286560704E+02 -0.23599746699E+02  0.29520933587E+03  0.35968059097E+03  0.19200000000E+03 0.  0.
   -5000001    1    1    2    0    0  0.69286560704E+02  0.23599746699E+02  0.27255045687E+03  0.34132876685E+03  0.19200000000E+03 0.  0.
<mgrwt>
<rscale>  0 0.41117264E+03</rscale>
<asrwt>0</asrwt>
<pdfrwt beam="1">  1        2 0.90626375E-01 0.41117264E+03</pdfrwt>
<pdfrwt beam="2">  1       -2 0.95178253E-02 0.41117264E+03</pdfrwt>
<totfact> 0.37288463E+03</totfact>
</mgrwt>
</event>
<event>
 4    1  0.2058931E-005  0.4354355E+03  0.7818608E-02  0.1032157E+00
         -2   -1    0    0    0  501 -0.00000000000E+00  0.00000000000E+00  0.17357428913E+03  0.17357428915E+03  0.25500000000E-02 0. -1.
          2   -1    0    0  501    0  0.00000000000E+00 -0.00000000000E+00 -0.27308783422E+03  0.27308783423E+03  0.25500000000E-02 0.  1.
    5000001    1    1    2    0    0  0.25403292184E+02  0.56175201363E+02  0.34432699264E+02  0.20457417061E+03  0.19200000000E+03 0.  0.
   -5000001    1    1    2    0    0 -0.25403292184E+02 -0.56175201363E+02 -0.13394624435E+03  0.24208795277E+03  0.19200000000E+03 0.  0.
<mgrwt>
<rscale>  0 0.43543554E+03</rscale>
<asrwt>0</asrwt>
<pdfrwt beam="1">  1        2 0.39012548E-01 0.43543554E+03</pdfrwt>
<pdfrwt beam="2">  1       -2 0.24796327E-01 0.43543554E+03</pdfrwt>
<totfact> 0.19096446E+03</totfact>
</mgrwt>
</event>
<event>
 4    1  0.2058931E-005  0.6546378E+03  0.7818608E-02  0.9798115E-01
          2   -1    0    0  501    0  0.00000000000E+00  0.00000000000E+00  0.14888674188E+03  0.14888674190E+03  0.25500000000E-02 0.  1.
         -2   -1    0    0    0  501 -0.00000000000E+00 -0.00000000000E+00 -0.71959174045E+03  0.71959174045E+03  0.25500000000E-02 0. -1.
    5000001    1    1    2    0    0 -0.26048967044E+03  0.16880790620E+01 -0.22014431702E+03  0.39138885821E+03  0.19200000000E+03 0.  0.
   -5000001    1    1    2    0    0  0.26048967044E+03 -0.16880790620E+01 -0.35056068155E+03  0.47708962414E+03  0.19200000000E+03 0.  0.
<mgrwt>
<rscale>  0 0.65463782E+03</rscale>
<asrwt>0</asrwt>
<pdfrwt beam="1">  1        2 0.21269535E-01 0.65463782E+03</pdfrwt>
<pdfrwt beam="2">  1       -2 0.10279882E+00 0.65463782E+03</pdfrwt>
<totfact> 0.20672082E+02</totfact>
</mgrwt>
</event>
<event>
 4    1  0.2058931E-005  0.1091768E+04  0.7818608E-02  0.9213253E-01
         -2   -1    0    0    0  501 -0.00000000000E+00  0.00000000000E+00  0.21046962965E+03  0.21046962967E+03  0.25500000000E-02 0. -1.
          2   -1    0    0  501    0  0.00000000000E+00 -0.00000000000E+00 -0.14158303673E+04  0.14158303673E+04  0.25500000000E-02 0.  1.
    5000001    1    1    2    0    0  0.50343157732E+02  0.49320928368E+03 -0.78714740412E+03  0.94987097379E+03  0.19200000000E+03 0.  0.
   -5000001    1    1    2    0    0 -0.50343157732E+02 -0.49320928368E+03 -0.41821333349E+03  0.67642902314E+03  0.19200000000E+03 0.  0.
<mgrwt>
<rscale>  0 0.10917679E+04</rscale>
<asrwt>0</asrwt>
<pdfrwt beam="1">  1        2 0.20226148E+00 0.10917679E+04</pdfrwt>
<pdfrwt beam="2">  1       -2 0.30067091E-01 0.10917679E+04</pdfrwt>
<totfact> 0.16423573E+02</totfact>
</mgrwt>
</event>
<event>
 4    1  0.2058931E-005  0.4725649E+03  0.7818608E-02  0.1021199E+00
          2   -1    0    0  501    0  0.00000000000E+00  0.00000000000E+00  0.63745182453E+03  0.63745182454E+03  0.25500000000E-02 0.  1.
         -2   -1    0    0    0  501 -0.00000000000E+00 -0.00000000000E+00 -0.87582157272E+02  0.87582157309E+02  0.25500000000E-02 0. -1.
    5000001    1    1    2    0    0  0.13272316647E+03  0.12720655305E+02  0.22204979082E+03  0.32240869031E+03  0.19200000000E+03 0.  0.
   -5000001    1    1    2    0    0 -0.13272316647E+03 -0.12720655305E+02  0.32781987644E+03  0.40262529153E+03  0.19200000000E+03 0.  0.
<mgrwt>
<rscale>  0 0.47256494E+03</rscale>
<asrwt>0</asrwt>
<pdfrwt beam="1">  1        2 0.91064544E-01 0.47256494E+03</pdfrwt>
<pdfrwt beam="2">  1       -2 0.12511737E-01 0.47256494E+03</pdfrwt>
<totfact> 0.23834828E+03</totfact>
</mgrwt>
</event>
<event>
 4    1  0.2058931E-005  0.5928944E+03  0.7818608E-02  0.9920259E-01
          2   -1    0    0  501    0  0.00000000000E+00  0.00000000000E+00  0.60280706821E+03  0.60280706822E+03  0.25500000000E-02 0.  1.
         -2   -1    0    0    0  501 -0.00000000000E+00 -0.00000000000E+00 -0.14578617971E+03  0.14578617973E+03  0.25500000000E-02 0. -1.
    5000001    1    1    2    0    0  0.68849219552E+02  0.15696134295E+03  0.42774567027E+02  0.26090370216E+03  0.19200000000E+03 0.  0.
   -5000001    1    1    2    0    0 -0.68849219552E+02 -0.15696134295E+03  0.41424632148E+03  0.48768954579E+03  0.19200000000E+03 0.  0.
<mgrwt>
<rscale>  0 0.59289439E+03</rscale>
<asrwt>0</asrwt>
<pdfrwt beam="1">  1        2 0.86115295E-01 0.59289439E+03</pdfrwt>
<pdfrwt beam="2">  1       -2 0.20826597E-01 0.59289439E+03</pdfrwt>
<totfact> 0.10739502E+03</totfact>
</mgrwt>
</event>
<event>
 4    1  0.2058931E-005  0.4701974E+03  0.7818608E-02  0.1021865E+00
         -2   -1    0    0    0  501 -0.00000000000E+00  0.00000000000E+00  0.14733504651E+03  0.14733504654E+03  0.25500000000E-02 0. -1.
          2   -1    0    0  501    0  0.00000000000E+00 -0.00000000000E+00 -0.37514082165E+03  0.37514082166E+03  0.25500000000E-02 0.  1.
    5000001    1    1    2    0    0 -0.64220164891E+02  0.11739686620E+03 -0.89027828249E+02  0.25039210845E+03  0.19200000000E+03 0.  0.
   -5000001    1    1    2    0    0  0.64220164891E+02 -0.11739686620E+03 -0.13877794689E+03  0.27208375974E+03  0.19200000000E+03 0.  0.
<mgrwt>
<rscale>  0 0.47019736E+03</rscale>
<asrwt>0</asrwt>
<pdfrwt beam="1">  1        2 0.53591546E-01 0.47019736E+03</pdfrwt>
<pdfrwt beam="2">  1       -2 0.21047864E-01 0.47019736E+03</pdfrwt>
<totfact> 0.18015634E+03</totfact>
</mgrwt>
</event>
<event>
 4    1  0.2058931E-005  0.9910381E+03  0.7818608E-02  0.9318429E-01
          2   -1    0    0  501    0  0.00000000000E+00  0.00000000000E+00  0.20815509877E+03  0.20815509878E+03  0.25500000000E-02 0.  1.
         -2   -1    0    0    0  501 -0.00000000000E+00 -0.00000000000E+00 -0.11795970150E+04  0.11795970150E+04  0.25500000000E-02 0. -1.
    5000001    1    1    2    0    0  0.44014797436E+03  0.45720624731E+02 -0.32695790349E+03  0.58274015265E+03  0.19200000000E+03 0.  0.
   -5000001    1    1    2    0    0 -0.44014797436E+03 -0.45720624731E+02 -0.64448401271E+03  0.80501196109E+03  0.19200000000E+03 0.  0.
<mgrwt>
<rscale>  0 0.99103811E+03</rscale>
<asrwt>0</asrwt>
<pdfrwt beam="1">  1        2 0.29736443E-01 0.99103811E+03</pdfrwt>
<pdfrwt beam="2">  1       -2 0.16851386E+00 0.99103811E+03</pdfrwt>
<totfact> 0.39236910E+01</totfact>
</mgrwt>
</event>
<event>
 4    1  0.2058931E-005  0.7237856E+03  0.7818608E-02  0.9677399E-01
          2   -1    0    0  501    0  0.00000000000E+00  0.00000000000E+00  0.24619147636E+04  0.24619147636E+04  0.25500000000E-02 0.  1.
         -2   -1    0    0    0  501 -0.00000000000E+00 -0.00000000000E+00 -0.53196970624E+02  0.53196970685E+02  0.25500000000E-02 0. -1.
    5000001    1    1    2    0    0  0.36678462538E+02 -0.29223518874E+03  0.90632949749E+03  0.97213367042E+03  0.19200000000E+03 0.  0.
   -5000001    1    1    2    0    0 -0.36678462538E+02  0.29223518874E+03  0.15023882955E+04  0.15429780639E+04  0.19200000000E+03 0.  0.
<mgrwt>
<rscale>  0 0.72378562E+03</rscale>
<asrwt>0</asrwt>
<pdfrwt beam="1">  1        2 0.35170211E+00 0.72378562E+03</pdfrwt>
<pdfrwt beam="2">  1       -2 0.75995673E-02 0.72378562E+03</pdfrwt>
<totfact> 0.50968621E+02</totfact>
</mgrwt>
</event>
<event>
 4    1  0.2058931E-005  0.8151368E+03  0.7818608E-02  0.9538362E-01
          2   -1    0    0  501    0  0.00000000000E+00  0.00000000000E+00  0.69147261322E+03  0.69147261323E+03  0.25500000000E-02 0.  1.
         -2   -1    0    0    0  501 -0.00000000000E+00 -0.00000000000E+00 -0.24022933488E+03  0.24022933489E+03  0.25500000000E-02 0. -1.
    5000001    1    1    2    0    0  0.30309958554E+03  0.10874667133E+03  0.42910166428E+02  0.37735988083E+03  0.19200000000E+03 0.  0.
   -5000001    1    1    2    0    0 -0.30309958554E+03 -0.10874667133E+03  0.40833311191E+03  0.55434206729E+03  0.19200000000E+03 0.  0.
<mgrwt>
<rscale>  0 0.81513681E+03</rscale>
<asrwt>0</asrwt>
<pdfrwt beam="1">  1        2 0.98781801E-01 0.81513681E+03</pdfrwt>
<pdfrwt beam="2">  1       -2 0.34318477E-01 0.81513681E+03</pdfrwt>
<totfact> 0.36463346E+02</totfact>
</mgrwt>
</event>
<event>
 4    1  0.2058931E-005  0.5626331E+03  0.7818608E-02  0.9986114E-01
         -2   -1    0    0    0  501 -0.00000000000E+00  0.00000000000E+00  0.42355713889E+02  0.42355713966E+02  0.25500000000E-02 0. -1.
          2   -1    0    0  501    0  0.00000000000E+00 -0.00000000000E+00 -0.18684377278E+04  0.18684377278E+04  0.25500000000E-02 0.  1.
    5000001    1    1    2    0    0 -0.16024691685E+03 -0.76659601443E+02 -0.56142346906E+03  0.61936748418E+03  0.19200000000E+03 0.  0.
   -5000001    1    1    2    0    0  0.16024691685E+03  0.76659601443E+02 -0.12646585449E+04  0.12914259576E+04  0.19200000000E+03 0.  0.
<mgrwt>
<rscale>  0 0.56263314E+03</rscale>
<asrwt>0</asrwt>
<pdfrwt beam="1">  1        2 0.26691962E+00 0.56263314E+03</pdfrwt>
<pdfrwt beam="2">  1       -2 0.60508175E-02 0.56263314E+03</pdfrwt>
<totfact> 0.14729012E+03</totfact>
</mgrwt>
</event>
<event>
 4    1  0.2058931E-005  0.1054888E+04  0.7818608E-02  0.9250312E-01
          2   -1    0    0  501    0  0.00000000000E+00  0.00000000000E+00  0.15791664130E+03  0.15791664133E+03  0.25500000000E-02 0.  1.
         -2   -1    0    0    0  501 -0.00000000000E+00 -0.00000000000E+00 -0.17616713382E+04  0.17616713382E+04  0.25500000000E-02 0. -1.
    5000001    1    1    2    0    0  0.40391788181E+03  0.24942184884E+03 -0.10318549051E+04  0.11519329230E+04  0.19200000000E+03 0.  0.
   -5000001    1    1    2    0    0 -0.40391788181E+03 -0.24942184884E+03 -0.57189979171E+03  0.76765505644E+03  0.19200000000E+03 0.  0.
<mgrwt>
<rscale>  0 0.10548881E+04</rscale>
<asrwt>0</asrwt>
<pdfrwt beam="1">  1        2 0.22559521E-01 0.10548881E+04</pdfrwt>
<pdfrwt beam="2">  1       -2 0.25166732E+00 0.10548881E+04</pdfrwt>
<totfact> 0.15540885E+01</totfact>
</mgrwt>
</event>
<event>
 4    1  0.2058931E-005  0.6611039E+03  0.7818608E-02  0.9786164E-01
         -2   -1    0    0    0  501 -0.00000000000E+00  0.00000000000E+00  0.99545319377E+03  0.99545319378E+03  0.25500000000E-02 0. -1.
          2   -1    0    0  501    0  0.00000000000E+00 -0.00000000000E+00 -0.10976366124E+03  0.10976366127E+03  0.25500000000E-02 0.  1.
    5000001    1    1    2    0    0  0.22990227836E+03 -0.13972952019E+03  0.43514901546E+03  0.54644127046E+03  0.19200000000E+03 0.  0.
   -5000001    1    1    2    0    0 -0.22990227836E+03  0.13972952019E+03  0.45054051707E+03  0.55877558459E+03  0.19200000000E+03 0.  0.
<mgrwt>
<rscale>  0 0.66110389E+03</rscale>
<asrwt>0</asrwt>
<pdfrwt beam="1">  1        2 0.15680524E-01 0.66110389E+03</pdfrwt>
<pdfrwt beam="2">  1       -2 0.14220759E+00 0.66110389E+03</pdfrwt>
<totfact> 0.13282836E+02</totfact>
</mgrwt>
</event>
<event>
 4    1  0.2058931E-005  0.9481133E+03  0.7818608E-02  0.9367359E-01
          2   -1    0    0  501    0  0.00000000000E+00  0.00000000000E+00  0.64639741725E+03  0.64639741726E+03  0.25500000000E-02 0.  1.
         -2   -1    0    0    0  501 -0.00000000000E+00 -0.00000000000E+00 -0.34766489783E+03  0.34766489784E+03  0.25500000000E-02 0. -1.
    5000001    1    1    2    0    0  0.36386291681E+03  0.20563408657E+03  0.28979561757E+02  0.46085292099E+03  0.19200000000E+03 0.  0.
   -5000001    1    1    2    0    0 -0.36386291681E+03 -0.20563408657E+03  0.26975295767E+03  0.53320939410E+03  0.19200000000E+03 0.  0.
<mgrwt>
<rscale>  0 0.94811327E+03</rscale>
<asrwt>0</asrwt>
<pdfrwt beam="1">  1        2 0.92342487E-01 0.94811327E+03</pdfrwt>
<pdfrwt beam="2">  1       -2 0.49666414E-01 0.94811327E+03</pdfrwt>
<totfact> 0.19048039E+02</totfact>
</mgrwt>
</event>
<event>
 4    1  0.2058931E-005  0.5136458E+03  0.7818608E-02  0.1010277E+00
          2   -1    0    0  501    0  0.00000000000E+00  0.00000000000E+00  0.43333414336E+03  0.43333414337E+03  0.25500000000E-02 0.  1.
         -2   -1    0    0    0  501 -0.00000000000E+00 -0.00000000000E+00 -0.15221046928E+03  0.15221046930E+03  0.25500000000E-02 0. -1.
    5000001    1    1    2    0    0  0.13350584929E+03  0.74506540478E+02  0.54352423542E+02  0.25138262134E+03  0.19200000000E+03 0.  0.
   -5000001    1    1    2    0    0 -0.13350584929E+03 -0.74506540478E+02  0.22677125054E+03  0.33416199132E+03  0.19200000000E+03 0.  0.
<mgrwt>
<rscale>  0 0.51364577E+03</rscale>
<asrwt>0</asrwt>
<pdfrwt beam="1">  1        2 0.61904878E-01 0.51364577E+03</pdfrwt>
<pdfrwt beam="2">  1       -2 0.21744353E-01 0.51364577E+03</pdfrwt>
<totfact> 0.14516081E+03</totfact>
</mgrwt>
</event>
<event>
 4    1  0.2058931E-005  0.5517718E+03  0.7818608E-02  0.1001085E+00
         -2   -1    0    0    0  501 -0.00000000000E+00  0.00000000000E+00  0.16787027015E+03  0.16787027017E+03  0.25500000000E-02 0. -1.
          2   -1    0    0  501    0  0.00000000000E+00 -0.00000000000E+00 -0.45340387831E+03  0.45340387832E+03  0.25500000000E-02 0.  1.
    5000001    1    1    2    0    0 -0.15285833980E+03  0.69128074739E+02 -0.24114389160E+02  0.25610518646E+03  0.19200000000E+03 0.  0.
   -5000001    1    1    2    0    0  0.15285833980E+03 -0.69128074739E+02 -0.26141921901E+03  0.36516896203E+03  0.19200000000E+03 0.  0.
<mgrwt>
<rscale>  0 0.55177181E+03</rscale>
<asrwt>0</asrwt>
<pdfrwt beam="1">  1        2 0.64771982E-01 0.55177181E+03</pdfrwt>
<pdfrwt beam="2">  1       -2 0.23981467E-01 0.55177181E+03</pdfrwt>
<totfact> 0.11605985E+03</totfact>
</mgrwt>
</event>
<event>
 4    1  0.2058931E-005  0.8406825E+03  0.7818608E-02  0.9502929E-01
          2   -1    0    0  501    0  0.00000000000E+00  0.00000000000E+00  0.17496964428E+04  0.17496964428E+04  0.25500000000E-02 0.  1.
         -2   -1    0    0    0  501 -0.00000000000E+00 -0.00000000000E+00 -0.10098138555E+03  0.10098138558E+03  0.25500000000E-02 0. -1.
    5000001    1    1    2    0    0  0.14891679595E+02 -0.33314507881E+03  0.11967479124E+04  0.12570906776E+04  0.19200000000E+03 0.  0.
   -5000001    1    1    2    0    0 -0.14891679595E+02  0.33314507881E+03  0.45196714482E+03  0.59358715085E+03  0.19200000000E+03 0.  0.
<mgrwt>
<rscale>  0 0.84068251E+03</rscale>
<asrwt>0</asrwt>
<pdfrwt beam="1">  1        2 0.24995663E+00 0.84068251E+03</pdfrwt>
<pdfrwt beam="2">  1       -2 0.14425912E-01 0.84068251E+03</pdfrwt>
<totfact> 0.40810983E+02</totfact>
</mgrwt>
</event>
<event>
 4    1  0.2058931E-005  0.4909051E+03  0.7818608E-02  0.1016180E+00
         -2   -1    0    0    0  501 -0.00000000000E+00  0.00000000000E+00  0.25460399372E+03  0.25460399373E+03  0.25500000000E-02 0. -1.
          2   -1    0    0  501    0  0.00000000000E+00 -0.00000000000E+00 -0.23663006642E+03  0.23663006643E+03  0.25500000000E-02 0.  1.
    5000001    1    1    2    0    0 -0.98775871737E+02 -0.77801986653E+02  0.96069053297E+02  0.24880330578E+03  0.19200000000E+03 0.  0.
   -5000001    1    1    2    0    0  0.98775871737E+02  0.77801986653E+02 -0.78095125997E+02  0.24243075438E+03  0.19200000000E+03 0.  0.
<mgrwt>
<rscale>  0 0.49090512E+03</rscale>
<asrwt>0</asrwt>
<pdfrwt beam="1">  1        2 0.33804295E-01 0.49090512E+03</pdfrwt>
<pdfrwt beam="2">  1       -2 0.36371999E-01 0.49090512E+03</pdfrwt>
<totfact> 0.11066490E+03</totfact>
</mgrwt>
</event>
<event>
 4    1  0.2058931E-005  0.5584776E+03  0.7818608E-02  0.9995505E-01
         -2   -1    0    0    0  501 -0.00000000000E+00  0.00000000000E+00  0.66001119236E+03  0.66001119236E+03  0.25500000000E-02 0.  1.
          2   -1    0    0  501    0  0.00000000000E+00 -0.00000000000E+00 -0.11814090752E+03  0.11814090755E+03  0.25500000000E-02 0. -1.
    5000001    1    1    2    0    0 -0.12708306252E+03  0.11886850713E+03  0.12593018856E+03  0.28810109190E+03  0.19200000000E+03 0.  0.
   -5000001    1    1    2    0    0  0.12708306252E+03 -0.11886850713E+03  0.41594009628E+03  0.49005100801E+03  0.19200000000E+03 0.  0.
<mgrwt>
<rscale>  0 0.55847765E+03</rscale>
<asrwt>0</asrwt>
<pdfrwt beam="1">  1        2 0.16877272E-01 0.55847765E+03</pdfrwt>
<pdfrwt beam="2">  1       -2 0.94287314E-01 0.55847765E+03</pdfrwt>
<totfact> 0.33348224E+02</totfact>
</mgrwt>
</event>
<event>
 4    1  0.2058931E-005  0.6981318E+03  0.7818608E-02  0.9720432E-01
         -2   -1    0    0    0  501 -0.00000000000E+00  0.00000000000E+00  0.12877578181E+03  0.12877578183E+03  0.25500000000E-02 0. -1.
          2   -1    0    0  501    0  0.00000000000E+00 -0.00000000000E+00 -0.94619498558E+03  0.94619498558E+03  0.25500000000E-02 0.  1.
    5000001    1    1    2    0    0 -0.19197404944E+03  0.21716656076E+03 -0.45660767018E+03  0.57390758423E+03  0.19200000000E+03 0.  0.
   -5000001    1    1    2    0    0  0.19197404944E+03 -0.21716656076E+03 -0.36081153359E+03  0.50106318318E+03  0.19200000000E+03 0.  0.
<mgrwt>
<rscale>  0 0.69813179E+03</rscale>
<asrwt>0</asrwt>
<pdfrwt beam="1">  1        2 0.13517071E+00 0.69813179E+03</pdfrwt>
<pdfrwt beam="2">  1       -2 0.18396541E-01 0.69813179E+03</pdfrwt>
<totfact> 0.75251917E+02</totfact>
</mgrwt>
</event>
<event>
 4    1  0.2058931E-005  0.6572338E+03  0.7818608E-02  0.9793299E-01
         -2   -1    0    0    0  501 -0.00000000000E+00  0.00000000000E+00  0.28686647709E+03  0.28686647710E+03  0.25500000000E-02 0. -1.
          2   -1    0    0  501    0  0.00000000000E+00 -0.00000000000E+00 -0.37644365707E+03  0.37644365708E+03  0.25500000000E-02 0.  1.
    5000001    1    1    2    0    0  0.21356402405E+03 -0.15344660873E+03  0.20270323736E-02  0.32560628695E+03  0.19200000000E+03 0.  0.
   -5000001    1    1    2    0    0 -0.21356402405E+03  0.15344660873E+03 -0.89579207012E+02  0.33770384722E+03  0.19200000000E+03 0.  0.
<mgrwt>
<rscale>  0 0.65723380E+03</rscale>
<asrwt>0</asrwt>
<pdfrwt beam="1">  1        2 0.53777665E-01 0.65723380E+03</pdfrwt>
<pdfrwt beam="2">  1       -2 0.40980925E-01 0.65723380E+03</pdfrwt>
<totfact> 0.52561675E+02</totfact>
</mgrwt>
</event>
<event>
 4    1  0.2058931E-005  0.4378736E+03  0.7818608E-02  0.1031401E+00
          2   -1    0    0  501    0  0.00000000000E+00  0.00000000000E+00  0.72713210748E+03  0.72713210748E+03  0.25500000000E-02 0.  1.
         -2   -1    0    0    0  501 -0.00000000000E+00 -0.00000000000E+00 -0.65921071791E+02  0.65921071840E+02  0.25500000000E-02 0. -1.
    5000001    1    1    2    0    0 -0.98305896722E+02 -0.32569950646E+02  0.29699048393E+03  0.36849993021E+03  0.19200000000E+03 0.  0.
   -5000001    1    1    2    0    0  0.98305896722E+02  0.32569950646E+02  0.36422055176E+03  0.42455324912E+03  0.19200000000E+03 0.  0.
<mgrwt>
<rscale>  0 0.43787363E+03</rscale>
<asrwt>0</asrwt>
<pdfrwt beam="1">  1        2 0.10387601E+00 0.43787363E+03</pdfrwt>
<pdfrwt beam="2">  1       -2 0.94172965E-02 0.43787363E+03</pdfrwt>
<totfact> 0.32231160E+03</totfact>
</mgrwt>
</event>
<event>
 4    1  0.2058931E-005  0.1084497E+04  0.7818608E-02  0.9220435E-01
          2   -1    0    0  501    0  0.00000000000E+00  0.00000000000E+00  0.96386917276E+03  0.96386917276E+03  0.25500000000E-02 0.  1.
         -2   -1    0    0    0  501 -0.00000000000E+00 -0.00000000000E+00 -0.30505544326E+03  0.30505544327E+03  0.25500000000E-02 0. -1.
    5000001    1    1    2    0    0  0.49856376247E+03 -0.19123251446E+02  0.43560542975E+03  0.68959960442E+03  0.19200000000E+03 0.  0.
   -5000001    1    1    2    0    0 -0.49856376247E+03  0.19123251446E+02  0.22320829975E+03  0.57932501160E+03  0.19200000000E+03 0.  0.
<mgrwt>
<rscale>  0 0.10844972E+04</rscale>
<asrwt>0</asrwt>
<pdfrwt beam="1">  1        2 0.13769560E+00 0.10844972E+04</pdfrwt>
<pdfrwt beam="2">  1       -2 0.43579349E-01 0.10844972E+04</pdfrwt>
<totfact> 0.14666805E+02</totfact>
</mgrwt>
</event>
<event>
 4    1  0.2058931E-005  0.1077927E+04  0.7818608E-02  0.9226977E-01
          2   -1    0    0  501    0  0.00000000000E+00  0.00000000000E+00  0.27045448988E+04  0.27045448988E+04  0.25500000000E-02 0.  1.
         -2   -1    0    0    0  501 -0.00000000000E+00 -0.00000000000E+00 -0.10740492358E+03  0.10740492361E+03  0.25500000000E-02 0. -1.
    5000001    1    1    2    0    0 -0.40134849775E+03  0.22890290666E+03  0.77592284363E+03  0.92325371193E+03  0.19200000000E+03 0.  0.
   -5000001    1    1    2    0    0  0.40134849775E+03 -0.22890290666E+03  0.18212171316E+04  0.18886961104E+04  0.19200000000E+03 0.  0.
<mgrwt>
<rscale>  0 0.10779266E+04</rscale>
<asrwt>0</asrwt>
<pdfrwt beam="1">  1        2 0.38636361E+00 0.10779266E+04</pdfrwt>
<pdfrwt beam="2">  1       -2 0.15343558E-01 0.10779266E+04</pdfrwt>
<totfact> 0.11639400E+02</totfact>
</mgrwt>
</event>
<event>
 4    1  0.2058931E-005  0.5773151E+03  0.7818608E-02  0.9953621E-01
          2   -1    0    0  501    0  0.00000000000E+00  0.00000000000E+00  0.76281340264E+03  0.76281340264E+03  0.25500000000E-02 0.  1.
         -2   -1    0    0    0  501 -0.00000000000E+00 -0.00000000000E+00 -0.10923141029E+03  0.10923141032E+03  0.25500000000E-02 0. -1.
    5000001    1    1    2    0    0  0.17843613206E+03 -0.11972742475E+03  0.30128719440E+03  0.41690776314E+03  0.19200000000E+03 0.  0.
   -5000001    1    1    2    0    0 -0.17843613206E+03  0.11972742475E+03  0.35229479794E+03  0.45513704982E+03  0.19200000000E+03 0.  0.
<mgrwt>
<rscale>  0 0.57731511E+03</rscale>
<asrwt>0</asrwt>
<pdfrwt beam="1">  1        2 0.10897334E+00 0.57731511E+03</pdfrwt>
<pdfrwt beam="2">  1       -2 0.15604488E-01 0.57731511E+03</pdfrwt>
<totfact> 0.13257549E+03</totfact>
</mgrwt>
</event>
<event>
 4    1  0.2058931E-005  0.6383894E+03  0.7818608E-02  0.9828813E-01
         -2   -1    0    0    0  501 -0.00000000000E+00  0.00000000000E+00  0.89239764127E+02  0.89239764164E+02  0.25500000000E-02 0. -1.
          2   -1    0    0  501    0  0.00000000000E+00 -0.00000000000E+00 -0.11417024693E+04  0.11417024693E+04  0.25500000000E-02 0.  1.
    5000001    1    1    2    0    0 -0.58217426619E+02  0.18348281431E+03 -0.84868518487E+03  0.89117100206E+03  0.19200000000E+03 0.  0.
   -5000001    1    1    2    0    0  0.58217426619E+02 -0.18348281431E+03 -0.20377752033E+03  0.33977123142E+03  0.19200000000E+03 0.  0.
<mgrwt>
<rscale>  0 0.63838941E+03</rscale>
<asrwt>0</asrwt>
<pdfrwt beam="1">  1        2 0.16310034E+00 0.63838941E+03</pdfrwt>
<pdfrwt beam="2">  1       -2 0.12748538E-01 0.63838941E+03</pdfrwt>
<totfact> 0.10701534E+03</totfact>
</mgrwt>
</event>
<event>
 4    1  0.2058931E-005  0.4577576E+03  0.7818608E-02  0.1025434E+00
          2   -1    0    0  501    0  0.00000000000E+00  0.00000000000E+00  0.23381804676E+03  0.23381804678E+03  0.25500000000E-02 0.  1.
         -2   -1    0    0    0  501 -0.00000000000E+00 -0.00000000000E+00 -0.22404386677E+03  0.22404386678E+03  0.25500000000E-02 0. -1.
    5000001    1    1    2    0    0 -0.76411465442E+02 -0.17317818703E+02  0.10177443839E+03  0.23099925369E+03  0.19200000000E+03 0.  0.
   -5000001    1    1    2    0    0  0.76411465442E+02  0.17317818703E+02 -0.92000258397E+02  0.22686265986E+03  0.19200000000E+03 0.  0.
<mgrwt>
<rscale>  0 0.45775757E+03</rscale>
<asrwt>0</asrwt>
<pdfrwt beam="1">  1        2 0.33402578E-01 0.45775757E+03</pdfrwt>
<pdfrwt beam="2">  1       -2 0.32006267E-01 0.45775757E+03</pdfrwt>
<totfact> 0.14253191E+03</totfact>
</mgrwt>
</event>
<event>
 4    1  0.2058931E-005  0.5708995E+03  0.7818608E-02  0.9967690E-01
          2   -1    0    0  501    0  0.00000000000E+00  0.00000000000E+00  0.10731096800E+04  0.10731096800E+04  0.25500000000E-02 0.  1.
         -2   -1    0    0    0  501 -0.00000000000E+00 -0.00000000000E+00 -0.75930325927E+02  0.75930325970E+02  0.25500000000E-02 0. -1.
    5000001    1    1    2    0    0  0.82150557312E+02  0.13587449225E+03  0.21820491922E+03  0.33119175485E+03  0.19200000000E+03 0.  0.
   -5000001    1    1    2    0    0 -0.82150557312E+02 -0.13587449225E+03  0.77897443486E+03  0.81784825113E+03  0.19200000000E+03 0.  0.
<mgrwt>
<rscale>  0 0.57089953E+03</rscale>
<asrwt>0</asrwt>
<pdfrwt beam="1">  1        2 0.15330138E+00 0.57089953E+03</pdfrwt>
<pdfrwt beam="2">  1       -2 0.10847190E-01 0.57089953E+03</pdfrwt>
<totfact> 0.15319229E+03</totfact>
</mgrwt>
</event>
<event>
 4    1  0.2058931E-005  0.5641683E+03  0.7818608E-02  0.9982667E-01
          2   -1    0    0  501    0  0.00000000000E+00  0.00000000000E+00  0.62310415216E+03  0.62310415217E+03  0.25500000000E-02 0.  1.
         -2   -1    0    0    0  501 -0.00000000000E+00 -0.00000000000E+00 -0.12770173120E+03  0.12770173122E+03  0.25500000000E-02 0. -1.
    5000001    1    1    2    0    0  0.14115147306E+03  0.13904987961E+03  0.16954608425E+03  0.32383403473E+03  0.19200000000E+03 0.  0.
   -5000001    1    1    2    0    0 -0.14115147306E+03 -0.13904987961E+03  0.32585633672E+03  0.42697184866E+03  0.19200000000E+03 0.  0.
<mgrwt>
<rscale>  0 0.56416834E+03</rscale>
<asrwt>0</asrwt>
<pdfrwt beam="1">  1        2 0.89014879E-01 0.56416834E+03</pdfrwt>
<pdfrwt beam="2">  1       -2 0.18243104E-01 0.56416834E+03</pdfrwt>
<totfact> 0.12998369E+03</totfact>
</mgrwt>
</event>
<event>
 4    1  0.2058931E-005  0.4691474E+03  0.7818608E-02  0.1022161E+00
          2   -1    0    0  501    0  0.00000000000E+00  0.00000000000E+00  0.20479082659E+04  0.20479082659E+04  0.25500000000E-02 0.  1.
         -2   -1    0    0    0  501 -0.00000000000E+00 -0.00000000000E+00 -0.26868796610E+02  0.26868796731E+02  0.25500000000E-02 0. -1.
    5000001    1    1    2    0    0 -0.57841822361E+02  0.14819478609E+02  0.15448036872E+04  0.15578343061E+04  0.19200000000E+03 0.  0.
   -5000001    1    1    2    0    0  0.57841822361E+02 -0.14819478609E+02  0.47623578208E+03  0.51694275649E+03  0.19200000000E+03 0.  0.
<mgrwt>
<rscale>  0 0.46914744E+03</rscale>
<asrwt>0</asrwt>
<pdfrwt beam="1">  1        2 0.29255840E+00 0.46914744E+03</pdfrwt>
<pdfrwt beam="2">  1       -2 0.38383985E-02 0.46914744E+03</pdfrwt>
<totfact> 0.24283906E+03</totfact>
</mgrwt>
</event>
<event>
 4    1  0.2058931E-005  0.5517664E+03  0.7818608E-02  0.1001086E+00
         -2   -1    0    0    0  501 -0.00000000000E+00  0.00000000000E+00  0.11019215751E+03  0.11019215754E+03  0.25500000000E-02 0. -1.
          2   -1    0    0  501    0  0.00000000000E+00 -0.00000000000E+00 -0.69071653875E+03  0.69071653875E+03  0.25500000000E-02 0.  1.
    5000001    1    1    2    0    0  0.89537622734E+02  0.11723138083E+03 -0.48221298190E+03  0.53958645503E+03  0.19200000000E+03 0.  0.
   -5000001    1    1    2    0    0 -0.89537622734E+02 -0.11723138083E+03 -0.98311399335E+02  0.26132224126E+03  0.19200000000E+03 0.  0.
<mgrwt>
<rscale>  0 0.55176642E+03</rscale>
<asrwt>0</asrwt>
<pdfrwt beam="1">  1        2 0.98673789E-01 0.55176642E+03</pdfrwt>
<pdfrwt beam="2">  1       -2 0.15741737E-01 0.55176642E+03</pdfrwt>
<totfact> 0.14769825E+03</totfact>
</mgrwt>
</event>
<event>
 4    1  0.2058931E-005  0.4476114E+03  0.7818608E-02  0.1028437E+00
          2   -1    0    0  501    0  0.00000000000E+00  0.00000000000E+00  0.11237693879E+03  0.11237693881E+03  0.25500000000E-02 0.  1.
         -2   -1    0    0    0  501 -0.00000000000E+00 -0.00000000000E+00 -0.44572301257E+03  0.44572301258E+03  0.25500000000E-02 0. -1.
    5000001    1    1    2    0    0  0.13266775857E+02 -0.96247841716E+02 -0.24338496987E+03  0.32486904736E+03  0.19200000000E+03 0.  0.
   -5000001    1    1    2    0    0 -0.13266775857E+02  0.96247841716E+02 -0.89961103916E+02  0.23323090403E+03  0.19200000000E+03 0.  0.
<mgrwt>
<rscale>  0 0.44761138E+03</rscale>
<asrwt>0</asrwt>
<pdfrwt beam="1">  1        2 0.16053849E-01 0.44761138E+03</pdfrwt>
<pdfrwt beam="2">  1       -2 0.63674715E-01 0.44761138E+03</pdfrwt>
<totfact> 0.84557691E+02</totfact>
</mgrwt>
</event>
<event>
 4    1  0.2058931E-005  0.4221486E+03  0.7818608E-02  0.1036369E+00
         -2   -1    0    0    0  501 -0.00000000000E+00  0.00000000000E+00  0.11504981105E+03  0.11504981108E+03  0.25500000000E-02 0. -1.
          2   -1    0    0  501    0  0.00000000000E+00 -0.00000000000E+00 -0.38724400477E+03  0.38724400477E+03  0.25500000000E-02 0.  1.
    5000001    1    1    2    0    0 -0.72451228232E+02  0.48193657776E+02 -0.12325219164E+03  0.24418622374E+03  0.19200000000E+03 0.  0.
   -5000001    1    1    2    0    0  0.72451228232E+02 -0.48193657776E+02 -0.14894200208E+03  0.25810759211E+03  0.19200000000E+03 0.  0.
<mgrwt>
<rscale>  0 0.42214855E+03</rscale>
<asrwt>0</asrwt>
<pdfrwt beam="1">  1        2 0.55320571E-01 0.42214855E+03</pdfrwt>
<pdfrwt beam="2">  1       -2 0.16435688E-01 0.42214855E+03</pdfrwt>
<totfact> 0.26556639E+03</totfact>
</mgrwt>
</event>
<event>
 4    1  0.2058931E-005  0.4800326E+03  0.7818608E-02  0.1019126E+00
         -2   -1    0    0    0  501 -0.00000000000E+00  0.00000000000E+00  0.44085997674E+02  0.44085997748E+02  0.25500000000E-02 0. -1.
          2   -1    0    0  501    0  0.00000000000E+00 -0.00000000000E+00 -0.13067145465E+04  0.13067145465E+04  0.25500000000E-02 0.  1.
    5000001    1    1    2    0    0 -0.14280045121E+03  0.18269885729E+02 -0.61935672038E+03  0.66422323407E+03  0.19200000000E+03 0.  0.
   -5000001    1    1    2    0    0  0.14280045121E+03 -0.18269885729E+02 -0.64327182841E+03  0.68657731015E+03  0.19200000000E+03 0.  0.
<mgrwt>
<rscale>  0 0.48003256E+03</rscale>
<asrwt>0</asrwt>
<pdfrwt beam="1">  1        2 0.18667348E+00 0.48003256E+03</pdfrwt>
<pdfrwt beam="2">  1       -2 0.62980005E-02 0.48003256E+03</pdfrwt>
<totfact> 0.26986564E+03</totfact>
</mgrwt>
</event>
<event>
 4    1  0.2058931E-005  0.5961260E+03  0.7818608E-02  0.9913476E-01
          2   -1    0    0  501    0  0.00000000000E+00  0.00000000000E+00  0.47939943255E+04  0.47939943255E+04  0.25500000000E-02 0.  1.
         -2   -1    0    0    0  501 -0.00000000000E+00 -0.00000000000E+00 -0.18531841531E+02  0.18531841706E+02  0.25500000000E-02 0. -1.
    5000001    1    1    2    0    0  0.16024074325E+03 -0.13589913311E+03  0.16732877419E+04  0.16973218720E+04  0.19200000000E+03 0.  0.
   -5000001    1    1    2    0    0 -0.16024074325E+03  0.13589913311E+03  0.31021747421E+04  0.31152042951E+04  0.19200000000E+03 0.  0.
<mgrwt>
<rscale>  0 0.59612597E+03</rscale>
<asrwt>0</asrwt>
<pdfrwt beam="1">  1        2 0.68485726E+00 0.59612597E+03</pdfrwt>
<pdfrwt beam="2">  1       -2 0.26474024E-02 0.59612597E+03</pdfrwt>
<totfact> 0.87290579E+01</totfact>
</mgrwt>
</event>
<event>
 4    1  0.2058931E-005  0.5386620E+03  0.7818608E-02  0.1004153E+00
         -2   -1    0    0    0  501 -0.00000000000E+00  0.00000000000E+00  0.74519935627E+02  0.74519935671E+02  0.25500000000E-02 0. -1.
          2   -1    0    0  501    0  0.00000000000E+00 -0.00000000000E+00 -0.97341993897E+03  0.97341993897E+03  0.25500000000E-02 0.  1.
    5000001    1    1    2    0    0  0.10603213495E+03 -0.32954804241E+02 -0.74670529036E+03  0.77894905059E+03  0.19200000000E+03 0.  0.
   -5000001    1    1    2    0    0 -0.10603213495E+03  0.32954804241E+02 -0.15219471298E+03  0.26899082405E+03  0.19200000000E+03 0.  0.
<mgrwt>
<rscale>  0 0.53866201E+03</rscale>
<asrwt>0</asrwt>
<pdfrwt beam="1">  1        2 0.13905998E+00 0.53866201E+03</pdfrwt>
<pdfrwt beam="2">  1       -2 0.10645706E-01 0.53866201E+03</pdfrwt>
<totfact> 0.18137955E+03</totfact>
</mgrwt>
</event>
<event>
 4    1  0.2058931E-005  0.5806377E+03  0.7818608E-02  0.9946411E-01
         -2   -1    0    0    0  501 -0.00000000000E+00  0.00000000000E+00  0.37756099532E+02  0.37756099618E+02  0.25500000000E-02 0. -1.
          2   -1    0    0  501    0  0.00000000000E+00 -0.00000000000E+00 -0.22323558268E+04  0.22323558268E+04  0.25500000000E-02 0.  1.
    5000001    1    1    2    0    0 -0.48161815864E+02 -0.18488220231E+03 -0.68874112081E+03  0.74008737372E+03  0.19200000000E+03 0.  0.
   -5000001    1    1    2    0    0  0.48161815864E+02  0.18488220231E+03 -0.15058586065E+04  0.15300245527E+04  0.19200000000E+03 0.  0.
<mgrwt>
<rscale>  0 0.58063775E+03</rscale>
<asrwt>0</asrwt>
<pdfrwt beam="1">  1        2 0.31890789E+00 0.58063775E+03</pdfrwt>
<pdfrwt beam="2">  1       -2 0.53937299E-02 0.58063775E+03</pdfrwt>
<totfact> 0.11560661E+03</totfact>
</mgrwt>
</event>
<event>
 4    1  0.2058931E-005  0.5927898E+03  0.7818608E-02  0.9920479E-01
          2   -1    0    0  501    0  0.00000000000E+00  0.00000000000E+00  0.17166458787E+04  0.17166458787E+04  0.25500000000E-02 0.  1.
         -2   -1    0    0    0  501 -0.00000000000E+00 -0.00000000000E+00 -0.51175347571E+02  0.51175347635E+02  0.25500000000E-02 0. -1.
    5000001    1    1    2    0    0  0.17667642704E+03 -0.10662664724E+03  0.55937666132E+03  0.62637852055E+03  0.19200000000E+03 0.  0.
   -5000001    1    1    2    0    0 -0.17667642704E+03  0.10662664724E+03  0.11060938699E+04  0.11414427058E+04  0.19200000000E+03 0.  0.
<mgrwt>
<rscale>  0 0.59278984E+03</rscale>
<asrwt>0</asrwt>
<pdfrwt beam="1">  1        2 0.24523514E+00 0.59278984E+03</pdfrwt>
<pdfrwt beam="2">  1       -2 0.73107634E-02 0.59278984E+03</pdfrwt>
<totfact> 0.13028320E+03</totfact>
</mgrwt>
</event>
<event>
 4    1  0.2058931E-005  0.4458971E+03  0.7818608E-02  0.1028953E+00
          2   -1    0    0  501    0  0.00000000000E+00  0.00000000000E+00  0.47540708545E+03  0.47540708546E+03  0.25500000000E-02 0.  1.
         -2   -1    0    0    0  501 -0.00000000000E+00 -0.00000000000E+00 -0.10455470191E+03  0.10455470194E+03  0.25500000000E-02 0. -1.
    5000001    1    1    2    0    0  0.39878306915E+02  0.96568245816E+02  0.24251241607E+03  0.32648426824E+03  0.19200000000E+03 0.  0.
   -5000001    1    1    2    0    0 -0.39878306915E+02 -0.96568245816E+02  0.12833996747E+03  0.25347751915E+03  0.19200000000E+03 0.  0.
<mgrwt>
<rscale>  0 0.44589706E+03</rscale>
<asrwt>0</asrwt>
<pdfrwt beam="1">  1        2 0.67915298E-01 0.44589706E+03</pdfrwt>
<pdfrwt beam="2">  1       -2 0.14936386E-01 0.44589706E+03</pdfrwt>
<totfact> 0.24868803E+03</totfact>
</mgrwt>
</event>
<event>
 4    1  0.2058931E-005  0.5121449E+03  0.7818608E-02  0.1010657E+00
          2   -1    0    0  501    0  0.00000000000E+00  0.00000000000E+00  0.11042748322E+04  0.11042748322E+04  0.25500000000E-02 0.  1.
         -2   -1    0    0    0  501 -0.00000000000E+00 -0.00000000000E+00 -0.59381145298E+02  0.59381145352E+02  0.25500000000E-02 0. -1.
    5000001    1    1    2    0    0 -0.13630141678E+03  0.91711557653E+02  0.42821487419E+03  0.49721329880E+03  0.19200000000E+03 0.  0.
   -5000001    1    1    2    0    0  0.13630141678E+03 -0.91711557653E+02  0.61667881275E+03  0.66644267880E+03  0.19200000000E+03 0.  0.
<mgrwt>
<rscale>  0 0.51214492E+03</rscale>
<asrwt>0</asrwt>
<pdfrwt beam="1">  1        2 0.15775355E+00 0.51214492E+03</pdfrwt>
<pdfrwt beam="2">  1       -2 0.84830207E-02 0.51214492E+03</pdfrwt>
<totfact> 0.21854387E+03</totfact>
</mgrwt>
</event>
<event>
 4    1  0.2058931E-005  0.5579046E+03  0.7818608E-02  0.9996807E-01
         -2   -1    0    0    0  501 -0.00000000000E+00  0.00000000000E+00  0.31787912519E+02  0.31787912621E+02  0.25500000000E-02 0. -1.
          2   -1    0    0  501    0  0.00000000000E+00 -0.00000000000E+00 -0.24479241143E+04  0.24479241143E+04  0.25500000000E-02 0.  1.
    5000001    1    1    2    0    0  0.98442779165E+02  0.17349459567E+03 -0.10567499929E+04  0.10924174582E+04  0.19200000000E+03 0.  0.
   -5000001    1    1    2    0    0 -0.98442779165E+02 -0.17349459567E+03 -0.13593862089E+04  0.13872945687E+04  0.19200000000E+03 0.  0.
<mgrwt>
<rscale>  0 0.55790464E+03</rscale>
<asrwt>0</asrwt>
<pdfrwt beam="1">  1        2 0.34970332E+00 0.55790464E+03</pdfrwt>
<pdfrwt beam="2">  1       -2 0.45411319E-02 0.55790464E+03</pdfrwt>
<totfact> 0.11754248E+03</totfact>
</mgrwt>
</event>
<event>
 4    1  0.2058931E-005  0.5863570E+03  0.7818608E-02  0.9934122E-01
          2   -1    0    0  501    0  0.00000000000E+00  0.00000000000E+00  0.46632216630E+03  0.46632216631E+03  0.25500000000E-02 0.  1.
         -2   -1    0    0    0  501 -0.00000000000E+00 -0.00000000000E+00 -0.18432242378E+03  0.18432242380E+03  0.25500000000E-02 0. -1.
    5000001    1    1    2    0    0 -0.10440794593E+03 -0.16962754745E+03  0.24866978443E+03  0.37198815265E+03  0.19200000000E+03 0.  0.
   -5000001    1    1    2    0    0  0.10440794593E+03  0.16962754745E+03  0.33329958092E+02  0.27865643745E+03  0.19200000000E+03 0.  0.
<mgrwt>
<rscale>  0 0.58635700E+03</rscale>
<asrwt>0</asrwt>
<pdfrwt beam="1">  1        2 0.66617451E-01 0.58635700E+03</pdfrwt>
<pdfrwt beam="2">  1       -2 0.26331775E-01 0.58635700E+03</pdfrwt>
<totfact> 0.95058560E+02</totfact>
</mgrwt>
</event>
<event>
 4    1  0.2058931E-005  0.4209416E+03  0.7818608E-02  0.1036760E+00
         -2   -1    0    0    0  501 -0.00000000000E+00  0.00000000000E+00  0.24877616610E+02  0.24877616741E+02  0.25500000000E-02 0. -1.
          2   -1    0    0  501    0  0.00000000000E+00 -0.00000000000E+00 -0.17806347936E+04  0.17806347936E+04  0.25500000000E-02 0.  1.
    5000001    1    1    2    0    0 -0.71542467190E+02  0.17066122456E+02 -0.68489343321E+03  0.71508921961E+03  0.19200000000E+03 0.  0.
   -5000001    1    1    2    0    0  0.71542467190E+02 -0.17066122456E+02 -0.10708637438E+04  0.10904231907E+04  0.19200000000E+03 0.  0.
<mgrwt>
<rscale>  0 0.42094156E+03</rscale>
<asrwt>0</asrwt>
<pdfrwt beam="1">  1        2 0.25437632E+00 0.42094156E+03</pdfrwt>
<pdfrwt beam="2">  1       -2 0.35539464E-02 0.42094156E+03</pdfrwt>
<totfact> 0.37128296E+03</totfact>
</mgrwt>
</event>
<event>
 4    1  0.2058931E-005  0.4942497E+03  0.7818608E-02  0.1015291E+00
         -2   -1    0    0    0  501 -0.00000000000E+00  0.00000000000E+00  0.12051581830E+03  0.12051581832E+03  0.25500000000E-02 0. -1.
          2   -1    0    0  501    0  0.00000000000E+00 -0.00000000000E+00 -0.50674423455E+03  0.50674423455E+03  0.25500000000E-02 0.  1.
    5000001    1    1    2    0    0 -0.26653633258E+02 -0.14983346751E+03 -0.15206440882E+03  0.28835406808E+03  0.19200000000E+03 0.  0.
   -5000001    1    1    2    0    0  0.26653633258E+02  0.14983346751E+03 -0.23416400743E+03  0.33890598479E+03  0.19200000000E+03 0.  0.
<mgrwt>
<rscale>  0 0.49424972E+03</rscale>
<asrwt>0</asrwt>
<pdfrwt beam="1">  1        2 0.72392033E-01 0.49424972E+03</pdfrwt>
<pdfrwt beam="2">  1       -2 0.17216546E-01 0.49424972E+03</pdfrwt>
<totfact> 0.18228761E+03</totfact>
</mgrwt>
</event>
<event>
 4    1  0.2058931E-005  0.4914778E+03  0.7818608E-02  0.1016028E+00
          2   -1    0    0  501    0  0.00000000000E+00  0.00000000000E+00  0.25391418371E+04  0.25391418371E+04  0.25500000000E-02 0.  1.
         -2   -1    0    0    0  501 -0.00000000000E+00 -0.00000000000E+00 -0.23782680420E+02  0.23782680557E+02  0.25500000000E-02 0. -1.
    5000001    1    1    2    0    0 -0.11420573656E+03 -0.86373663359E+02  0.15442640121E+04  0.15627279671E+04  0.19200000000E+03 0.  0.
   -5000001    1    1    2    0    0  0.11420573656E+03  0.86373663359E+02  0.97109514452E+03  0.10001965505E+04  0.19200000000E+03 0.  0.
<mgrwt>
<rscale>  0 0.49147777E+03</rscale>
<asrwt>0</asrwt>
<pdfrwt beam="1">  1        2 0.36273427E+00 0.49147777E+03</pdfrwt>
<pdfrwt beam="2">  1       -2 0.33975284E-02 0.49147777E+03</pdfrwt>
<totfact> 0.16534908E+03</totfact>
</mgrwt>
</event>
<event>
 4    1  0.2058931E-005  0.5685620E+03  0.7818608E-02  0.9972866E-01
          2   -1    0    0  501    0  0.00000000000E+00  0.00000000000E+00  0.23072645125E+04  0.23072645126E+04  0.25500000000E-02 0.  1.
         -2   -1    0    0    0  501 -0.00000000000E+00 -0.00000000000E+00 -0.35026626387E+02  0.35026626480E+02  0.25500000000E-02 0. -1.
    5000001    1    1    2    0    0  0.11695511031E+03  0.11925628751E+03  0.16580532782E+04  0.16774698904E+04  0.19200000000E+03 0.  0.
   -5000001    1    1    2    0    0 -0.11695511031E+03 -0.11925628751E+03  0.61418460796E+03  0.66482124860E+03  0.19200000000E+03 0.  0.
<mgrwt>
<rscale>  0 0.56856202E+03</rscale>
<asrwt>0</asrwt>
<pdfrwt beam="1">  1        2 0.32960927E+00 0.56856202E+03</pdfrwt>
<pdfrwt beam="2">  1       -2 0.50038029E-02 0.56856202E+03</pdfrwt>
<totfact> 0.11915790E+03</totfact>
</mgrwt>
</event>
<event>
 4    1  0.2058931E-005  0.6159543E+03  0.7818608E-02  0.9872848E-01
         -2   -1    0    0    0  501 -0.00000000000E+00  0.00000000000E+00  0.37427470504E+03  0.37427470505E+03  0.25500000000E-02 0. -1.
          2   -1    0    0  501    0  0.00000000000E+00 -0.00000000000E+00 -0.25342326072E+03  0.25342326073E+03  0.25500000000E-02 0.  1.
    5000001    1    1    2    0    0 -0.97683770022E+01  0.23589032665E+03  0.10872394777E+03  0.32314789836E+03  0.19200000000E+03 0.  0.
   -5000001    1    1    2    0    0  0.97683770022E+01 -0.23589032665E+03  0.12127496555E+02  0.30455006743E+03  0.19200000000E+03 0.  0.
<mgrwt>
<rscale>  0 0.61595427E+03</rscale>
<asrwt>0</asrwt>
<pdfrwt beam="1">  1        2 0.36203323E-01 0.61595427E+03</pdfrwt>
<pdfrwt beam="2">  1       -2 0.53467815E-01 0.61595427E+03</pdfrwt>
<totfact> 0.47866208E+02</totfact>
</mgrwt>
</event>
<event>
 4    1  0.2058931E-005  0.5918432E+03  0.7818608E-02  0.9922475E-01
          2   -1    0    0  501    0  0.00000000000E+00  0.00000000000E+00  0.15257723845E+04  0.15257723845E+04  0.25500000000E-02 0.  1.
         -2   -1    0    0    0  501 -0.00000000000E+00 -0.00000000000E+00 -0.57393609607E+02  0.57393609663E+02  0.25500000000E-02 0. -1.
    5000001    1    1    2    0    0 -0.62179558754E+02 -0.18391783511E+03  0.10393420437E+04  0.10746106045E+04  0.19200000000E+03 0.  0.
   -5000001    1    1    2    0    0  0.62179558754E+02  0.18391783511E+03  0.42903673120E+03  0.50855538963E+03  0.19200000000E+03 0.  0.
<mgrwt>
<rscale>  0 0.59184317E+03</rscale>
<asrwt>0</asrwt>
<pdfrwt beam="1">  1        2 0.21796752E+00 0.59184317E+03</pdfrwt>
<pdfrwt beam="2">  1       -2 0.81990856E-02 0.59184317E+03</pdfrwt>
<totfact> 0.13601346E+03</totfact>
</mgrwt>
</event>
<event>
 4    1  0.2058931E-005  0.4352650E+03  0.7818608E-02  0.1032210E+00
         -2   -1    0    0    0  501 -0.00000000000E+00  0.00000000000E+00  0.24701029912E+02  0.24701030044E+02  0.25500000000E-02 0. -1.
          2   -1    0    0  501    0  0.00000000000E+00 -0.00000000000E+00 -0.19174869338E+04  0.19174869338E+04  0.25500000000E-02 0.  1.
    5000001    1    1    2    0    0 -0.69485309308E+02 -0.70864993514E+02 -0.83264515574E+03  0.86023950787E+03  0.19200000000E+03 0.  0.
   -5000001    1    1    2    0    0  0.69485309308E+02  0.70864993514E+02 -0.10601407482E+04  0.10819484560E+04  0.19200000000E+03 0.  0.
<mgrwt>
<rscale>  0 0.43526499E+03</rscale>
<asrwt>0</asrwt>
<pdfrwt beam="1">  1        2 0.27392661E+00 0.43526499E+03</pdfrwt>
<pdfrwt beam="2">  1       -2 0.35287198E-02 0.43526499E+03</pdfrwt>
<totfact> 0.32075591E+03</totfact>
</mgrwt>
</event>
<event>
 4    1  0.2058931E-005  0.6183051E+03  0.7818608E-02  0.9868140E-01
          2   -1    0    0  501    0  0.00000000000E+00  0.00000000000E+00  0.22440171338E+04  0.22440171338E+04  0.25500000000E-02 0.  1.
         -2   -1    0    0    0  501 -0.00000000000E+00 -0.00000000000E+00 -0.42591164039E+02  0.42591164116E+02  0.25500000000E-02 0. -1.
    5000001    1    1    2    0    0  0.21935959213E+03 -0.73470521755E+02  0.83416744410E+03  0.88668814869E+03  0.19200000000E+03 0.  0.
   -5000001    1    1    2    0    0 -0.21935959213E+03  0.73470521755E+02  0.13672585257E+04  0.13999201492E+04  0.19200000000E+03 0.  0.
<mgrwt>
<rscale>  0 0.61830511E+03</rscale>
<asrwt>0</asrwt>
<pdfrwt beam="1">  1        2 0.32057381E+00 0.61830511E+03</pdfrwt>
<pdfrwt beam="2">  1       -2 0.60844533E-02 0.61830511E+03</pdfrwt>
<totfact> 0.94259058E+02</totfact>
</mgrwt>
</event>
<event>
 4    1  0.2058931E-005  0.5610745E+03  0.7818608E-02  0.9989626E-01
         -2   -1    0    0    0  501 -0.00000000000E+00  0.00000000000E+00  0.90875409154E+02  0.90875409190E+02  0.25500000000E-02 0. -1.
          2   -1    0    0  501    0  0.00000000000E+00 -0.00000000000E+00 -0.86603350576E+03  0.86603350577E+03  0.25500000000E-02 0.  1.
    5000001    1    1    2    0    0  0.18309605873E+03  0.89602086847E+02 -0.41634322164E+03  0.50175529783E+03  0.19200000000E+03 0.  0.
   -5000001    1    1    2    0    0 -0.18309605873E+03 -0.89602086847E+02 -0.35881487496E+03  0.45515361713E+03  0.19200000000E+03 0.  0.
<mgrwt>
<rscale>  0 0.56107450E+03</rscale>
<asrwt>0</asrwt>
<pdfrwt beam="1">  1        2 0.12371907E+00 0.56107450E+03</pdfrwt>
<pdfrwt beam="2">  1       -2 0.12982202E-01 0.56107450E+03</pdfrwt>
<totfact> 0.15326942E+03</totfact>
</mgrwt>
</event>
<event>
 4    1  0.2058931E-005  0.4646011E+03  0.7818608E-02  0.1023455E+00
         -2   -1    0    0    0  501 -0.00000000000E+00  0.00000000000E+00  0.22710754610E+02  0.22710754753E+02  0.25500000000E-02 0. -1.
          2   -1    0    0  501    0  0.00000000000E+00 -0.00000000000E+00 -0.23761229287E+04  0.23761229287E+04  0.25500000000E-02 0.  1.
    5000001    1    1    2    0    0  0.51898753034E+02  0.94769690936E+02 -0.79641988017E+03  0.82633128975E+03  0.19200000000E+03 0.  0.
   -5000001    1    1    2    0    0 -0.51898753034E+02 -0.94769690936E+02 -0.15569922939E+04  0.15725023937E+04  0.19200000000E+03 0.  0.
<mgrwt>
<rscale>  0 0.46460110E+03</rscale>
<asrwt>0</asrwt>
<pdfrwt beam="1">  1        2 0.33944597E+00 0.46460110E+03</pdfrwt>
<pdfrwt beam="2">  1       -2 0.32443950E-02 0.46460110E+03</pdfrwt>
<totfact> 0.21491006E+03</totfact>
</mgrwt>
</event>
<event>
 4    1  0.2058931E-005  0.5590779E+03  0.7818608E-02  0.9994143E-01
          2   -1    0    0  501    0  0.00000000000E+00  0.00000000000E+00  0.30888681462E+04  0.30888681462E+04  0.25500000000E-02 0.  1.
         -2   -1    0    0    0  501 -0.00000000000E+00 -0.00000000000E+00 -0.25297948130E+02  0.25297948258E+02  0.25500000000E-02 0. -1.
    5000001    1    1    2    0    0  0.13839975499E+02  0.19379397151E+03  0.12008216395E+04  0.12314967552E+04  0.19200000000E+03 0.  0.
   -5000001    1    1    2    0    0 -0.13839975499E+02 -0.19379397151E+03  0.18627485586E+04  0.18826693392E+04  0.19200000000E+03 0.  0.
<mgrwt>
<rscale>  0 0.55907791E+03</rscale>
<asrwt>0</asrwt>
<pdfrwt beam="1">  1        2 0.44126643E+00 0.55907791E+03</pdfrwt>
<pdfrwt beam="2">  1       -2 0.36139962E-02 0.55907791E+03</pdfrwt>
<totfact> 0.76603241E+02</totfact>
</mgrwt>
</event>
<event>
 4    1  0.2058931E-005  0.5184723E+03  0.7818608E-02  0.1009067E+00
         -2   -1    0    0    0  501 -0.00000000000E+00  0.00000000000E+00  0.89486037576E+03  0.89486037576E+03  0.25500000000E-02 0. -1.
          2   -1    0    0  501    0  0.00000000000E+00 -0.00000000000E+00 -0.75099298113E+02  0.75099298156E+02  0.25500000000E-02 0.  1.
    5000001    1    1    2    0    0 -0.11841670862E+03 -0.12420668216E+03  0.46567845980E+03  0.53213743027E+03  0.19200000000E+03 0.  0.
   -5000001    1    1    2    0    0  0.11841670862E+03  0.12420668216E+03  0.35408261784E+03  0.43782224365E+03  0.19200000000E+03 0.  0.
<mgrwt>
<rscale>  0 0.51847232E+03</rscale>
<asrwt>0</asrwt>
<pdfrwt beam="1">  1        2 0.10728472E-01 0.51847232E+03</pdfrwt>
<pdfrwt beam="2">  1       -2 0.12783718E+00 0.51847232E+03</pdfrwt>
<totfact> 0.27926922E+02</totfact>
</mgrwt>
</event>
<event>
 4    1  0.2058931E-005  0.1060785E+04  0.7818608E-02  0.9244280E-01
          2   -1    0    0  501    0  0.00000000000E+00  0.00000000000E+00  0.35920226648E+04  0.35920226648E+04  0.25500000000E-02 0.  1.
         -2   -1    0    0    0  501 -0.00000000000E+00 -0.00000000000E+00 -0.78316915167E+02  0.78316915208E+02  0.25500000000E-02 0. -1.
    5000001    1    1    2    0    0 -0.21431266348E+03 -0.17863995136E+03  0.34454479808E+03  0.48313276419E+03  0.19200000000E+03 0.  0.
   -5000001    1    1    2    0    0  0.21431266348E+03  0.17863995136E+03  0.31691609516E+04  0.31872068158E+04  0.19200000000E+03 0.  0.
<mgrwt>
<rscale>  0 0.10607849E+04</rscale>
<asrwt>0</asrwt>
<pdfrwt beam="1">  1        2 0.51314627E+00 0.10607849E+04</pdfrwt>
<pdfrwt beam="2">  1       -2 0.11188127E-01 0.10607849E+04</pdfrwt>
<totfact> 0.61988129E+01</totfact>
</mgrwt>
</event>
<event>
 4    1  0.2058931E-005  0.6469094E+03  0.7818608E-02  0.9812596E-01
          2   -1    0    0  501    0  0.00000000000E+00  0.00000000000E+00  0.14772653816E+04  0.14772653816E+04  0.25500000000E-02 0.  1.
         -2   -1    0    0    0  501 -0.00000000000E+00 -0.00000000000E+00 -0.70822029762E+02  0.70822029808E+02  0.25500000000E-02 0. -1.
    5000001    1    1    2    0    0 -0.19133501702E+03  0.17160023434E+03  0.80198264284E+03  0.86376842300E+03  0.19200000000E+03 0.  0.
   -5000001    1    1    2    0    0  0.19133501702E+03 -0.17160023434E+03  0.60446070900E+03  0.68431898840E+03  0.19200000000E+03 0.  0.
<mgrwt>
<rscale>  0 0.64690937E+03</rscale>
<asrwt>0</asrwt>
<pdfrwt beam="1">  1        2 0.21103791E+00 0.64690937E+03</pdfrwt>
<pdfrwt beam="2">  1       -2 0.10117433E-01 0.64690937E+03</pdfrwt>
<totfact> 0.10255398E+03</totfact>
</mgrwt>
</event>
<event>
 4    1  0.2058931E-005  0.5400081E+03  0.7818608E-02  0.1003833E+00
          2   -1    0    0  501    0  0.00000000000E+00  0.00000000000E+00  0.15079981468E+04  0.15079981468E+04  0.25500000000E-02 0.  1.
         -2   -1    0    0    0  501 -0.00000000000E+00 -0.00000000000E+00 -0.48343684352E+02  0.48343684419E+02  0.25500000000E-02 0. -1.
    5000001    1    1    2    0    0  0.18377247727E+03 -0.15166484572E+02  0.85986713087E+03  0.90013211720E+03  0.19200000000E+03 0.  0.
   -5000001    1    1    2    0    0 -0.18377247727E+03  0.15166484572E+02  0.59978733156E+03  0.65620971400E+03  0.19200000000E+03 0.  0.
<mgrwt>
<rscale>  0 0.54000810E+03</rscale>
<asrwt>0</asrwt>
<pdfrwt beam="1">  1        2 0.21542830E+00 0.54000810E+03</pdfrwt>
<pdfrwt beam="2">  1       -2 0.69062409E-02 0.54000810E+03</pdfrwt>
<totfact> 0.18267567E+03</totfact>
</mgrwt>
</event>
<event>
 4    1  0.2058931E-005  0.5026837E+03  0.7818608E-02  0.1013081E+00
         -2   -1    0    0    0  501 -0.00000000000E+00  0.00000000000E+00  0.26186392078E+02  0.26186392203E+02  0.25500000000E-02 0. -1.
          2   -1    0    0  501    0  0.00000000000E+00 -0.00000000000E+00 -0.24124256270E+04  0.24124256270E+04  0.25500000000E-02 0.  1.
    5000001    1    1    2    0    0  0.61658744410E+02  0.14751272657E+03 -0.10605376557E+04  0.10895714407E+04  0.19200000000E+03 0.  0.
   -5000001    1    1    2    0    0 -0.61658744410E+02 -0.14751272657E+03 -0.13257015793E+04  0.13490405785E+04  0.19200000000E+03 0.  0.
<mgrwt>
<rscale>  0 0.50268369E+03</rscale>
<asrwt>0</asrwt>
<pdfrwt beam="1">  1        2 0.34463209E+00 0.50268369E+03</pdfrwt>
<pdfrwt beam="2">  1       -2 0.37409147E-02 0.50268369E+03</pdfrwt>
<totfact> 0.16554611E+03</totfact>
</mgrwt>
</event>
<event>
 4    1  0.2058931E-005  0.7994124E+03  0.7818608E-02  0.9560868E-01
         -2   -1    0    0    0  501 -0.00000000000E+00  0.00000000000E+00  0.12333544312E+03  0.12333544315E+03  0.25500000000E-02 0. -1.
          2   -1    0    0  501    0  0.00000000000E+00 -0.00000000000E+00 -0.12953702278E+04  0.12953702278E+04  0.25500000000E-02 0.  1.
    5000001    1    1    2    0    0 -0.26857168911E+03  0.47907381475E+01 -0.18623089538E+03  0.37907736645E+03  0.19200000000E+03 0.  0.
   -5000001    1    1    2    0    0  0.26857168911E+03 -0.47907381475E+01 -0.98580388926E+03  0.10396283045E+04  0.19200000000E+03 0.  0.
<mgrwt>
<rscale>  0 0.79941244E+03</rscale>
<asrwt>0</asrwt>
<pdfrwt beam="1">  1        2 0.18505288E+00 0.79941244E+03</pdfrwt>
<pdfrwt beam="2">  1       -2 0.17619350E-01 0.79941244E+03</pdfrwt>
<totfact> 0.50480504E+02</totfact>
</mgrwt>
</event>
<event>
 4    1  0.2058931E-005  0.7272873E+03  0.7818608E-02  0.9671673E-01
         -2   -1    0    0    0  501 -0.00000000000E+00  0.00000000000E+00  0.10968052582E+03  0.10968052585E+03  0.25500000000E-02 0. -1.
          2   -1    0    0  501    0  0.00000000000E+00 -0.00000000000E+00 -0.12056534394E+04  0.12056534394E+04  0.25500000000E-02 0.  1.
    5000001    1    1    2    0    0 -0.23190463186E+03 -0.13208203205E+03 -0.82902388154E+03  0.89183519646E+03  0.19200000000E+03 0.  0.
   -5000001    1    1    2    0    0  0.23190463186E+03  0.13208203205E+03 -0.26694903203E+03  0.42349876879E+03  0.19200000000E+03 0.  0.
<mgrwt>
<rscale>  0 0.72728730E+03</rscale>
<asrwt>0</asrwt>
<pdfrwt beam="1">  1        2 0.17223620E+00 0.72728730E+03</pdfrwt>
<pdfrwt beam="2">  1       -2 0.15668647E-01 0.72728730E+03</pdfrwt>
<totfact> 0.69425364E+02</totfact>
</mgrwt>
</event>
<event>
 4    1  0.2058931E-005  0.8201369E+03  0.7818608E-02  0.9531319E-01
          2   -1    0    0  501    0  0.00000000000E+00  0.00000000000E+00  0.15330013508E+04  0.15330013508E+04  0.25500000000E-02 0.  1.
         -2   -1    0    0    0  501 -0.00000000000E+00 -0.00000000000E+00 -0.10969078073E+03  0.10969078076E+03  0.25500000000E-02 0. -1.
    5000001    1    1    2    0    0  0.13844345821E+03 -0.19044353815E+03  0.16000092093E+03  0.34336515117E+03  0.19200000000E+03 0.  0.
   -5000001    1    1    2    0    0 -0.13844345821E+03  0.19044353815E+03  0.12633096492E+04  0.12993269804E+04  0.19200000000E+03 0.  0.
<mgrwt>
<rscale>  0 0.82013685E+03</rscale>
<asrwt>0</asrwt>
<pdfrwt beam="1">  1        2 0.21900018E+00 0.82013685E+03</pdfrwt>
<pdfrwt beam="2">  1       -2 0.15670112E-01 0.82013685E+03</pdfrwt>
<totfact> 0.45978830E+02</totfact>
</mgrwt>
</event>
<event>
 4    1  0.2058931E-005  0.1271362E+04  0.7818608E-02  0.9052589E-01
         -2   -1    0    0    0  501 -0.00000000000E+00  0.00000000000E+00  0.13673818102E+03  0.13673818105E+03  0.25500000000E-02 0. -1.
          2   -1    0    0  501    0  0.00000000000E+00 -0.00000000000E+00 -0.29552127911E+04  0.29552127911E+04  0.25500000000E-02 0.  1.
    5000001    1    1    2    0    0  0.59755561656E+03 -0.97530291448E+02 -0.14708369547E+04  0.16021267802E+04  0.19200000000E+03 0.  0.
   -5000001    1    1    2    0    0 -0.59755561656E+03  0.97530291448E+02 -0.13476376554E+04  0.14898241919E+04  0.19200000000E+03 0.  0.
<mgrwt>
<rscale>  0 0.12713621E+04</rscale>
<asrwt>0</asrwt>
<pdfrwt beam="1">  1        2 0.42217322E+00 0.12713621E+04</pdfrwt>
<pdfrwt beam="2">  1       -2 0.19534028E-01 0.12713621E+04</pdfrwt>
<totfact> 0.55173943E+01</totfact>
</mgrwt>
</event>
<event>
 4    1  0.2058931E-005  0.7707498E+03  0.7818608E-02  0.9603348E-01
         -2   -1    0    0    0  501 -0.00000000000E+00  0.00000000000E+00  0.33514364178E+03  0.33514364179E+03  0.25500000000E-02 0. -1.
          2   -1    0    0  501    0  0.00000000000E+00 -0.00000000000E+00 -0.44313481523E+03  0.44313481524E+03  0.25500000000E-02 0.  1.
    5000001    1    1    2    0    0 -0.25403914187E+03  0.13331070485E+03 -0.22696440537E+03  0.41313977167E+03  0.19200000000E+03 0.  0.
   -5000001    1    1    2    0    0  0.25403914187E+03 -0.13331070485E+03  0.11897323191E+03  0.36513868536E+03  0.19200000000E+03 0.  0.
<mgrwt>
<rscale>  0 0.77074981E+03</rscale>
<asrwt>0</asrwt>
<pdfrwt beam="1">  1        2 0.63304973E-01 0.77074981E+03</pdfrwt>
<pdfrwt beam="2">  1       -2 0.47877664E-01 0.77074981E+03</pdfrwt>
<totfact> 0.32064860E+02</totfact>
</mgrwt>
</event>
<event>
 4    1  0.2058931E-005  0.5723690E+03  0.7818608E-02  0.9964450E-01
          2   -1    0    0  501    0  0.00000000000E+00  0.00000000000E+00  0.41242111725E+03  0.41242111726E+03  0.25500000000E-02 0.  1.
         -2   -1    0    0    0  501 -0.00000000000E+00 -0.00000000000E+00 -0.19858722699E+03  0.19858722700E+03  0.25500000000E-02 0. -1.
    5000001    1    1    2    0    0  0.19810327307E+03  0.13732817822E+02  0.27002962038E+02  0.27753676702E+03  0.19200000000E+03 0.  0.
   -5000001    1    1    2    0    0 -0.19810327307E+03 -0.13732817822E+02  0.18683092822E+03  0.33347157724E+03  0.19200000000E+03 0.  0.
<mgrwt>
<rscale>  0 0.57236899E+03</rscale>
<asrwt>0</asrwt>
<pdfrwt beam="1">  1        2 0.58917303E-01 0.57236899E+03</pdfrwt>
<pdfrwt beam="2">  1       -2 0.28369604E-01 0.57236899E+03</pdfrwt>
<totfact> 0.95244286E+02</totfact>
</mgrwt>
</event>
<event>
 4    1  0.2058931E-005  0.6199821E+03  0.7818608E-02  0.9864795E-01
         -2   -1    0    0    0  501 -0.00000000000E+00  0.00000000000E+00  0.50519114059E+03  0.50519114059E+03  0.25500000000E-02 0. -1.
          2   -1    0    0  501    0  0.00000000000E+00 -0.00000000000E+00 -0.19021407654E+03  0.19021407656E+03  0.25500000000E-02 0.  1.
    5000001    1    1    2    0    0  0.19307630962E+02 -0.23568802738E+03  0.22200882681E+03  0.37692645177E+03  0.19200000000E+03 0.  0.
   -5000001    1    1    2    0    0 -0.19307630962E+02  0.23568802738E+03  0.92968237240E+02  0.31847876538E+03  0.19200000000E+03 0.  0.
<mgrwt>
<rscale>  0 0.61998215E+03</rscale>
<asrwt>0</asrwt>
<pdfrwt beam="1">  1        2 0.27173439E-01 0.61998215E+03</pdfrwt>
<pdfrwt beam="2">  1       -2 0.72170163E-01 0.61998215E+03</pdfrwt>
<totfact> 0.34962990E+02</totfact>
</mgrwt>
</event>
<event>
 4    1  0.2058931E-005  0.7957074E+03  0.7818608E-02  0.9566251E-01
          2   -1    0    0  501    0  0.00000000000E+00  0.00000000000E+00  0.30607558558E+04  0.30607558558E+04  0.25500000000E-02 0.  1.
         -2   -1    0    0    0  501 -0.00000000000E+00 -0.00000000000E+00 -0.51715190901E+02  0.51715190964E+02  0.25500000000E-02 0. -1.
    5000001    1    1    2    0    0  0.16167842270E+03 -0.28921287333E+03  0.10825125349E+04  0.11482514475E+04  0.19200000000E+03 0.  0.
   -5000001    1    1    2    0    0 -0.16167842270E+03  0.28921287333E+03  0.19265281299E+04  0.19642195992E+04  0.19200000000E+03 0.  0.
<mgrwt>
<rscale>  0 0.79570742E+03</rscale>
<asrwt>0</asrwt>
<pdfrwt beam="1">  1        2 0.43725097E+00 0.79570742E+03</pdfrwt>
<pdfrwt beam="2">  1       -2 0.73878821E-02 0.79570742E+03</pdfrwt>
<totfact> 0.25447290E+02</totfact>
</mgrwt>
</event>
<event>
 4    1  0.2058931E-005  0.6178130E+03  0.7818608E-02  0.9869124E-01
          2   -1    0    0  501    0  0.00000000000E+00  0.00000000000E+00  0.10270974458E+04  0.10270974458E+04  0.25500000000E-02 0.  1.
         -2   -1    0    0    0  501 -0.00000000000E+00 -0.00000000000E+00 -0.92905722295E+02  0.92905722330E+02  0.25500000000E-02 0. -1.
    5000001    1    1    2    0    0  0.46517476121E+02  0.19855330014E+03  0.23092410396E+03  0.36301133642E+03  0.19200000000E+03 0.  0.
   -5000001    1    1    2    0    0 -0.46517476121E+02 -0.19855330014E+03  0.70326761956E+03  0.75699183173E+03  0.19200000000E+03 0.  0.
<mgrwt>
<rscale>  0 0.61781301E+03</rscale>
<asrwt>0</asrwt>
<pdfrwt beam="1">  1        2 0.14672820E+00 0.61781301E+03</pdfrwt>
<pdfrwt beam="2">  1       -2 0.13272247E-01 0.61781301E+03</pdfrwt>
<totfact> 0.11692785E+03</totfact>
</mgrwt>
</event>
<event>
 4    1  0.2058931E-005  0.1198845E+04  0.7818608E-02  0.9113868E-01
         -2   -1    0    0    0  501 -0.00000000000E+00  0.00000000000E+00  0.22131800438E+03  0.22131800439E+03  0.25500000000E-02 0. -1.
          2   -1    0    0  501    0  0.00000000000E+00 -0.00000000000E+00 -0.16234898184E+04  0.16234898184E+04  0.25500000000E-02 0.  1.
    5000001    1    1    2    0    0  0.48403536740E+03 -0.28518348191E+03 -0.57397083904E+03  0.82578833809E+03  0.19200000000E+03 0.  0.
   -5000001    1    1    2    0    0 -0.48403536740E+03  0.28518348191E+03 -0.82820097501E+03  0.10190194847E+04  0.19200000000E+03 0.  0.
<mgrwt>
<rscale>  0 0.11988453E+04</rscale>
<asrwt>0</asrwt>
<pdfrwt beam="1">  1        2 0.23192711E+00 0.11988453E+04</pdfrwt>
<pdfrwt beam="2">  1       -2 0.31616859E-01 0.11988453E+04</pdfrwt>
<totfact> 0.11524480E+02</totfact>
</mgrwt>
</event>
<event>
 4    1  0.2058931E-005  0.5387031E+03  0.7818608E-02  0.1004143E+00
          2   -1    0    0  501    0  0.00000000000E+00  0.00000000000E+00  0.22699185451E+04  0.22699185451E+04  0.25500000000E-02 0.  1.
         -2   -1    0    0    0  501 -0.00000000000E+00 -0.00000000000E+00 -0.31961613590E+02  0.31961613692E+02  0.25500000000E-02 0. -1.
    5000001    1    1    2    0    0  0.14137724514E+03 -0.64294469676E+02  0.15784993005E+04  0.15977000175E+04  0.19200000000E+03 0.  0.
   -5000001    1    1    2    0    0 -0.14137724514E+03  0.64294469676E+02  0.65945763095E+03  0.70418014122E+03  0.19200000000E+03 0.  0.
<mgrwt>
<rscale>  0 0.53870311E+03</rscale>
<asrwt>0</asrwt>
<pdfrwt beam="1">  1        2 0.32427419E+00 0.53870311E+03</pdfrwt>
<pdfrwt beam="2">  1       -2 0.45659432E-02 0.53870311E+03</pdfrwt>
<totfact> 0.14362235E+03</totfact>
</mgrwt>
</event>
<event>
 4    1  0.2058931E-005  0.5270675E+03  0.7818608E-02  0.1006946E+00
         -2   -1    0    0    0  501 -0.00000000000E+00  0.00000000000E+00  0.72814594354E+02  0.72814594399E+02  0.25500000000E-02 0. -1.
          2   -1    0    0  501    0  0.00000000000E+00 -0.00000000000E+00 -0.95379270347E+03  0.95379270348E+03  0.25500000000E-02 0.  1.
    5000001    1    1    2    0    0 -0.29081138800E+02  0.15637836713E+03 -0.27422959277E+03  0.37062889242E+03  0.19200000000E+03 0.  0.
   -5000001    1    1    2    0    0  0.29081138800E+02 -0.15637836713E+03 -0.60674851634E+03  0.65597840546E+03  0.19200000000E+03 0.  0.
<mgrwt>
<rscale>  0 0.52706747E+03</rscale>
<asrwt>0</asrwt>
<pdfrwt beam="1">  1        2 0.13625609E+00 0.52706747E+03</pdfrwt>
<pdfrwt beam="2">  1       -2 0.10402086E-01 0.52706747E+03</pdfrwt>
<totfact> 0.19368469E+03</totfact>
</mgrwt>
</event>
<event>
 4    1  0.2058931E-005  0.5984942E+03  0.7818608E-02  0.9908535E-01
         -2   -1    0    0    0  501 -0.00000000000E+00  0.00000000000E+00  0.54488415031E+02  0.54488415090E+02  0.25500000000E-02 0. -1.
          2   -1    0    0  501    0  0.00000000000E+00 -0.00000000000E+00 -0.16434469454E+04  0.16434469454E+04  0.25500000000E-02 0.  1.
    5000001    1    1    2    0    0 -0.14416668799E+03 -0.15434305361E+03 -0.10494792895E+04  0.10876013016E+04  0.19200000000E+03 0.  0.
   -5000001    1    1    2    0    0  0.14416668799E+03  0.15434305361E+03 -0.53947924081E+03  0.61033405885E+03  0.19200000000E+03 0.  0.
<mgrwt>
<rscale>  0 0.59849417E+03</rscale>
<asrwt>0</asrwt>
<pdfrwt beam="1">  1        2 0.23477810E+00 0.59849417E+03</pdfrwt>
<pdfrwt beam="2">  1       -2 0.77840604E-02 0.59849417E+03</pdfrwt>
<totfact> 0.12847786E+03</totfact>
</mgrwt>
</event>
<event>
 4    1  0.2058931E-005  0.4256448E+03  0.7818608E-02  0.1035245E+00
          2   -1    0    0  501    0  0.00000000000E+00  0.00000000000E+00  0.73755602770E+03  0.73755602770E+03  0.25500000000E-02 0.  1.
         -2   -1    0    0    0  501 -0.00000000000E+00 -0.00000000000E+00 -0.61410085029E+02  0.61410085082E+02  0.25500000000E-02 0. -1.
    5000001    1    1    2    0    0  0.82141589601E+02 -0.16264110276E+02  0.26739885837E+03  0.33967324223E+03  0.19200000000E+03 0.  0.
   -5000001    1    1    2    0    0 -0.82141589601E+02  0.16264110276E+02  0.40874708430E+03  0.45929287056E+03  0.19200000000E+03 0.  0.
<mgrwt>
<rscale>  0 0.42564482E+03</rscale>
<asrwt>0</asrwt>
<pdfrwt beam="1">  1        2 0.10536515E+00 0.42564482E+03</pdfrwt>
<pdfrwt beam="2">  1       -2 0.87728692E-02 0.42564482E+03</pdfrwt>
<totfact> 0.35457098E+03</totfact>
</mgrwt>
</event>
<event>
 4    1  0.2058931E-005  0.5157140E+03  0.7818608E-02  0.1009757E+00
          2   -1    0    0  501    0  0.00000000000E+00  0.00000000000E+00  0.15020189607E+04  0.15020189607E+04  0.25500000000E-02 0.  1.
         -2   -1    0    0    0  501 -0.00000000000E+00 -0.00000000000E+00 -0.44267235115E+02  0.44267235189E+02  0.25500000000E-02 0. -1.
    5000001    1    1    2    0    0 -0.10202983025E+03 -0.12354805973E+03  0.91736676394E+03  0.95084172652E+03  0.19200000000E+03 0.  0.
   -5000001    1    1    2    0    0  0.10202983025E+03  0.12354805973E+03  0.54038496163E+03  0.59544446935E+03  0.19200000000E+03 0.  0.
<mgrwt>
<rscale>  0 0.51571398E+03</rscale>
<asrwt>0</asrwt>
<pdfrwt beam="1">  1        2 0.21457405E+00 0.51571398E+03</pdfrwt>
<pdfrwt beam="2">  1       -2 0.63238933E-02 0.51571398E+03</pdfrwt>
<totfact> 0.21141095E+03</totfact>
</mgrwt>
</event>
<event>
 4    1  0.2058931E-005  0.7356119E+03  0.7818608E-02  0.9658197E-01
          2   -1    0    0  501    0  0.00000000000E+00  0.00000000000E+00  0.38719324170E+03  0.38719324171E+03  0.25500000000E-02 0.  1.
         -2   -1    0    0    0  501 -0.00000000000E+00 -0.00000000000E+00 -0.34938942967E+03  0.34938942968E+03  0.25500000000E-02 0. -1.
    5000001    1    1    2    0    0 -0.28668316980E+03 -0.65508078501E+01  0.14629823069E+03  0.37482972832E+03  0.19200000000E+03 0.  0.
   -5000001    1    1    2    0    0  0.28668316980E+03  0.65508078501E+01 -0.10849441866E+03  0.36175294306E+03  0.19200000000E+03 0.  0.
<mgrwt>
<rscale>  0 0.73561192E+03</rscale>
<asrwt>0</asrwt>
<pdfrwt beam="1">  1        2 0.55313321E-01 0.73561192E+03</pdfrwt>
<pdfrwt beam="2">  1       -2 0.49912775E-01 0.73561192E+03</pdfrwt>
<totfact> 0.34326529E+02</totfact>
</mgrwt>
</event>
<event>
 4    1  0.2058931E-005  0.3894936E+03  0.7818608E-02  0.1047480E+00
          2   -1    0    0  501    0  0.00000000000E+00  0.00000000000E+00  0.85656122103E+03  0.85656122103E+03  0.25500000000E-02 0.  1.
         -2   -1    0    0    0  501 -0.00000000000E+00 -0.00000000000E+00 -0.44277423253E+02  0.44277423327E+02  0.25500000000E-02 0. -1.
    5000001    1    1    2    0    0 -0.30597050511E+02 -0.10458812763E+02  0.41560974527E+03  0.45895645396E+03  0.19200000000E+03 0.  0.
   -5000001    1    1    2    0    0  0.30597050511E+02  0.10458812763E+02  0.39667405250E+03  0.44188219040E+03  0.19200000000E+03 0.  0.
<mgrwt>
<rscale>  0 0.38949364E+03</rscale>
<asrwt>0</asrwt>
<pdfrwt beam="1">  1        2 0.12236587E+00 0.38949364E+03</pdfrwt>
<pdfrwt beam="2">  1       -2 0.63253470E-02 0.38949364E+03</pdfrwt>
<totfact> 0.49066085E+03</totfact>
</mgrwt>
</event>
<event>
 4    1  0.2058931E-005  0.4615485E+03  0.7818608E-02  0.1024333E+00
         -2   -1    0    0    0  501 -0.00000000000E+00  0.00000000000E+00  0.16832406621E+03  0.16832406623E+03  0.25500000000E-02 0. -1.
          2   -1    0    0  501    0  0.00000000000E+00 -0.00000000000E+00 -0.31639423433E+03  0.31639423434E+03  0.25500000000E-02 0.  1.
    5000001    1    1    2    0    0 -0.11529255289E+03  0.25439670861E+02 -0.22018744066E+02  0.22646936812E+03  0.19200000000E+03 0.  0.
   -5000001    1    1    2    0    0  0.11529255289E+03 -0.25439670861E+02 -0.12605142406E+03  0.25824893245E+03  0.19200000000E+03 0.  0.
<mgrwt>
<rscale>  0 0.46154854E+03</rscale>
<asrwt>0</asrwt>
<pdfrwt beam="1">  1        2 0.45199176E-01 0.46154854E+03</pdfrwt>
<pdfrwt beam="2">  1       -2 0.24046295E-01 0.46154854E+03</pdfrwt>
<totfact> 0.17176242E+03</totfact>
</mgrwt>
</event>
<event>
 4    1  0.2058931E-005  0.5702412E+03  0.7818608E-02  0.9969145E-01
          2   -1    0    0  501    0  0.00000000000E+00  0.00000000000E+00  0.24240005550E+04  0.24240005550E+04  0.25500000000E-02 0.  1.
         -2   -1    0    0    0  501 -0.00000000000E+00 -0.00000000000E+00 -0.33537026074E+02  0.33537026171E+02  0.25500000000E-02 0. -1.
    5000001    1    1    2    0    0  0.17831891641E+03  0.64170650632E+02  0.79756890170E+03  0.84195941785E+03  0.19200000000E+03 0.  0.
   -5000001    1    1    2    0    0 -0.17831891641E+03 -0.64170650632E+02  0.15928946272E+04  0.16155781633E+04  0.19200000000E+03 0.  0.
<mgrwt>
<rscale>  0 0.57024125E+03</rscale>
<asrwt>0</asrwt>
<pdfrwt beam="1">  1        2 0.34628581E+00 0.57024125E+03</pdfrwt>
<pdfrwt beam="2">  1       -2 0.47910035E-02 0.57024125E+03</pdfrwt>
<totfact> 0.11119488E+03</totfact>
</mgrwt>
</event>
<event>
 4    1  0.2058931E-005  0.4474937E+03  0.7818608E-02  0.1028472E+00
          2   -1    0    0  501    0  0.00000000000E+00  0.00000000000E+00  0.25560079317E+03  0.25560079318E+03  0.25500000000E-02 0.  1.
         -2   -1    0    0    0  501 -0.00000000000E+00 -0.00000000000E+00 -0.19586267994E+03  0.19586267995E+03  0.25500000000E-02 0. -1.
    5000001    1    1    2    0    0  0.61414431580E+02  0.96358526618E+02  0.41889377511E+02  0.22732227785E+03  0.19200000000E+03 0.  0.
   -5000001    1    1    2    0    0 -0.61414431580E+02 -0.96358526618E+02  0.17848735725E+02  0.22414119529E+03  0.19200000000E+03 0.  0.
<mgrwt>
<rscale>  0 0.44749372E+03</rscale>
<asrwt>0</asrwt>
<pdfrwt beam="1">  1        2 0.36514399E-01 0.44749372E+03</pdfrwt>
<pdfrwt beam="2">  1       -2 0.27980383E-01 0.44749372E+03</pdfrwt>
<totfact> 0.16531689E+03</totfact>
</mgrwt>
</event>
<event>
 4    1  0.2058931E-005  0.4602303E+03  0.7818608E-02  0.1024714E+00
         -2   -1    0    0    0  501 -0.00000000000E+00  0.00000000000E+00  0.34728573317E+02  0.34728573411E+02  0.25500000000E-02 0.  1.
          2   -1    0    0  501    0  0.00000000000E+00 -0.00000000000E+00 -0.15247672037E+04  0.15247672037E+04  0.25500000000E-02 0. -1.
    5000001    1    1    2    0    0 -0.81669269817E+02  0.59467129392E+02 -0.48512289941E+03  0.53142679331E+03  0.19200000000E+03 0.  0.
   -5000001    1    1    2    0    0  0.81669269817E+02 -0.59467129392E+02 -0.10049157310E+04  0.10280689838E+04  0.19200000000E+03 0.  0.
<mgrwt>
<rscale>  0 0.46023033E+03</rscale>
<asrwt>0</asrwt>
<pdfrwt beam="1">  1        2 0.21782385E+00 0.46023033E+03</pdfrwt>
<pdfrwt beam="2">  1       -2 0.49612257E-02 0.46023033E+03</pdfrwt>
<totfact> 0.30023964E+03</totfact>
</mgrwt>
</event>
<event>
 4    1  0.2058931E-005  0.8451166E+03  0.7818608E-02  0.9496915E-01
         -2   -1    0    0    0  501 -0.00000000000E+00  0.00000000000E+00  0.18913223511E+03  0.18913223513E+03  0.25500000000E-02 0. -1.
          2   -1    0    0  501    0  0.00000000000E+00 -0.00000000000E+00 -0.94407767686E+03  0.94407767686E+03  0.25500000000E-02 0.  1.
    5000001    1    1    2    0    0 -0.34531822415E+03 -0.13250185635E+03 -0.47124030858E+03  0.62907300553E+03  0.19200000000E+03 0.  0.
   -5000001    1    1    2    0    0  0.34531822415E+03  0.13250185635E+03 -0.28370513317E+03  0.50413690646E+03  0.19200000000E+03 0.  0.
<mgrwt>
<rscale>  0 0.84511661E+03</rscale>
<asrwt>0</asrwt>
<pdfrwt beam="1">  1        2 0.13486824E+00 0.84511661E+03</pdfrwt>
<pdfrwt beam="2">  1       -2 0.27018891E-01 0.84511661E+03</pdfrwt>
<totfact> 0.37940008E+02</totfact>
</mgrwt>
</event>
<event>
 4    1  0.2058931E-005  0.5123945E+03  0.7818608E-02  0.1010593E+00
         -2   -1    0    0    0  501 -0.00000000000E+00  0.00000000000E+00  0.42806993866E+02  0.42806993942E+02  0.25500000000E-02 0. -1.
          2   -1    0    0  501    0  0.00000000000E+00 -0.00000000000E+00 -0.15333252217E+04  0.15333252217E+04  0.25500000000E-02 0.  1.
    5000001    1    1    2    0    0  0.67057874895E+02 -0.78104439604E+02 -0.33055620725E+03  0.39588946466E+03  0.19200000000E+03 0.  0.
   -5000001    1    1    2    0    0 -0.67057874895E+02  0.78104439604E+02 -0.11599620206E+04  0.11802427510E+04  0.19200000000E+03 0.  0.
<mgrwt>
<rscale>  0 0.51239455E+03</rscale>
<asrwt>0</asrwt>
<pdfrwt beam="1">  1        2 0.21904643E+00 0.51239455E+03</pdfrwt>
<pdfrwt beam="2">  1       -2 0.61152858E-02 0.51239455E+03</pdfrwt>
<totfact> 0.21466559E+03</totfact>
</mgrwt>
</event>
<event>
 4    1  0.2058931E-005  0.7093201E+03  0.7818608E-02  0.9701425E-01
          2   -1    0    0  501    0  0.00000000000E+00  0.00000000000E+00  0.19711946590E+04  0.19711946590E+04  0.25500000000E-02 0.  1.
         -2   -1    0    0    0  501 -0.00000000000E+00 -0.00000000000E+00 -0.63810923903E+02  0.63810923954E+02  0.25500000000E-02 0. -1.
    5000001    1    1    2    0    0 -0.27223408817E+03  0.96798845407E+02  0.11652629960E+04  0.12158056033E+04  0.19200000000E+03 0.  0.
   -5000001    1    1    2    0    0  0.27223408817E+03 -0.96798845407E+02  0.74212073916E+03  0.81919997969E+03  0.19200000000E+03 0.  0.
<mgrwt>
<rscale>  0 0.70932010E+03</rscale>
<asrwt>0</asrwt>
<pdfrwt beam="1">  1        2 0.28159921E+00 0.70932010E+03</pdfrwt>
<pdfrwt beam="2">  1       -2 0.91158473E-02 0.70932010E+03</pdfrwt>
<totfact> 0.67651309E+02</totfact>
</mgrwt>
</event>
<event>
 4    1  0.2058931E-005  0.4716687E+03  0.7818608E-02  0.1021450E+00
          2   -1    0    0  501    0  0.00000000000E+00  0.00000000000E+00  0.59077365181E+03  0.59077365181E+03  0.25500000000E-02 0.  1.
         -2   -1    0    0    0  501 -0.00000000000E+00 -0.00000000000E+00 -0.94144082254E+02  0.94144082288E+02  0.25500000000E-02 0. -1.
    5000001    1    1    2    0    0  0.63274967903E+02  0.10087836145E+03  0.34651990513E+03  0.41366678622E+03  0.19200000000E+03 0.  0.
   -5000001    1    1    2    0    0 -0.63274967903E+02 -0.10087836145E+03  0.15010966442E+03  0.27125094788E+03  0.19200000000E+03 0.  0.
<mgrwt>
<rscale>  0 0.47166871E+03</rscale>
<asrwt>0</asrwt>
<pdfrwt beam="1">  1        2 0.84396233E-01 0.47166871E+03</pdfrwt>
<pdfrwt beam="2">  1       -2 0.13449155E-01 0.47166871E+03</pdfrwt>
<totfact> 0.23129956E+03</totfact>
</mgrwt>
</event>
<event>
 4    1  0.2058931E-005  0.8296149E+03  0.7818608E-02  0.9518113E-01
          2   -1    0    0  501    0  0.00000000000E+00  0.00000000000E+00  0.11315827185E+04  0.11315827185E+04  0.25500000000E-02 0. -1.
         -2   -1    0    0    0  501 -0.00000000000E+00 -0.00000000000E+00 -0.15205714037E+03  0.15205714039E+03  0.25500000000E-02 0.  1.
    5000001    1    1    2    0    0  0.27644013649E+03  0.45101823356E+02  0.85835110717E+03  0.92308393265E+03  0.19200000000E+03 0.  0.
   -5000001    1    1    2    0    0 -0.27644013649E+03 -0.45101823356E+02  0.12117447096E+03  0.36055592624E+03  0.19200000000E+03 0.  0.
<mgrwt>
<rscale>  0 0.82961493E+03</rscale>
<asrwt>0</asrwt>
<pdfrwt beam="1">  1        2 0.16165468E+00 0.82961493E+03</pdfrwt>
<pdfrwt beam="2">  1       -2 0.21722448E-01 0.82961493E+03</pdfrwt>
<totfact> 0.43268331E+02</totfact>
</mgrwt>
</event>
<event>
 4    1  0.2058931E-005  0.5393927E+03  0.7818608E-02  0.1003979E+00
          2   -1    0    0  501    0  0.00000000000E+00  0.00000000000E+00  0.48996726233E+03  0.48996726233E+03  0.25500000000E-02 0.  1.
         -2   -1    0    0    0  501 -0.00000000000E+00 -0.00000000000E+00 -0.14845096128E+03  0.14845096130E+03  0.25500000000E-02 0. -1.
    5000001    1    1    2    0    0  0.15229013405E+03 -0.31385580861E+02  0.29875406605E+03  0.38767941859E+03  0.19200000000E+03 0.  0.
   -5000001    1    1    2    0    0 -0.15229013405E+03  0.31385580861E+02  0.42762234996E+02  0.25073880504E+03  0.19200000000E+03 0.  0.
<mgrwt>
<rscale>  0 0.53939266E+03</rscale>
<asrwt>0</asrwt>
<pdfrwt beam="1">  1        2 0.69995324E-01 0.53939266E+03</pdfrwt>
<pdfrwt beam="2">  1       -2 0.21207280E-01 0.53939266E+03</pdfrwt>
<totfact> 0.13215576E+03</totfact>
</mgrwt>
</event>
<event>
 4    1  0.2058931E-005  0.6211314E+03  0.7818608E-02  0.9862510E-01
         -2   -1    0    0    0  501 -0.00000000000E+00  0.00000000000E+00  0.88591183125E+02  0.88591183162E+02  0.25500000000E-02 0. -1.
          2   -1    0    0  501    0  0.00000000000E+00 -0.00000000000E+00 -0.10887207946E+04  0.10887207946E+04  0.25500000000E-02 0.  1.
    5000001    1    1    2    0    0  0.23590513004E+03 -0.33345625303E+02 -0.39934082467E+03  0.50309070292E+03  0.19200000000E+03 0.  0.
   -5000001    1    1    2    0    0 -0.23590513004E+03  0.33345625303E+02 -0.60078878675E+03  0.67422127480E+03  0.19200000000E+03 0.  0.
<mgrwt>
<rscale>  0 0.62113143E+03</rscale>
<asrwt>0</asrwt>
<pdfrwt beam="1">  1        2 0.15553153E+00 0.62113143E+03</pdfrwt>
<pdfrwt beam="2">  1       -2 0.12655884E-01 0.62113143E+03</pdfrwt>
<totfact> 0.11630331E+03</totfact>
</mgrwt>
</event>
<event>
 4    1  0.2058931E-005  0.4892947E+03  0.7818608E-02  0.1016612E+00
          2   -1    0    0  501    0  0.00000000000E+00  0.00000000000E+00  0.10389648476E+03  0.10389648479E+03  0.25500000000E-02 0.  1.
         -2   -1    0    0    0  501 -0.00000000000E+00 -0.00000000000E+00 -0.57607659962E+03  0.57607659963E+03  0.25500000000E-02 0. -1.
    5000001    1    1    2    0    0  0.10928632135E+03 -0.20306474832E-01 -0.90040325739E+02  0.23856814688E+03  0.19200000000E+03 0.  0.
   -5000001    1    1    2    0    0 -0.10928632135E+03  0.20306474832E-01 -0.38213978912E+03  0.44140493753E+03  0.19200000000E+03 0.  0.
<mgrwt>
<rscale>  0 0.48929473E+03</rscale>
<asrwt>0</asrwt>
<pdfrwt beam="1">  1        2 0.14842355E-01 0.48929473E+03</pdfrwt>
<pdfrwt beam="2">  1       -2 0.82296655E-01 0.48929473E+03</pdfrwt>
<totfact> 0.53107362E+02</totfact>
</mgrwt>
</event>
<event>
 4    1  0.2058931E-005  0.8623390E+03  0.7818608E-02  0.9473924E-01
         -2   -1    0    0    0  501 -0.00000000000E+00  0.00000000000E+00  0.17665455342E+03  0.17665455344E+03  0.25500000000E-02 0. -1.
          2   -1    0    0  501    0  0.00000000000E+00 -0.00000000000E+00 -0.10523766720E+04  0.10523766720E+04  0.25500000000E-02 0.  1.
    5000001    1    1    2    0    0  0.31425351481E+03  0.53639415927E+01 -0.11834536363E+03  0.38685096424E+03  0.19200000000E+03 0.  0.
   -5000001    1    1    2    0    0 -0.31425351481E+03 -0.53639415927E+01 -0.75737675494E+03  0.84218026120E+03  0.19200000000E+03 0.  0.
<mgrwt>
<rscale>  0 0.86233898E+03</rscale>
<asrwt>0</asrwt>
<pdfrwt beam="1">  1        2 0.15033952E+00 0.86233898E+03</pdfrwt>
<pdfrwt beam="2">  1       -2 0.25236365E-01 0.86233898E+03</pdfrwt>
<totfact> 0.36795262E+02</totfact>
</mgrwt>
</event>
<event>
 4    1  0.2058931E-005  0.7073834E+03  0.7818608E-02  0.9704688E-01
         -2   -1    0    0    0  501 -0.00000000000E+00  0.00000000000E+00  0.19144355047E+03  0.19144355049E+03  0.25500000000E-02 0. -1.
          2   -1    0    0  501    0  0.00000000000E+00 -0.00000000000E+00 -0.65344499712E+03  0.65344499712E+03  0.25500000000E-02 0.  1.
    5000001    1    1    2    0    0  0.11940569642E+03  0.26836230599E+03 -0.17815293942E+03  0.39354608045E+03  0.19200000000E+03 0.  0.
   -5000001    1    1    2    0    0 -0.11940569642E+03 -0.26836230599E+03 -0.28384850722E+03  0.45134246716E+03  0.19200000000E+03 0.  0.
<mgrwt>
<rscale>  0 0.70738343E+03</rscale>
<asrwt>0</asrwt>
<pdfrwt beam="1">  1        2 0.93349284E-01 0.70738343E+03</pdfrwt>
<pdfrwt beam="2">  1       -2 0.27349079E-01 0.70738343E+03</pdfrwt>
<totfact> 0.59815273E+02</totfact>
</mgrwt>
</event>
<event>
 4    1  0.2058931E-005  0.1172920E+04  0.7818608E-02  0.9136895E-01
         -2   -1    0    0    0  501 -0.00000000000E+00  0.00000000000E+00  0.12682429232E+04  0.12682429232E+04  0.25500000000E-02 0. -1.
          2   -1    0    0  501    0  0.00000000000E+00 -0.00000000000E+00 -0.27119040662E+03  0.27119040663E+03  0.25500000000E-02 0.  1.
    5000001    1    1    2    0    0 -0.74927043083E+02  0.54357401914E+03  0.60005939848E+03  0.83547714377E+03  0.19200000000E+03 0.  0.
   -5000001    1    1    2    0    0  0.74927043083E+02 -0.54357401914E+03  0.39699311809E+03  0.70395618605E+03  0.19200000000E+03 0.  0.
<mgrwt>
<rscale>  0 0.11729200E+04</rscale>
<asrwt>0</asrwt>
<pdfrwt beam="1">  1        2 0.38741487E-01 0.11729200E+04</pdfrwt>
<pdfrwt beam="2">  1       -2 0.18117756E+00 0.11729200E+04</pdfrwt>
<totfact> 0.23486226E+01</totfact>
</mgrwt>
</event>
<event>
 4    1  0.2058931E-005  0.1032185E+04  0.7818608E-02  0.9273932E-01
         -2   -1    0    0    0  501 -0.00000000000E+00  0.00000000000E+00  0.95414118735E+02  0.95414118769E+02  0.25500000000E-02 0. -1.
          2   -1    0    0  501    0  0.00000000000E+00 -0.00000000000E+00 -0.27915333183E+04  0.27915333183E+04  0.25500000000E-02 0.  1.
    5000001    1    1    2    0    0  0.47695595143E+03  0.44662144062E+02 -0.13549133948E+04  0.14498744753E+04  0.19200000000E+03 0.  0.
   -5000001    1    1    2    0    0 -0.47695595143E+03 -0.44662144062E+02 -0.13412058047E+04  0.14370729617E+04  0.19200000000E+03 0.  0.
<mgrwt>
<rscale>  0 0.10321854E+04</rscale>
<asrwt>0</asrwt>
<pdfrwt beam="1">  1        2 0.39879042E+00 0.10321854E+04</pdfrwt>
<pdfrwt beam="2">  1       -2 0.13630590E-01 0.10321854E+04</pdfrwt>
<totfact> 0.12826532E+02</totfact>
</mgrwt>
</event>
<event>
 4    1  0.2058931E-005  0.4915374E+03  0.7818608E-02  0.1016012E+00
         -2   -1    0    0    0  501 -0.00000000000E+00  0.00000000000E+00  0.18568107420E+02  0.18568107596E+02  0.25500000000E-02 0. -1.
          2   -1    0    0  501    0  0.00000000000E+00 -0.00000000000E+00 -0.32530108183E+04  0.32530108184E+04  0.25500000000E-02 0.  1.
    5000001    1    1    2    0    0 -0.86042984021E+02  0.12680441727E+03 -0.15676370262E+04  0.15867679733E+04  0.19200000000E+03 0.  0.
   -5000001    1    1    2    0    0  0.86042984021E+02 -0.12680441727E+03 -0.16668056847E+04  0.16848109526E+04  0.19200000000E+03 0.  0.
<mgrwt>
<rscale>  0 0.49153740E+03</rscale>
<asrwt>0</asrwt>
<pdfrwt beam="1">  1        2 0.46471547E+00 0.49153740E+03</pdfrwt>
<pdfrwt beam="2">  1       -2 0.26525889E-02 0.49153740E+03</pdfrwt>
<totfact> 0.99916185E+02</totfact>
</mgrwt>
</event>
<event>
 4    1  0.2058931E-005  0.6596833E+03  0.7818608E-02  0.9788777E-01
          2   -1    0    0  501    0  0.00000000000E+00  0.00000000000E+00  0.25565065620E+04  0.25565065620E+04  0.25500000000E-02 0.  1.
         -2   -1    0    0    0  501 -0.00000000000E+00 -0.00000000000E+00 -0.42556317793E+02  0.42556317870E+02  0.25500000000E-02 0. -1.
    5000001    1    1    2    0    0 -0.11673058694E+03 -0.20515873087E+03  0.75527436293E+03  0.81426009240E+03  0.19200000000E+03 0.  0.
   -5000001    1    1    2    0    0  0.11673058694E+03  0.20515873087E+03  0.17586758813E+04  0.17848027874E+04  0.19200000000E+03 0.  0.
<mgrwt>
<rscale>  0 0.65968327E+03</rscale>
<asrwt>0</asrwt>
<pdfrwt beam="1">  1        2 0.36521524E+00 0.65968327E+03</pdfrwt>
<pdfrwt beam="2">  1       -2 0.60794736E-02 0.65968327E+03</pdfrwt>
<totfact> 0.65169335E+02</totfact>
</mgrwt>
</event>
<event>
 4    1  0.2058931E-005  0.4829674E+03  0.7818608E-02  0.1018323E+00
          2   -1    0    0  501    0  0.00000000000E+00  0.00000000000E+00  0.84897660134E+02  0.84897660172E+02  0.25500000000E-02 0.  1.
         -2   -1    0    0    0  501 -0.00000000000E+00 -0.00000000000E+00 -0.68687852135E+03  0.68687852136E+03  0.25500000000E-02 0. -1.
    5000001    1    1    2    0    0  0.52802439280E+02 -0.13592774163E+03 -0.32278002480E+03  0.40288384548E+03  0.19200000000E+03 0.  0.
   -5000001    1    1    2    0    0 -0.52802439280E+02  0.13592774163E+03 -0.27920083642E+03  0.36889233605E+03  0.19200000000E+03 0.  0.
<mgrwt>
<rscale>  0 0.48296741E+03</rscale>
<asrwt>0</asrwt>
<pdfrwt beam="1">  1        2 0.12128237E-01 0.48296741E+03</pdfrwt>
<pdfrwt beam="2">  1       -2 0.98125500E-01 0.48296741E+03</pdfrwt>
<totfact> 0.45444653E+02</totfact>
</mgrwt>
</event>
<event>
 4    1  0.2058931E-005  0.1073295E+04  0.7818608E-02  0.9231618E-01
         -2   -1    0    0    0  501 -0.00000000000E+00  0.00000000000E+00  0.14327395109E+03  0.14327395111E+03  0.25500000000E-02 0. -1.
          2   -1    0    0  501    0  0.00000000000E+00 -0.00000000000E+00 -0.20100692493E+04  0.20100692493E+04  0.25500000000E-02 0.  1.
    5000001    1    1    2    0    0 -0.45843831158E+03 -0.13645999549E+03 -0.12332664716E+04  0.13366365272E+04  0.19200000000E+03 0.  0.
   -5000001    1    1    2    0    0  0.45843831158E+03  0.13645999549E+03 -0.63352882659E+03  0.81670667318E+03  0.19200000000E+03 0.  0.
<mgrwt>
<rscale>  0 0.10732950E+04</rscale>
<asrwt>0</asrwt>
<pdfrwt beam="1">  1        2 0.28715273E+00 0.10732950E+04</pdfrwt>
<pdfrwt beam="2">  1       -2 0.20467709E-01 0.10732950E+04</pdfrwt>
<totfact> 0.16194698E+02</totfact>
</mgrwt>
</event>
<event>
 4    1  0.2058931E-005  0.4838348E+03  0.7818608E-02  0.1018087E+00
          2   -1    0    0  501    0  0.00000000000E+00  0.00000000000E+00  0.10443179526E+04  0.10443179526E+04  0.25500000000E-02 0.  1.
         -2   -1    0    0    0  501 -0.00000000000E+00 -0.00000000000E+00 -0.56040425875E+02  0.56040425933E+02  0.25500000000E-02 0. -1.
    5000001    1    1    2    0    0  0.12814612452E+03 -0.32337106587E+02  0.34687544153E+03  0.41791588823E+03  0.19200000000E+03 0.  0.
   -5000001    1    1    2    0    0 -0.12814612452E+03  0.32337106587E+02  0.64140208519E+03  0.68244249031E+03  0.19200000000E+03 0.  0.
<mgrwt>
<rscale>  0 0.48383478E+03</rscale>
<asrwt>0</asrwt>
<pdfrwt beam="1">  1        2 0.14918827E+00 0.48383478E+03</pdfrwt>
<pdfrwt beam="2">  1       -2 0.80057758E-02 0.48383478E+03</pdfrwt>
<totfact> 0.25977844E+03</totfact>
</mgrwt>
</event>
<event>
 4    1  0.2058931E-005  0.8096756E+03  0.7818608E-02  0.9546117E-01
         -2   -1    0    0    0  501 -0.00000000000E+00  0.00000000000E+00  0.43284574861E+02  0.43284574936E+02  0.25500000000E-02 0. -1.
          2   -1    0    0  501    0  0.00000000000E+00 -0.00000000000E+00 -0.37864214415E+04  0.37864214415E+04  0.25500000000E-02 0.  1.
    5000001    1    1    2    0    0 -0.27986938365E+03 -0.13905828614E+03 -0.26821067650E+04  0.27070694077E+04  0.19200000000E+03 0.  0.
   -5000001    1    1    2    0    0  0.27986938365E+03  0.13905828614E+03 -0.10610301016E+04  0.11226366087E+04  0.19200000000E+03 0.  0.
<mgrwt>
<rscale>  0 0.80967560E+03</rscale>
<asrwt>0</asrwt>
<pdfrwt beam="1">  1        2 0.54091714E+00 0.80967560E+03</pdfrwt>
<pdfrwt beam="2">  1       -2 0.61835131E-02 0.80967560E+03</pdfrwt>
<totfact> 0.12539719E+02</totfact>
</mgrwt>
</event>
<event>
 4    1  0.2058931E-005  0.5348533E+03  0.7818608E-02  0.1005062E+00
          2   -1    0    0  501    0  0.00000000000E+00  0.00000000000E+00  0.77138621415E+03  0.77138621415E+03  0.25500000000E-02 0.  1.
         -2   -1    0    0    0  501 -0.00000000000E+00 -0.00000000000E+00 -0.92712315547E+02  0.92712315582E+02  0.25500000000E-02 0. -1.
    5000001    1    1    2    0    0  0.17300884474E+03  0.68157223294E+02  0.35337807020E+03  0.44307733856E+03  0.19200000000E+03 0.  0.
   -5000001    1    1    2    0    0 -0.17300884474E+03 -0.68157223294E+02  0.32529582840E+03  0.42102119118E+03  0.19200000000E+03 0.  0.
<mgrwt>
<rscale>  0 0.53485326E+03</rscale>
<asrwt>0</asrwt>
<pdfrwt beam="1">  1        2 0.11019803E+00 0.53485326E+03</pdfrwt>
<pdfrwt beam="2">  1       -2 0.13244616E-01 0.53485326E+03</pdfrwt>
<totfact> 0.17205639E+03</totfact>
</mgrwt>
</event>
<event>
 4    1  0.2058931E-005  0.1024886E+04  0.7818608E-02  0.9281664E-01
         -2   -1    0    0    0  501 -0.00000000000E+00  0.00000000000E+00  0.80979457289E+02  0.80979457329E+02  0.25500000000E-02 0. -1.
          2   -1    0    0  501    0  0.00000000000E+00 -0.00000000000E+00 -0.32427712685E+04  0.32427712685E+04  0.25500000000E-02 0.  1.
    5000001    1    1    2    0    0  0.18901579946E+03 -0.37327002638E+03 -0.23109509735E+04  0.23563564855E+04  0.19200000000E+03 0.  0.
   -5000001    1    1    2    0    0 -0.18901579946E+03  0.37327002638E+03 -0.85084083776E+03  0.96739424034E+03  0.19200000000E+03 0.  0.
<mgrwt>
<rscale>  0 0.10248861E+04</rscale>
<asrwt>0</asrwt>
<pdfrwt beam="1">  1        2 0.46325296E+00 0.10248861E+04</pdfrwt>
<pdfrwt beam="2">  1       -2 0.11568496E-01 0.10248861E+04</pdfrwt>
<totfact> 0.94866425E+01</totfact>
</mgrwt>
</event>
<event>
 4    1  0.2058931E-005  0.5909791E+03  0.7818608E-02  0.9924300E-01
         -2   -1    0    0    0  501 -0.00000000000E+00  0.00000000000E+00  0.27709073258E+03  0.27709073260E+03  0.25500000000E-02 0. -1.
          2   -1    0    0  501    0  0.00000000000E+00 -0.00000000000E+00 -0.31511003733E+03  0.31511003734E+03  0.25500000000E-02 0.  1.
    5000001    1    1    2    0    0 -0.39383051986E+02 -0.20789984036E+03  0.56489995747E+02  0.29125330561E+03  0.19200000000E+03 0.  0.
   -5000001    1    1    2    0    0  0.39383051986E+02  0.20789984036E+03 -0.94509300490E+02  0.30094746433E+03  0.19200000000E+03 0.  0.
<mgrwt>
<rscale>  0 0.59097909E+03</rscale>
<asrwt>0</asrwt>
<pdfrwt beam="1">  1        2 0.45015719E-01 0.59097909E+03</pdfrwt>
<pdfrwt beam="2">  1       -2 0.39584391E-01 0.59097909E+03</pdfrwt>
<totfact> 0.68536425E+02</totfact>
</mgrwt>
</event>
<event>
 4    1  0.2058931E-005  0.4517737E+03  0.7818608E-02  0.1027194E+00
         -2   -1    0    0    0  501 -0.00000000000E+00  0.00000000000E+00  0.15880266338E+02  0.15880266543E+02  0.25500000000E-02 0. -1.
          2   -1    0    0  501    0  0.00000000000E+00 -0.00000000000E+00 -0.32130987520E+04  0.32130987520E+04  0.25500000000E-02 0.  1.
    5000001    1    1    2    0    0 -0.95894432304E+02 -0.63763753640E+02 -0.13842718173E+04  0.14022603262E+04  0.19200000000E+03 0.  0.
   -5000001    1    1    2    0    0  0.95894432304E+02  0.63763753640E+02 -0.18129466684E+04  0.18267186923E+04  0.19200000000E+03 0.  0.
<mgrwt>
<rscale>  0 0.45177368E+03</rscale>
<asrwt>0</asrwt>
<pdfrwt beam="1">  1        2 0.45901369E+00 0.45177368E+03</pdfrwt>
<pdfrwt beam="2">  1       -2 0.22686115E-02 0.45177368E+03</pdfrwt>
<totfact> 0.13361418E+03</totfact>
</mgrwt>
</event>
<event>
 4    1  0.2058931E-005  0.9612568E+03  0.7818608E-02  0.9352089E-01
          2   -1    0    0  501    0  0.00000000000E+00  0.00000000000E+00  0.23297408829E+03  0.23297408830E+03  0.25500000000E-02 0.  1.
         -2   -1    0    0    0  501 -0.00000000000E+00 -0.00000000000E+00 -0.99154227952E+03  0.99154227952E+03  0.25500000000E-02 0. -1.
    5000001    1    1    2    0    0 -0.36031534540E+03 -0.83009822847E+02 -0.68453985913E+03  0.80135921880E+03  0.19200000000E+03 0.  0.
   -5000001    1    1    2    0    0  0.36031534540E+03  0.83009822847E+02 -0.74028332097E+02  0.42315714903E+03  0.19200000000E+03 0.  0.
<mgrwt>
<rscale>  0 0.96125680E+03</rscale>
<asrwt>0</asrwt>
<pdfrwt beam="1">  1        2 0.33282013E-01 0.96125680E+03</pdfrwt>
<pdfrwt beam="2">  1       -2 0.14164889E+00 0.96125680E+03</pdfrwt>
<totfact> 0.55156698E+01</totfact>
</mgrwt>
</event>
<event>
 4    1  0.2058931E-005  0.4899832E+03  0.7818608E-02  0.1016427E+00
         -2   -1    0    0    0  501 -0.00000000000E+00  0.00000000000E+00  0.44945879713E+03  0.44945879714E+03  0.25500000000E-02 0. -1.
          2   -1    0    0  501    0  0.00000000000E+00 -0.00000000000E+00 -0.13354034322E+03  0.13354034324E+03  0.25500000000E-02 0.  1.
    5000001    1    1    2    0    0 -0.11988279588E+03  0.35562434553E+02  0.26114138797E+03  0.34741242927E+03  0.19200000000E+03 0.  0.
   -5000001    1    1    2    0    0  0.11988279588E+03 -0.35562434553E+02  0.54777065937E+02  0.23558671111E+03  0.19200000000E+03 0.  0.
<mgrwt>
<rscale>  0 0.48998319E+03</rscale>
<asrwt>0</asrwt>
<pdfrwt beam="1">  1        2 0.19077192E-01 0.48998319E+03</pdfrwt>
<pdfrwt beam="2">  1       -2 0.64208400E-01 0.48998319E+03</pdfrwt>
<totfact> 0.67752737E+02</totfact>
</mgrwt>
</event>
<event>
 4    1  0.2058931E-005  0.4869339E+03  0.7818608E-02  0.1017247E+00
         -2   -1    0    0    0  501 -0.00000000000E+00  0.00000000000E+00  0.30140461871E+02  0.30140461979E+02  0.25500000000E-02 0.  1.
          2   -1    0    0  501    0  0.00000000000E+00 -0.00000000000E+00 -0.19666635841E+04  0.19666635841E+04  0.25500000000E-02 0. -1.
    5000001    1    1    2    0    0  0.15054333465E+02  0.14599992022E+03 -0.84733824475E+03  0.88112922474E+03  0.19200000000E+03 0.  0.
   -5000001    1    1    2    0    0 -0.15054333465E+02 -0.14599992022E+03 -0.10891848775E+04  0.11156748214E+04  0.19200000000E+03 0.  0.
<mgrwt>
<rscale>  0 0.48693387E+03</rscale>
<asrwt>0</asrwt>
<pdfrwt beam="1">  1        2 0.28095186E+00 0.48693387E+03</pdfrwt>
<pdfrwt beam="2">  1       -2 0.43057815E-02 0.48693387E+03</pdfrwt>
<totfact> 0.22345636E+03</totfact>
</mgrwt>
</event>
<event>
 4    1  0.2058931E-005  0.7994321E+03  0.7818608E-02  0.9560839E-01
         -2   -1    0    0    0  501 -0.00000000000E+00  0.00000000000E+00  0.78146031952E+02  0.78146031994E+02  0.25500000000E-02 0. -1.
          2   -1    0    0  501    0  0.00000000000E+00 -0.00000000000E+00 -0.20445429791E+04  0.20445429791E+04  0.25500000000E-02 0.  1.
    5000001    1    1    2    0    0 -0.15116835386E+03 -0.19419081434E+03 -0.16461968888E+04  0.16755268247E+04  0.19200000000E+03 0.  0.
   -5000001    1    1    2    0    0  0.15116835386E+03  0.19419081434E+03 -0.32020005836E+03  0.44716218641E+03  0.19200000000E+03 0.  0.
<mgrwt>
<rscale>  0 0.79943210E+03</rscale>
<asrwt>0</asrwt>
<pdfrwt beam="1">  1        2 0.29207754E+00 0.79943210E+03</pdfrwt>
<pdfrwt beam="2">  1       -2 0.11163720E-01 0.79943210E+03</pdfrwt>
<totfact> 0.44390384E+02</totfact>
</mgrwt>
</event>
<event>
 4    1  0.2058931E-005  0.4733637E+03  0.7818608E-02  0.1020975E+00
          2   -1    0    0  501    0  0.00000000000E+00  0.00000000000E+00  0.13716050955E+04  0.13716050955E+04  0.25500000000E-02 0.  1.
         -2   -1    0    0    0  501 -0.00000000000E+00 -0.00000000000E+00 -0.40841412601E+02  0.40841412680E+02  0.25500000000E-02 0. -1.
    5000001    1    1    2    0    0 -0.10029778214E+03 -0.89438744258E+01  0.38207858490E+03  0.43930363421E+03  0.19200000000E+03 0.  0.
   -5000001    1    1    2    0    0  0.10029778214E+03  0.89438744258E+01  0.94868509797E+03  0.97314287394E+03  0.19200000000E+03 0.  0.
<mgrwt>
<rscale>  0 0.47336366E+03</rscale>
<asrwt>0</asrwt>
<pdfrwt beam="1">  1        2 0.19594356E+00 0.47336366E+03</pdfrwt>
<pdfrwt beam="2">  1       -2 0.58344883E-02 0.47336366E+03</pdfrwt>
<totfact> 0.28071669E+03</totfact>
</mgrwt>
</event>
<event>
 4    1  0.2058931E-005  0.5381165E+03  0.7818608E-02  0.1004283E+00
          2   -1    0    0  501    0  0.00000000000E+00  0.00000000000E+00  0.85835098385E+03  0.85835098385E+03  0.25500000000E-02 0.  1.
         -2   -1    0    0    0  501 -0.00000000000E+00 -0.00000000000E+00 -0.84338844896E+02  0.84338844935E+02  0.25500000000E-02 0. -1.
    5000001    1    1    2    0    0  0.32837776229E+02  0.18557030449E+03  0.39348383681E+03  0.47666359971E+03  0.19200000000E+03 0.  0.
   -5000001    1    1    2    0    0 -0.32837776229E+02 -0.18557030449E+03  0.38052830214E+03  0.46602622907E+03  0.19200000000E+03 0.  0.
<mgrwt>
<rscale>  0 0.53811646E+03</rscale>
<asrwt>0</asrwt>
<pdfrwt beam="1">  1        2 0.12262156E+00 0.53811646E+03</pdfrwt>
<pdfrwt beam="2">  1       -2 0.12048407E-01 0.53811646E+03</pdfrwt>
<totfact> 0.17542150E+03</totfact>
</mgrwt>
</event>
<event>
 4    1  0.2058931E-005  0.4352706E+03  0.7818608E-02  0.1032208E+00
         -2   -1    0    0    0  501 -0.00000000000E+00  0.00000000000E+00  0.15373947364E+03  0.15373947366E+03  0.25500000000E-02 0. -1.
          2   -1    0    0  501    0  0.00000000000E+00 -0.00000000000E+00 -0.30808694050E+03  0.30808694051E+03  0.25500000000E-02 0.  1.
    5000001    1    1    2    0    0  0.15087327262E+02  0.62203463426E+02  0.77350758033E+01  0.20253574920E+03  0.19200000000E+03 0.  0.
   -5000001    1    1    2    0    0 -0.15087327262E+02 -0.62203463426E+02 -0.16208254267E+03  0.25929066497E+03  0.19200000000E+03 0.  0.
<mgrwt>
<rscale>  0 0.43527060E+03</rscale>
<asrwt>0</asrwt>
<pdfrwt beam="1">  1        2 0.44012420E-01 0.43527060E+03</pdfrwt>
<pdfrwt beam="2">  1       -2 0.21962782E-01 0.43527060E+03</pdfrwt>
<totfact> 0.20735790E+03</totfact>
</mgrwt>
</event>
<event>
 4    1  0.2058931E-005  0.4263977E+03  0.7818608E-02  0.1035004E+00
         -2   -1    0    0    0  501 -0.00000000000E+00  0.00000000000E+00  0.55116938607E+03  0.55116938607E+03  0.25500000000E-02 0. -1.
          2   -1    0    0  501    0  0.00000000000E+00 -0.00000000000E+00 -0.82467847712E+02  0.82467847751E+02  0.25500000000E-02 0.  1.
    5000001    1    1    2    0    0 -0.34118472219E+02 -0.85823008874E+02  0.22283106281E+03  0.30829748872E+03  0.19200000000E+03 0.  0.
   -5000001    1    1    2    0    0  0.34118472219E+02  0.85823008874E+02  0.24587047555E+03  0.32533974510E+03  0.19200000000E+03 0.  0.
<mgrwt>
<rscale>  0 0.42639772E+03</rscale>
<asrwt>0</asrwt>
<pdfrwt beam="1">  1        2 0.11781121E-01 0.42639772E+03</pdfrwt>
<pdfrwt beam="2">  1       -2 0.78738481E-01 0.42639772E+03</pdfrwt>
<totfact> 0.77706164E+02</totfact>
</mgrwt>
</event>
<event>
 4    1  0.2058931E-005  0.4299484E+03  0.7818608E-02  0.1033876E+00
         -2   -1    0    0    0  501 -0.00000000000E+00  0.00000000000E+00  0.10323469997E+03  0.10323470000E+03  0.25500000000E-02 0. -1.
          2   -1    0    0  501    0  0.00000000000E+00 -0.00000000000E+00 -0.44765860681E+03  0.44765860682E+03  0.25500000000E-02 0.  1.
    5000001    1    1    2    0    0 -0.85090010805E+02  0.75817321734E+01 -0.23025516481E+03  0.31173583933E+03  0.19200000000E+03 0.  0.
   -5000001    1    1    2    0    0  0.85090010805E+02 -0.75817321734E+01 -0.11416874203E+03  0.23915746749E+03  0.19200000000E+03 0.  0.
<mgrwt>
<rscale>  0 0.42994838E+03</rscale>
<asrwt>0</asrwt>
<pdfrwt beam="1">  1        2 0.63951229E-01 0.42994838E+03</pdfrwt>
<pdfrwt beam="2">  1       -2 0.14747814E-01 0.42994838E+03</pdfrwt>
<totfact> 0.27150532E+03</totfact>
</mgrwt>
</event>
<event>
 4    1  0.2058931E-005  0.4814635E+03  0.7818608E-02  0.1018734E+00
         -2   -1    0    0    0  501 -0.00000000000E+00  0.00000000000E+00  0.14451438839E+03  0.14451438841E+03  0.25500000000E-02 0. -1.
          2   -1    0    0  501    0  0.00000000000E+00 -0.00000000000E+00 -0.40101034332E+03  0.40101034333E+03  0.25500000000E-02 0.  1.
    5000001    1    1    2    0    0  0.45349407880E+02  0.13780852342E+03 -0.13541463880E+03  0.27613200163E+03  0.19200000000E+03 0.  0.
   -5000001    1    1    2    0    0 -0.45349407880E+02 -0.13780852342E+03 -0.12108131613E+03  0.26939273011E+03  0.19200000000E+03 0.  0.
<mgrwt>
<rscale>  0 0.48146345E+03</rscale>
<asrwt>0</asrwt>
<pdfrwt beam="1">  1        2 0.57287191E-01 0.48146345E+03</pdfrwt>
<pdfrwt beam="2">  1       -2 0.20644913E-01 0.48146345E+03</pdfrwt>
<totfact> 0.17314985E+03</totfact>
</mgrwt>
</event>
<event>
 4    1  0.2058931E-005  0.6324571E+03  0.7818608E-02  0.9840266E-01
          2   -1    0    0  501    0  0.00000000000E+00  0.00000000000E+00  0.20760726841E+04  0.20760726841E+04  0.25500000000E-02 0. -1.
         -2   -1    0    0    0  501 -0.00000000000E+00 -0.00000000000E+00 -0.48168102224E+02  0.48168102291E+02  0.25500000000E-02 0.  1.
    5000001    1    1    2    0    0  0.20362137568E+03 -0.14229112144E+03  0.11408766377E+04  0.11832886082E+04  0.19200000000E+03 0.  0.
   -5000001    1    1    2    0    0 -0.20362137568E+03  0.14229112144E+03  0.88702794423E+03  0.94095217823E+03  0.19200000000E+03 0.  0.
<mgrwt>
<rscale>  0 0.63245705E+03</rscale>
<asrwt>0</asrwt>
<pdfrwt beam="1">  1        2 0.29658177E+00 0.63245705E+03</pdfrwt>
<pdfrwt beam="2">  1       -2 0.68811585E-02 0.63245705E+03</pdfrwt>
<totfact> 0.94286096E+02</totfact>
</mgrwt>
</event>
<event>
 4    1  0.2058931E-005  0.4865016E+03  0.7818608E-02  0.1017363E+00
          2   -1    0    0  501    0  0.00000000000E+00  0.00000000000E+00  0.11520826942E+04  0.11520826942E+04  0.25500000000E-02 0.  1.
         -2   -1    0    0    0  501 -0.00000000000E+00 -0.00000000000E+00 -0.51359995602E+02  0.51359995665E+02  0.25500000000E-02 0. -1.
    5000001    1    1    2    0    0  0.12874816826E+03  0.75614194956E+02  0.54131813161E+03  0.59345001215E+03  0.19200000000E+03 0.  0.
   -5000001    1    1    2    0    0 -0.12874816826E+03 -0.75614194956E+02  0.55940456703E+03  0.60999267776E+03  0.19200000000E+03 0.  0.
<mgrwt>
<rscale>  0 0.48650164E+03</rscale>
<asrwt>0</asrwt>
<pdfrwt beam="1">  1        2 0.16458322E+00 0.48650164E+03</pdfrwt>
<pdfrwt beam="2">  1       -2 0.73371431E-02 0.48650164E+03</pdfrwt>
<totfact> 0.25836562E+03</totfact>
</mgrwt>
</event>
<event>
 4    1  0.2058931E-005  0.7109827E+03  0.7818608E-02  0.9698633E-01
          2   -1    0    0  501    0  0.00000000000E+00  0.00000000000E+00  0.46882031420E+03  0.46882031421E+03  0.25500000000E-02 0.  1.
         -2   -1    0    0    0  501 -0.00000000000E+00 -0.00000000000E+00 -0.26955760762E+03  0.26955760763E+03  0.25500000000E-02 0. -1.
    5000001    1    1    2    0    0 -0.21610594784E+03 -0.20535943277E+03  0.12581810710E+03  0.37625586160E+03  0.19200000000E+03 0.  0.
   -5000001    1    1    2    0    0  0.21610594784E+03  0.20535943277E+03  0.73444599483E+02  0.36212206024E+03  0.19200000000E+03 0.  0.
<mgrwt>
<rscale>  0 0.71098265E+03</rscale>
<asrwt>0</asrwt>
<pdfrwt beam="1">  1        2 0.66974330E-01 0.71098265E+03</pdfrwt>
<pdfrwt beam="2">  1       -2 0.38508230E-01 0.71098265E+03</pdfrwt>
<totfact> 0.46327337E+02</totfact>
</mgrwt>
</event>
<event>
 4    1  0.2058931E-005  0.9171076E+03  0.7818608E-02  0.9404445E-01
          2   -1    0    0  501    0  0.00000000000E+00  0.00000000000E+00  0.22956147579E+03  0.22956147581E+03  0.25500000000E-02 0.  1.
         -2   -1    0    0    0  501 -0.00000000000E+00 -0.00000000000E+00 -0.91597062291E+03  0.91597062291E+03  0.25500000000E-02 0. -1.
    5000001    1    1    2    0    0 -0.21217266104E+02 -0.38651661208E+03 -0.53493713312E+03  0.68765325578E+03  0.19200000000E+03 0.  0.
   -5000001    1    1    2    0    0  0.21217266104E+02  0.38651661208E+03 -0.15147201400E+03  0.45787884294E+03  0.19200000000E+03 0.  0.
<mgrwt>
<rscale>  0 0.91710756E+03</rscale>
<asrwt>0</asrwt>
<pdfrwt beam="1">  1        2 0.32794497E-01 0.91710756E+03</pdfrwt>
<pdfrwt beam="2">  1       -2 0.13085294E+00 0.91710756E+03</pdfrwt>
<totfact> 0.68911112E+01</totfact>
</mgrwt>
</event>
<event>
 4    1  0.2058931E-005  0.8984740E+03  0.7818608E-02  0.9427491E-01
          2   -1    0    0  501    0  0.00000000000E+00  0.00000000000E+00  0.16867012945E+04  0.16867012945E+04  0.25500000000E-02 0.  1.
         -2   -1    0    0    0  501 -0.00000000000E+00 -0.00000000000E+00 -0.11965004168E+03  0.11965004171E+03  0.25500000000E-02 0. -1.
    5000001    1    1    2    0    0 -0.20431098173E+03  0.28028861450E+03  0.35872604760E+03  0.53465228130E+03  0.19200000000E+03 0.  0.
   -5000001    1    1    2    0    0  0.20431098173E+03 -0.28028861450E+03  0.12083252052E+04  0.12716990549E+04  0.19200000000E+03 0.  0.
<mgrwt>
<rscale>  0 0.89847400E+03</rscale>
<asrwt>0</asrwt>
<pdfrwt beam="1">  1        2 0.24095733E+00 0.89847400E+03</pdfrwt>
<pdfrwt beam="2">  1       -2 0.17092863E-01 0.89847400E+03</pdfrwt>
<totfact> 0.32825809E+02</totfact>
</mgrwt>
</event>
<event>
 4    1  0.2058931E-005  0.5460884E+03  0.7818608E-02  0.1002403E+00
         -2   -1    0    0    0  501 -0.00000000000E+00  0.00000000000E+00  0.49042329364E+02  0.49042329430E+02  0.25500000000E-02 0. -1.
          2   -1    0    0  501    0  0.00000000000E+00 -0.00000000000E+00 -0.15201795802E+04  0.15201795802E+04  0.25500000000E-02 0.  1.
    5000001    1    1    2    0    0 -0.78115419373E+02  0.12182440800E+03 -0.36371144309E+03  0.43599681072E+03  0.19200000000E+03 0.  0.
   -5000001    1    1    2    0    0  0.78115419373E+02 -0.12182440800E+03 -0.11074258077E+04  0.11332250989E+04  0.19200000000E+03 0.  0.
<mgrwt>
<rscale>  0 0.54608845E+03</rscale>
<asrwt>0</asrwt>
<pdfrwt beam="1">  1        2 0.21716848E+00 0.54608845E+03</pdfrwt>
<pdfrwt beam="2">  1       -2 0.70060480E-02 0.54608845E+03</pdfrwt>
<totfact> 0.17598330E+03</totfact>
</mgrwt>
</event>
<event>
 4    1  0.2058931E-005  0.7431275E+03  0.7818608E-02  0.9646194E-01
          2   -1    0    0  501    0  0.00000000000E+00  0.00000000000E+00  0.66726485643E+03  0.66726485643E+03  0.25500000000E-02 0.  1.
         -2   -1    0    0    0  501 -0.00000000000E+00 -0.00000000000E+00 -0.20690378481E+03  0.20690378482E+03  0.25500000000E-02 0. -1.
    5000001    1    1    2    0    0  0.42752619479E+02 -0.31436462357E+03  0.25758493573E+03  0.45151622578E+03  0.19200000000E+03 0.  0.
   -5000001    1    1    2    0    0 -0.42752619479E+02  0.31436462357E+03  0.20277613589E+03  0.42265241548E+03  0.19200000000E+03 0.  0.
<mgrwt>
<rscale>  0 0.74312751E+03</rscale>
<asrwt>0</asrwt>
<pdfrwt beam="1">  1        2 0.95323552E-01 0.74312751E+03</pdfrwt>
<pdfrwt beam="2">  1       -2 0.29557683E-01 0.74312751E+03</pdfrwt>
<totfact> 0.50508700E+02</totfact>
</mgrwt>
</event>
<event>
 4    1  0.2058931E-005  0.7076795E+03  0.7818608E-02  0.9704189E-01
          2   -1    0    0  501    0  0.00000000000E+00  0.00000000000E+00  0.92370621274E+03  0.92370621275E+03  0.25500000000E-02 0.  1.
         -2   -1    0    0    0  501 -0.00000000000E+00 -0.00000000000E+00 -0.13554372462E+03  0.13554372464E+03  0.25500000000E-02 0. -1.
    5000001    1    1    2    0    0 -0.10641697447E+03  0.27714785686E+03  0.41541112642E+03  0.54549602287E+03  0.19200000000E+03 0.  0.
   -5000001    1    1    2    0    0  0.10641697447E+03 -0.27714785686E+03  0.37275136171E+03  0.51375391451E+03  0.19200000000E+03 0.  0.
<mgrwt>
<rscale>  0 0.70767953E+03</rscale>
<asrwt>0</asrwt>
<pdfrwt beam="1">  1        2 0.13195803E+00 0.70767953E+03</pdfrwt>
<pdfrwt beam="2">  1       -2 0.19363389E-01 0.70767953E+03</pdfrwt>
<totfact> 0.71138066E+02</totfact>
</mgrwt>
</event>
<event>
 4    1  0.2058931E-005  0.4772376E+03  0.7818608E-02  0.1019897E+00
         -2   -1    0    0    0  501 -0.00000000000E+00  0.00000000000E+00  0.26442589664E+03  0.26442589666E+03  0.25500000000E-02 0. -1.
          2   -1    0    0  501    0  0.00000000000E+00 -0.00000000000E+00 -0.21533038973E+03  0.21533038975E+03  0.25500000000E-02 0.  1.
    5000001    1    1    2    0    0 -0.51371152666E+02 -0.96480566784E+02  0.11517583972E+03  0.24915250179E+03  0.19200000000E+03 0.  0.
   -5000001    1    1    2    0    0  0.51371152666E+02  0.96480566784E+02 -0.66080332807E+02  0.23060378461E+03  0.19200000000E+03 0.  0.
<mgrwt>
<rscale>  0 0.47723760E+03</rscale>
<asrwt>0</asrwt>
<pdfrwt beam="1">  1        2 0.30761484E-01 0.47723760E+03</pdfrwt>
<pdfrwt beam="2">  1       -2 0.37775128E-01 0.47723760E+03</pdfrwt>
<totfact> 0.11432915E+03</totfact>
</mgrwt>
</event>
<event>
 4    1  0.2058931E-005  0.7840498E+03  0.7818608E-02  0.9583396E-01
          2   -1    0    0  501    0  0.00000000000E+00  0.00000000000E+00  0.27149882000E+04  0.27149882000E+04  0.25500000000E-02 0.  1.
         -2   -1    0    0    0  501 -0.00000000000E+00 -0.00000000000E+00 -0.56605596622E+02  0.56605596680E+02  0.25500000000E-02 0. -1.
    5000001    1    1    2    0    0 -0.98105376585E+02 -0.32263242926E+03  0.11322715660E+04  0.11969207361E+04  0.19200000000E+03 0.  0.
   -5000001    1    1    2    0    0  0.98105376585E+02  0.32263242926E+03  0.15261110374E+04  0.15746730606E+04  0.19200000000E+03 0.  0.
<mgrwt>
<rscale>  0 0.78404981E+03</rscale>
<asrwt>0</asrwt>
<pdfrwt beam="1">  1        2 0.38785545E+00 0.78404981E+03</pdfrwt>
<pdfrwt beam="2">  1       -2 0.80865139E-02 0.78404981E+03</pdfrwt>
<totfact> 0.33897821E+02</totfact>
</mgrwt>
</event>
<event>
 4    1  0.2058931E-005  0.6030050E+03  0.7818608E-02  0.9899191E-01
         -2   -1    0    0    0  501 -0.00000000000E+00  0.00000000000E+00  0.19516293868E+03  0.19516293870E+03  0.25500000000E-02 0.  1.
          2   -1    0    0  501    0  0.00000000000E+00 -0.00000000000E+00 -0.46578385255E+03  0.46578385256E+03  0.25500000000E-02 0. -1.
    5000001    1    1    2    0    0  0.17306080604E+03 -0.14496996370E+03 -0.19607581209E+03  0.35535342555E+03  0.19200000000E+03 0.  0.
   -5000001    1    1    2    0    0 -0.17306080604E+03  0.14496996370E+03 -0.74545101780E+02  0.30559336571E+03  0.19200000000E+03 0.  0.
<mgrwt>
<rscale>  0 0.60300496E+03</rscale>
<asrwt>0</asrwt>
<pdfrwt beam="1">  1        2 0.66540550E-01 0.60300496E+03</pdfrwt>
<pdfrwt beam="2">  1       -2 0.27880420E-01 0.60300496E+03</pdfrwt>
<totfact> 0.85777358E+02</totfact>
</mgrwt>
</event>
<event>
 4    1  0.2058931E-005  0.9045053E+03  0.7818608E-02  0.9419967E-01
          2   -1    0    0  501    0  0.00000000000E+00  0.00000000000E+00  0.14431945840E+03  0.14431945842E+03  0.25500000000E-02 0.  1.
         -2   -1    0    0    0  501 -0.00000000000E+00 -0.00000000000E+00 -0.14172202106E+04  0.14172202106E+04  0.25500000000E-02 0. -1.
    5000001    1    1    2    0    0  0.71228058842E+02 -0.37296576854E+03 -0.90105520807E+03  0.99646444435E+03  0.19200000000E+03 0.  0.
   -5000001    1    1    2    0    0 -0.71228058842E+02  0.37296576854E+03 -0.37184554416E+03  0.56507522471E+03  0.19200000000E+03 0.  0.
<mgrwt>
<rscale>  0 0.90450529E+03</rscale>
<asrwt>0</asrwt>
<pdfrwt beam="1">  1        2 0.20617066E-01 0.90450529E+03</pdfrwt>
<pdfrwt beam="2">  1       -2 0.20246002E+00 0.90450529E+03</pdfrwt>
<totfact> 0.35414220E+01</totfact>
</mgrwt>
</event>
<event>
 4    1  0.2058931E-005  0.7877237E+03  0.7818608E-02  0.9577958E-01
          2   -1    0    0  501    0  0.00000000000E+00  0.00000000000E+00  0.50817086325E+03  0.50817086325E+03  0.25500000000E-02 0.  1.
         -2   -1    0    0    0  501 -0.00000000000E+00 -0.00000000000E+00 -0.30526578270E+03  0.30526578271E+03  0.25500000000E-02 0. -1.
    5000001    1    1    2    0    0 -0.45757426295E+02  0.18960865524E+03 -0.19102039793E+03  0.33376335423E+03  0.19200000000E+03 0.  0.
   -5000001    1    1    2    0    0  0.45757426295E+02 -0.18960865524E+03  0.39392547848E+03  0.47967329173E+03  0.19200000000E+03 0.  0.
<mgrwt>
<rscale>  0 0.78772375E+03</rscale>
<asrwt>0</asrwt>
<pdfrwt beam="1">  1        2 0.72595837E-01 0.78772375E+03</pdfrwt>
<pdfrwt beam="2">  1       -2 0.43609398E-01 0.78772375E+03</pdfrwt>
<totfact> 0.33048096E+02</totfact>
</mgrwt>
</event>
<event>
 4    1  0.2058931E-005  0.4756917E+03  0.7818608E-02  0.1020326E+00
         -2   -1    0    0    0  501 -0.00000000000E+00  0.00000000000E+00  0.28137380481E+03  0.28137380482E+03  0.25500000000E-02 0. -1.
          2   -1    0    0  501    0  0.00000000000E+00 -0.00000000000E+00 -0.20105161561E+03  0.20105161562E+03  0.25500000000E-02 0.  1.
    5000001    1    1    2    0    0  0.66051757682E+02  0.88971866591E+02  0.12756595028E+03  0.25576532096E+03  0.19200000000E+03 0.  0.
   -5000001    1    1    2    0    0 -0.66051757682E+02 -0.88971866591E+02 -0.47243761072E+02  0.22666009948E+03  0.19200000000E+03 0.  0.
<mgrwt>
<rscale>  0 0.47569174E+03</rscale>
<asrwt>0</asrwt>
<pdfrwt beam="1">  1        2 0.28721660E-01 0.47569174E+03</pdfrwt>
<pdfrwt beam="2">  1       -2 0.40196257E-01 0.47569174E+03</pdfrwt>
<totfact> 0.10953885E+03</totfact>
</mgrwt>
</event>
<event>
 4    1  0.2058931E-005  0.5683545E+03  0.7818608E-02  0.9973326E-01
         -2   -1    0    0    0  501 -0.00000000000E+00  0.00000000000E+00  0.34936552070E+02  0.34936552163E+02  0.25500000000E-02 0. -1.
          2   -1    0    0  501    0  0.00000000000E+00 -0.00000000000E+00 -0.23115248772E+04  0.23115248772E+04  0.25500000000E-02 0.  1.
    5000001    1    1    2    0    0 -0.19917353761E+02  0.19545162196E+03 -0.14387036477E+04  0.14646945837E+04  0.19200000000E+03 0.  0.
   -5000001    1    1    2    0    0  0.19917353761E+02 -0.19545162196E+03 -0.83788467745E+03  0.88176684572E+03  0.19200000000E+03 0.  0.
<mgrwt>
<rscale>  0 0.56835450E+03</rscale>
<asrwt>0</asrwt>
<pdfrwt beam="1">  1        2 0.33021774E+00 0.56835450E+03</pdfrwt>
<pdfrwt beam="2">  1       -2 0.49909375E-02 0.56835450E+03</pdfrwt>
<totfact> 0.11904425E+03</totfact>
</mgrwt>
</event>
<event>
 4    1  0.2058931E-005  0.7423424E+03  0.7818608E-02  0.9647441E-01
         -2   -1    0    0    0  501 -0.00000000000E+00  0.00000000000E+00  0.22221816281E+03  0.22221816282E+03  0.25500000000E-02 0. -1.
          2   -1    0    0  501    0  0.00000000000E+00 -0.00000000000E+00 -0.61996759572E+03  0.61996759572E+03  0.25500000000E-02 0.  1.
    5000001    1    1    2    0    0 -0.16277409740E+03 -0.14270372700E+03 -0.46261627757E+03  0.54565335219E+03  0.19200000000E+03 0.  0.
   -5000001    1    1    2    0    0  0.16277409740E+03  0.14270372700E+03  0.64866844657E+02  0.29653240636E+03  0.19200000000E+03 0.  0.
<mgrwt>
<rscale>  0 0.74234240E+03</rscale>
<asrwt>0</asrwt>
<pdfrwt beam="1">  1        2 0.88566798E-01 0.74234240E+03</pdfrwt>
<pdfrwt beam="2">  1       -2 0.31745452E-01 0.74234240E+03</pdfrwt>
<totfact> 0.48320266E+02</totfact>
</mgrwt>
</event>
<event>
 4    1  0.2058931E-005  0.4621049E+03  0.7818608E-02  0.1024173E+00
          2   -1    0    0  501    0  0.00000000000E+00  0.00000000000E+00  0.46500683856E+03  0.46500683856E+03  0.25500000000E-02 0.  1.
         -2   -1    0    0    0  501 -0.00000000000E+00 -0.00000000000E+00 -0.11480525398E+03  0.11480525401E+03  0.25500000000E-02 0. -1.
    5000001    1    1    2    0    0 -0.40594816659E+02 -0.96699609208E+01  0.32763973075E+03  0.38203827092E+03  0.19200000000E+03 0.  0.
   -5000001    1    1    2    0    0  0.40594816659E+02  0.96699609208E+01  0.22561853823E+02  0.19777382165E+03  0.19200000000E+03 0.  0.
<mgrwt>
<rscale>  0 0.46210487E+03</rscale>
<asrwt>0</asrwt>
<pdfrwt beam="1">  1        2 0.66429549E-01 0.46210487E+03</pdfrwt>
<pdfrwt beam="2">  1       -2 0.16400750E-01 0.46210487E+03</pdfrwt>
<totfact> 0.21791610E+03</totfact>
</mgrwt>
</event>
<event>
 4    1  0.2058931E-005  0.7252874E+03  0.7818608E-02  0.9674939E-01
          2   -1    0    0  501    0  0.00000000000E+00  0.00000000000E+00  0.58757628716E+03  0.58757628716E+03  0.25500000000E-02 0.  1.
         -2   -1    0    0    0  501 -0.00000000000E+00 -0.00000000000E+00 -0.22381848908E+03  0.22381848909E+03  0.25500000000E-02 0. -1.
    5000001    1    1    2    0    0  0.13315951344E+03 -0.24403023084E+03  0.34461130897E+02  0.33960827305E+03  0.19200000000E+03 0.  0.
   -5000001    1    1    2    0    0 -0.13315951344E+03  0.24403023084E+03  0.32929666719E+03  0.47178650320E+03  0.19200000000E+03 0.  0.
<mgrwt>
<rscale>  0 0.72528735E+03</rscale>
<asrwt>0</asrwt>
<pdfrwt beam="1">  1        2 0.83939470E-01 0.72528735E+03</pdfrwt>
<pdfrwt beam="2">  1       -2 0.31974070E-01 0.72528735E+03</pdfrwt>
<totfact> 0.50832466E+02</totfact>
</mgrwt>
</event>
<event>
 4    1  0.2058931E-005  0.5627992E+03  0.7818608E-02  0.9985741E-01
         -2   -1    0    0    0  501 -0.00000000000E+00  0.00000000000E+00  0.58661594137E+02  0.58661594192E+02  0.25500000000E-02 0. -1.
          2   -1    0    0  501    0  0.00000000000E+00 -0.00000000000E+00 -0.13498735380E+04  0.13498735380E+04  0.25500000000E-02 0.  1.
    5000001    1    1    2    0    0 -0.13321523735E+03 -0.15065251135E+03 -0.75410031028E+03  0.80372492595E+03  0.19200000000E+03 0.  0.
   -5000001    1    1    2    0    0  0.13321523735E+03  0.15065251135E+03 -0.53711163356E+03  0.60481020622E+03  0.19200000000E+03 0.  0.
<mgrwt>
<rscale>  0 0.56279920E+03</rscale>
<asrwt>0</asrwt>
<pdfrwt beam="1">  1        2 0.19283906E+00 0.56279920E+03</pdfrwt>
<pdfrwt beam="2">  1       -2 0.83802286E-02 0.56279920E+03</pdfrwt>
<totfact> 0.16272604E+03</totfact>
</mgrwt>
</event>
<event>
 4    1  0.2058931E-005  0.5071370E+03  0.7818608E-02  0.1011933E+00
          2   -1    0    0  501    0  0.00000000000E+00  0.00000000000E+00  0.65381159693E+03  0.65381159693E+03  0.25500000000E-02 0.  1.
         -2   -1    0    0    0  501 -0.00000000000E+00 -0.00000000000E+00 -0.98341763024E+02  0.98341763057E+02  0.25500000000E-02 0. -1.
    5000001    1    1    2    0    0 -0.79681257082E+02 -0.13092343812E+03  0.18460462802E+03  0.30729939483E+03  0.19200000000E+03 0.  0.
   -5000001    1    1    2    0    0  0.79681257082E+02  0.13092343812E+03  0.37086520589E+03  0.44485396516E+03  0.19200000000E+03 0.  0.
<mgrwt>
<rscale>  0 0.50713700E+03</rscale>
<asrwt>0</asrwt>
<pdfrwt beam="1">  1        2 0.93401654E-01 0.50713700E+03</pdfrwt>
<pdfrwt beam="2">  1       -2 0.14048824E-01 0.50713700E+03</pdfrwt>
<totfact> 0.19098880E+03</totfact>
</mgrwt>
</event>
<event>
 4    1  0.2058931E-005  0.5633165E+03  0.7818608E-02  0.9984578E-01
         -2   -1    0    0    0  501 -0.00000000000E+00  0.00000000000E+00  0.38065633139E+02  0.38065633224E+02  0.25500000000E-02 0. -1.
          2   -1    0    0  501    0  0.00000000000E+00 -0.00000000000E+00 -0.20840679935E+04  0.20840679935E+04  0.25500000000E-02 0.  1.
    5000001    1    1    2    0    0  0.83413554765E+02 -0.18590290977E+03 -0.11390934069E+04  0.11729942466E+04  0.19200000000E+03 0.  0.
   -5000001    1    1    2    0    0 -0.83413554765E+02  0.18590290977E+03 -0.90690895342E+03  0.94913938005E+03  0.19200000000E+03 0.  0.
<mgrwt>
<rscale>  0 0.56331649E+03</rscale>
<asrwt>0</asrwt>
<pdfrwt beam="1">  1        2 0.29772393E+00 0.56331649E+03</pdfrwt>
<pdfrwt beam="2">  1       -2 0.54379489E-02 0.56331649E+03</pdfrwt>
<totfact> 0.13564485E+03</totfact>
</mgrwt>
</event>
<event>
 4    1  0.2058931E-005  0.1002461E+04  0.7818608E-02  0.9305850E-01
         -2   -1    0    0    0  501 -0.00000000000E+00  0.00000000000E+00  0.59816766589E+03  0.59816766590E+03  0.25500000000E-02 0. -1.
          2   -1    0    0  501    0  0.00000000000E+00 -0.00000000000E+00 -0.42000241862E+03  0.42000241863E+03  0.25500000000E-02 0.  1.
    5000001    1    1    2    0    0 -0.33554016407E+03  0.26632341941E+03  0.26748398414E+03  0.54030273663E+03  0.19200000000E+03 0.  0.
   -5000001    1    1    2    0    0  0.33554016407E+03 -0.26632341941E+03 -0.89318736867E+02  0.47786734790E+03  0.19200000000E+03 0.  0.
<mgrwt>
<rscale>  0 0.10024607E+04</rscale>
<asrwt>0</asrwt>
<pdfrwt beam="1">  1        2 0.60000345E-01 0.10024607E+04</pdfrwt>
<pdfrwt beam="2">  1       -2 0.85452524E-01 0.10024607E+04</pdfrwt>
<totfact> 0.97372482E+01</totfact>
</mgrwt>
</event>
<event>
 4    1  0.2058931E-005  0.6832702E+03  0.7818608E-02  0.9746278E-01
         -2   -1    0    0    0  501 -0.00000000000E+00  0.00000000000E+00  0.26304024493E+03  0.26304024494E+03  0.25500000000E-02 0. -1.
          2   -1    0    0  501    0  0.00000000000E+00 -0.00000000000E+00 -0.44371360010E+03  0.44371360010E+03  0.25500000000E-02 0.  1.
    5000001    1    1    2    0    0 -0.16123867115E+03  0.23146583832E+03 -0.73146505731E+02  0.34898245612E+03  0.19200000000E+03 0.  0.
   -5000001    1    1    2    0    0  0.16123867115E+03 -0.23146583832E+03 -0.10752684944E+03  0.35777138892E+03  0.19200000000E+03 0.  0.
<mgrwt>
<rscale>  0 0.68327018E+03</rscale>
<asrwt>0</asrwt>
<pdfrwt beam="1">  1        2 0.63387657E-01 0.68327018E+03</pdfrwt>
<pdfrwt beam="2">  1       -2 0.37577178E-01 0.68327018E+03</pdfrwt>
<totfact> 0.51715822E+02</totfact>
</mgrwt>
</event>
<event>
 4    1  0.2058931E-005  0.6753745E+03  0.7818608E-02  0.9760297E-01
          2   -1    0    0  501    0  0.00000000000E+00  0.00000000000E+00  0.19998174866E+03  0.19998174867E+03  0.25500000000E-02 0.  1.
         -2   -1    0    0    0  501 -0.00000000000E+00 -0.00000000000E+00 -0.57021548204E+03  0.57021548204E+03  0.25500000000E-02 0. -1.
    5000001    1    1    2    0    0  0.23363600350E+03 -0.14632153352E+03 -0.14606060123E+03  0.36632427238E+03  0.19200000000E+03 0.  0.
   -5000001    1    1    2    0    0 -0.23363600350E+03  0.14632153352E+03 -0.22417313215E+03  0.40387295834E+03  0.19200000000E+03 0.  0.
<mgrwt>
<rscale>  0 0.67537453E+03</rscale>
<asrwt>0</asrwt>
<pdfrwt beam="1">  1        2 0.28568821E-01 0.67537453E+03</pdfrwt>
<pdfrwt beam="2">  1       -2 0.81459354E-01 0.67537453E+03</pdfrwt>
<totfact> 0.25211643E+02</totfact>
</mgrwt>
</event>
<event>
 4    1  0.2058931E-005  0.4956962E+03  0.7818608E-02  0.1014908E+00
         -2   -1    0    0    0  501 -0.00000000000E+00  0.00000000000E+00  0.77239544482E+02  0.77239544524E+02  0.25500000000E-02 0. -1.
          2   -1    0    0  501    0  0.00000000000E+00 -0.00000000000E+00 -0.79530081032E+03  0.79530081033E+03  0.25500000000E-02 0.  1.
    5000001    1    1    2    0    0 -0.11387981036E+03 -0.14295327376E+02 -0.54690361204E+03  0.59088114579E+03  0.19200000000E+03 0.  0.
   -5000001    1    1    2    0    0  0.11387981036E+03  0.14295327376E+02 -0.17115765380E+03  0.28165920906E+03  0.19200000000E+03 0.  0.
<mgrwt>
<rscale>  0 0.49569617E+03</rscale>
<asrwt>0</asrwt>
<pdfrwt beam="1">  1        2 0.11361440E+00 0.49569617E+03</pdfrwt>
<pdfrwt beam="2">  1       -2 0.11034221E-01 0.49569617E+03</pdfrwt>
<totfact> 0.22343825E+03</totfact>
</mgrwt>
</event>
<event>
 4    1  0.2058931E-005  0.5628310E+03  0.7818608E-02  0.9985669E-01
          2   -1    0    0  501    0  0.00000000000E+00  0.00000000000E+00  0.12010929932E+04  0.12010929932E+04  0.25500000000E-02 0.  1.
         -2   -1    0    0    0  501 -0.00000000000E+00 -0.00000000000E+00 -0.65935519118E+02  0.65935519167E+02  0.25500000000E-02 0. -1.
    5000001    1    1    2    0    0 -0.93936875457E+02  0.13828172312E+03  0.29758167100E+03  0.39161821004E+03  0.19200000000E+03 0.  0.
   -5000001    1    1    2    0    0  0.93936875457E+02 -0.13828172312E+03  0.83757580308E+03  0.87541030233E+03  0.19200000000E+03 0.  0.
<mgrwt>
<rscale>  0 0.56283102E+03</rscale>
<asrwt>0</asrwt>
<pdfrwt beam="1">  1        2 0.17158470E+00 0.56283102E+03</pdfrwt>
<pdfrwt beam="2">  1       -2 0.94193604E-02 0.56283102E+03</pdfrwt>
<totfact> 0.16269234E+03</totfact>
</mgrwt>
</event>
<event>
 4    1  0.2058931E-005  0.4574110E+03  0.7818608E-02  0.1025535E+00
         -2   -1    0    0    0  501 -0.00000000000E+00  0.00000000000E+00  0.21798583746E+03  0.21798583748E+03  0.25500000000E-02 0. -1.
          2   -1    0    0  501    0  0.00000000000E+00 -0.00000000000E+00 -0.23995232698E+03  0.23995232700E+03  0.25500000000E-02 0.  1.
    5000001    1    1    2    0    0  0.10607206356E+03  0.59465736694E+02 -0.36600865152E+02  0.23019791450E+03  0.19200000000E+03 0.  0.
   -5000001    1    1    2    0    0 -0.10607206356E+03 -0.59465736694E+02  0.14634375631E+02  0.22774024998E+03  0.19200000000E+03 0.  0.
<mgrwt>
<rscale>  0 0.45741101E+03</rscale>
<asrwt>0</asrwt>
<pdfrwt beam="1">  1        2 0.34278904E-01 0.45741101E+03</pdfrwt>
<pdfrwt beam="2">  1       -2 0.31140834E-01 0.45741101E+03</pdfrwt>
<totfact> 0.14572050E+03</totfact>
</mgrwt>
</event>
<event>
 4    1  0.2058931E-005  0.6500916E+03  0.7818608E-02  0.9806607E-01
         -2   -1    0    0    0  501 -0.00000000000E+00  0.00000000000E+00  0.47109378527E+02  0.47109378596E+02  0.25500000000E-02 0. -1.
          2   -1    0    0  501    0  0.00000000000E+00 -0.00000000000E+00 -0.22427545847E+04  0.22427545847E+04  0.25500000000E-02 0.  1.
    5000001    1    1    2    0    0  0.12536291654E+03  0.16868786164E+03 -0.16505018314E+04  0.16748706669E+04  0.19200000000E+03 0.  0.
   -5000001    1    1    2    0    0 -0.12536291654E+03 -0.16868786164E+03 -0.54514337474E+03  0.61499329633E+03  0.19200000000E+03 0.  0.
<mgrwt>
<rscale>  0 0.65009161E+03</rscale>
<asrwt>0</asrwt>
<pdfrwt beam="1">  1        2 0.32039345E+00 0.65009161E+03</pdfrwt>
<pdfrwt beam="2">  1       -2 0.67299126E-02 0.65009161E+03</pdfrwt>
<totfact> 0.80379453E+02</totfact>
</mgrwt>
</event>
<event>
 4    1  0.2058931E-005  0.5734525E+03  0.7818608E-02  0.9962068E-01
          2   -1    0    0  501    0  0.00000000000E+00  0.00000000000E+00  0.16770540136E+04  0.16770540136E+04  0.25500000000E-02 0.  1.
         -2   -1    0    0    0  501 -0.00000000000E+00 -0.00000000000E+00 -0.49021635246E+02  0.49021635313E+02  0.25500000000E-02 0. -1.
    5000001    1    1    2    0    0  0.17914070621E+03  0.74551521493E+02  0.54991611859E+03  0.61393897047E+03  0.19200000000E+03 0.  0.
   -5000001    1    1    2    0    0 -0.17914070621E+03 -0.74551521493E+02  0.10781162598E+04  0.11121366785E+04  0.19200000000E+03 0.  0.
<mgrwt>
<rscale>  0 0.57345246E+03</rscale>
<asrwt>0</asrwt>
<pdfrwt beam="1">  1        2 0.23957917E+00 0.57345246E+03</pdfrwt>
<pdfrwt beam="2">  1       -2 0.70030901E-02 0.57345246E+03</pdfrwt>
<totfact> 0.14618026E+03</totfact>
</mgrwt>
</event>
<event>
 4    1  0.2058931E-005  0.6969546E+03  0.7818608E-02  0.9722454E-01
          2   -1    0    0  501    0  0.00000000000E+00  0.00000000000E+00  0.12716527302E+04  0.12716527302E+04  0.25500000000E-02 0.  1.
         -2   -1    0    0    0  501 -0.00000000000E+00 -0.00000000000E+00 -0.95494973880E+02  0.95494973914E+02  0.25500000000E-02 0. -1.
    5000001    1    1    2    0    0 -0.30940390804E+02  0.23462764059E+03  0.25654486840E+03  0.39835500124E+03  0.19200000000E+03 0.  0.
   -5000001    1    1    2    0    0  0.30940390804E+02 -0.23462764059E+03  0.91961288796E+03  0.96879270291E+03  0.19200000000E+03 0.  0.
<mgrwt>
<rscale>  0 0.69695464E+03</rscale>
<asrwt>0</asrwt>
<pdfrwt beam="1">  1        2 0.18166468E+00 0.69695464E+03</pdfrwt>
<pdfrwt beam="2">  1       -2 0.13642139E-01 0.69695464E+03</pdfrwt>
<totfact> 0.80649920E+02</totfact>
</mgrwt>
</event>
<event>
 4    1  0.2058931E-005  0.4602937E+03  0.7818608E-02  0.1024696E+00
         -2   -1    0    0    0  501 -0.00000000000E+00  0.00000000000E+00  0.11909015044E+03  0.11909015047E+03  0.25500000000E-02 0. -1.
          2   -1    0    0  501    0  0.00000000000E+00 -0.00000000000E+00 -0.44476872008E+03  0.44476872009E+03  0.25500000000E-02 0.  1.
    5000001    1    1    2    0    0  0.16068723819E+01 -0.71556872336E+02 -0.29120484820E+03  0.35607194727E+03  0.19200000000E+03 0.  0.
   -5000001    1    1    2    0    0 -0.16068723819E+01  0.71556872336E+02 -0.34473721438E+02  0.20778692328E+03  0.19200000000E+03 0.  0.
<mgrwt>
<rscale>  0 0.46029371E+03</rscale>
<asrwt>0</asrwt>
<pdfrwt beam="1">  1        2 0.63538388E-01 0.46029371E+03</pdfrwt>
<pdfrwt beam="2">  1       -2 0.17012879E-01 0.46029371E+03</pdfrwt>
<totfact> 0.21520825E+03</totfact>
</mgrwt>
</event>
<event>
 4    1  0.2058931E-005  0.6976385E+03  0.7818608E-02  0.9721279E-01
          2   -1    0    0  501    0  0.00000000000E+00  0.00000000000E+00  0.60223122440E+03  0.60223122441E+03  0.25500000000E-02 0.  1.
         -2   -1    0    0    0  501 -0.00000000000E+00 -0.00000000000E+00 -0.20204014022E+03  0.20204014023E+03  0.25500000000E-02 0. -1.
    5000001    1    1    2    0    0 -0.84638368431E+02 -0.25807718090E+03  0.32124555775E+03  0.46241776900E+03  0.19200000000E+03 0.  0.
   -5000001    1    1    2    0    0  0.84638368431E+02  0.25807718090E+03  0.78945526432E+02  0.34185359564E+03  0.19200000000E+03 0.  0.
<mgrwt>
<rscale>  0 0.69763853E+03</rscale>
<asrwt>0</asrwt>
<pdfrwt beam="1">  1        2 0.86033033E-01 0.69763853E+03</pdfrwt>
<pdfrwt beam="2">  1       -2 0.28862877E-01 0.69763853E+03</pdfrwt>
<totfact> 0.59755039E+02</totfact>
</mgrwt>
</event>
<event>
 4    1  0.2058931E-005  0.6165426E+03  0.7818608E-02  0.9871668E-01
         -2   -1    0    0    0  501 -0.00000000000E+00  0.00000000000E+00  0.57712005664E+03  0.57712005665E+03  0.25500000000E-02 0. -1.
          2   -1    0    0  501    0  0.00000000000E+00 -0.00000000000E+00 -0.16466449410E+03  0.16466449411E+03  0.25500000000E-02 0.  1.
    5000001    1    1    2    0    0 -0.20247739835E+03  0.12407321456E+03  0.15552558665E+03  0.34270025900E+03  0.19200000000E+03 0.  0.
   -5000001    1    1    2    0    0  0.20247739835E+03 -0.12407321456E+03  0.25692997590E+03  0.39908429176E+03  0.19200000000E+03 0.  0.
<mgrwt>
<rscale>  0 0.61654256E+03</rscale>
<asrwt>0</asrwt>
<pdfrwt beam="1">  1        2 0.23523499E-01 0.61654256E+03</pdfrwt>
<pdfrwt beam="2">  1       -2 0.82445722E-01 0.61654256E+03</pdfrwt>
<totfact> 0.30677597E+02</totfact>
</mgrwt>
</event>
<event>
 4    1  0.2058931E-005  0.7684998E+03  0.7818608E-02  0.9606766E-01
          2   -1    0    0  501    0  0.00000000000E+00  0.00000000000E+00  0.46705671097E+03  0.46705671097E+03  0.25500000000E-02 0.  1.
         -2   -1    0    0    0  501 -0.00000000000E+00 -0.00000000000E+00 -0.31612433539E+03  0.31612433540E+03  0.25500000000E-02 0. -1.
    5000001    1    1    2    0    0 -0.29949135754E+03 -0.58457944518E+02  0.21094026041E+03  0.41769869282E+03  0.19200000000E+03 0.  0.
   -5000001    1    1    2    0    0  0.29949135754E+03  0.58457944518E+02 -0.60007884835E+02  0.36548235356E+03  0.19200000000E+03 0.  0.
<mgrwt>
<rscale>  0 0.76849982E+03</rscale>
<asrwt>0</asrwt>
<pdfrwt beam="1">  1        2 0.66722387E-01 0.76849982E+03</pdfrwt>
<pdfrwt beam="2">  1       -2 0.45160619E-01 0.76849982E+03</pdfrwt>
<totfact> 0.33970086E+02</totfact>
</mgrwt>
</event>
<event>
 4    1  0.2058931E-005  0.5144470E+03  0.7818608E-02  0.1010075E+00
         -2   -1    0    0    0  501 -0.00000000000E+00  0.00000000000E+00  0.10135523854E+03  0.10135523858E+03  0.25500000000E-02 0. -1.
          2   -1    0    0  501    0  0.00000000000E+00 -0.00000000000E+00 -0.65279241235E+03  0.65279241235E+03  0.25500000000E-02 0.  1.
    5000001    1    1    2    0    0  0.41087154408E+02  0.16554124768E+03 -0.29685413277E+03  0.39252826024E+03  0.19200000000E+03 0.  0.
   -5000001    1    1    2    0    0 -0.41087154408E+02 -0.16554124768E+03 -0.25458304104E+03  0.36161939069E+03  0.19200000000E+03 0.  0.
<mgrwt>
<rscale>  0 0.51444701E+03</rscale>
<asrwt>0</asrwt>
<pdfrwt beam="1">  1        2 0.93256057E-01 0.51444701E+03</pdfrwt>
<pdfrwt beam="2">  1       -2 0.14479320E-01 0.51444701E+03</pdfrwt>
<totfact> 0.18194999E+03</totfact>
</mgrwt>
</event>
<event>
 4    1  0.2058931E-005  0.1078346E+04  0.7818608E-02  0.9226558E-01
          2   -1    0    0  501    0  0.00000000000E+00  0.00000000000E+00  0.19203545125E+04  0.19203545125E+04  0.25500000000E-02 0.  1.
         -2   -1    0    0    0  501 -0.00000000000E+00 -0.00000000000E+00 -0.15138227501E+03  0.15138227503E+03  0.25500000000E-02 0. -1.
    5000001    1    1    2    0    0  0.14543001267E+03  0.47429384824E+03  0.71547263073E+03  0.89155461324E+03  0.19200000000E+03 0.  0.
   -5000001    1    1    2    0    0 -0.14543001267E+03 -0.47429384824E+03  0.10534996068E+04  0.11801821743E+04  0.19200000000E+03 0.  0.
<mgrwt>
<rscale>  0 0.10783462E+04</rscale>
<asrwt>0</asrwt>
<pdfrwt beam="1">  1        2 0.27433634E+00 0.10783462E+04</pdfrwt>
<pdfrwt beam="2">  1       -2 0.21626041E-01 0.10783462E+04</pdfrwt>
<totfact> 0.16323608E+02</totfact>
</mgrwt>
</event>
<event>
 4    1  0.2058931E-005  0.9087006E+03  0.7818608E-02  0.9414770E-01
         -2   -1    0    0    0  501 -0.00000000000E+00  0.00000000000E+00  0.11140444569E+03  0.11140444572E+03  0.25500000000E-02 0. -1.
          2   -1    0    0  501    0  0.00000000000E+00 -0.00000000000E+00 -0.18530158071E+04  0.18530158071E+04  0.25500000000E-02 0.  1.
    5000001    1    1    2    0    0  0.20468560687E+03 -0.23908574584E+03 -0.14448496033E+04  0.14911447172E+04  0.19200000000E+03 0.  0.
   -5000001    1    1    2    0    0 -0.20468560687E+03  0.23908574584E+03 -0.29676175812E+03  0.47327553561E+03  0.19200000000E+03 0.  0.
<mgrwt>
<rscale>  0 0.90870061E+03</rscale>
<asrwt>0</asrwt>
<pdfrwt beam="1">  1        2 0.26471653E+00 0.90870061E+03</pdfrwt>
<pdfrwt beam="2">  1       -2 0.15914922E-01 0.90870061E+03</pdfrwt>
<totfact> 0.30461665E+02</totfact>
</mgrwt>
</event>
<event>
 4    1  0.2058931E-005  0.6183824E+03  0.7818608E-02  0.9867986E-01
         -2   -1    0    0    0  501 -0.00000000000E+00  0.00000000000E+00  0.12740474800E+04  0.12740474800E+04  0.25500000000E-02 0. -1.
          2   -1    0    0  501    0  0.00000000000E+00 -0.00000000000E+00 -0.75035820166E+02  0.75035820209E+02  0.25500000000E-02 0.  1.
    5000001    1    1    2    0    0 -0.10894725699E+03 -0.21635017671E+03  0.61616268549E+03  0.68934560182E+03  0.19200000000E+03 0.  0.
   -5000001    1    1    2    0    0  0.10894725699E+03  0.21635017671E+03  0.58284897431E+03  0.65973769835E+03  0.19200000000E+03 0.  0.
<mgrwt>
<rscale>  0 0.61838240E+03</rscale>
<asrwt>0</asrwt>
<pdfrwt beam="1">  1        2 0.10719404E-01 0.61838240E+03</pdfrwt>
<pdfrwt beam="2">  1       -2 0.18200677E+00 0.61838240E+03</pdfrwt>
<totfact> 0.10912941E+02</totfact>
</mgrwt>
</event>
<event>
 4    1  0.2058931E-005  0.4473876E+03  0.7818608E-02  0.1028504E+00
          2   -1    0    0  501    0  0.00000000000E+00  0.00000000000E+00  0.12037756084E+04  0.12037756084E+04  0.25500000000E-02 0.  1.
         -2   -1    0    0    0  501 -0.00000000000E+00 -0.00000000000E+00 -0.41568302930E+02  0.41568303008E+02  0.25500000000E-02 0. -1.
    5000001    1    1    2    0    0 -0.77649754826E+02  0.44858904067E+02  0.78053590775E+03  0.80879052231E+03  0.19200000000E+03 0.  0.
   -5000001    1    1    2    0    0  0.77649754826E+02 -0.44858904067E+02  0.38167139776E+03  0.43655338914E+03  0.19200000000E+03 0.  0.
<mgrwt>
<rscale>  0 0.44738757E+03</rscale>
<asrwt>0</asrwt>
<pdfrwt beam="1">  1        2 0.17196795E+00 0.44738757E+03</pdfrwt>
<pdfrwt beam="2">  1       -2 0.59383289E-02 0.44738757E+03</pdfrwt>
<totfact> 0.33659390E+03</totfact>
</mgrwt>
</event>
<event>
 4    1  0.2058931E-005  0.8814652E+03  0.7818608E-02  0.9449052E-01
         -2   -1    0    0    0  501 -0.00000000000E+00  0.00000000000E+00  0.78963602412E+02  0.78963602453E+02  0.25500000000E-02 0. -1.
          2   -1    0    0  501    0  0.00000000000E+00 -0.00000000000E+00 -0.24599333973E+04  0.24599333973E+04  0.25500000000E-02 0.  1.
    5000001    1    1    2    0    0 -0.19205271226E+02  0.30968344500E+03 -0.19025026691E+04  0.19371765755E+04  0.19200000000E+03 0.  0.
   -5000001    1    1    2    0    0  0.19205271226E+02 -0.30968344500E+03 -0.47846712574E+03  0.60172042425E+03  0.19200000000E+03 0.  0.
<mgrwt>
<rscale>  0 0.88146515E+03</rscale>
<asrwt>0</asrwt>
<pdfrwt beam="1">  1        2 0.35141901E+00 0.88146515E+03</pdfrwt>
<pdfrwt beam="2">  1       -2 0.11280516E-01 0.88146515E+03</pdfrwt>
<totfact> 0.26608300E+02</totfact>
</mgrwt>
</event>
<event>
 4    1  0.2058931E-005  0.4953573E+03  0.7818608E-02  0.1014998E+00
         -2   -1    0    0    0  501 -0.00000000000E+00  0.00000000000E+00  0.13066629259E+03  0.13066629261E+03  0.25500000000E-02 0. -1.
          2   -1    0    0  501    0  0.00000000000E+00 -0.00000000000E+00 -0.46947619452E+03  0.46947619452E+03  0.25500000000E-02 0.  1.
    5000001    1    1    2    0    0 -0.14750421802E+03  0.41572058325E+02 -0.20762081931E+03  0.32164597771E+03  0.19200000000E+03 0.  0.
   -5000001    1    1    2    0    0  0.14750421802E+03 -0.41572058325E+02 -0.13118908262E+03  0.27849650943E+03  0.19200000000E+03 0.  0.
<mgrwt>
<rscale>  0 0.49535730E+03</rscale>
<asrwt>0</asrwt>
<pdfrwt beam="1">  1        2 0.67068027E-01 0.49535730E+03</pdfrwt>
<pdfrwt beam="2">  1       -2 0.18666613E-01 0.49535730E+03</pdfrwt>
<totfact> 0.17301539E+03</totfact>
</mgrwt>
</event>
<event>
 4    1  0.2058931E-005  0.7961548E+03  0.7818608E-02  0.9565600E-01
         -2   -1    0    0    0  501 -0.00000000000E+00  0.00000000000E+00  0.38214376575E+03  0.38214376576E+03  0.25500000000E-02 0. -1.
          2   -1    0    0  501    0  0.00000000000E+00 -0.00000000000E+00 -0.41467542412E+03  0.41467542413E+03  0.25500000000E-02 0.  1.
    5000001    1    1    2    0    0 -0.16207483816E+03  0.16854494455E+03  0.24265060041E+03  0.38783883944E+03  0.19200000000E+03 0.  0.
   -5000001    1    1    2    0    0  0.16207483816E+03 -0.16854494455E+03 -0.27518225878E+03  0.40898035044E+03  0.19200000000E+03 0.  0.
<mgrwt>
<rscale>  0 0.79615483E+03</rscale>
<asrwt>0</asrwt>
<pdfrwt beam="1">  1        2 0.59239346E-01 0.79615483E+03</pdfrwt>
<pdfrwt beam="2">  1       -2 0.54591966E-01 0.79615483E+03</pdfrwt>
<totfact> 0.26400646E+02</totfact>
</mgrwt>
</event>
<event>
 4    1  0.2058931E-005  0.6040847E+03  0.7818608E-02  0.9896968E-01
          2   -1    0    0  501    0  0.00000000000E+00  0.00000000000E+00  0.12725664371E+04  0.12725664371E+04  0.25500000000E-02 0.  1.
         -2   -1    0    0    0  501 -0.00000000000E+00 -0.00000000000E+00 -0.71689441688E+02  0.71689441733E+02  0.25500000000E-02 0. -1.
    5000001    1    1    2    0    0  0.13198280919E+03 -0.89535055444E+02  0.22194776387E+03  0.33400718250E+03  0.19200000000E+03 0.  0.
   -5000001    1    1    2    0    0 -0.13198280919E+03  0.89535055444E+02  0.97892923150E+03  0.10102486963E+04  0.19200000000E+03 0.  0.
<mgrwt>
<rscale>  0 0.60408469E+03</rscale>
<asrwt>0</asrwt>
<pdfrwt beam="1">  1        2 0.18179522E+00 0.60408469E+03</pdfrwt>
<pdfrwt beam="2">  1       -2 0.10241348E-01 0.60408469E+03</pdfrwt>
<totfact> 0.12959659E+03</totfact>
</mgrwt>
</event>
<event>
 4    1  0.2058931E-005  0.4876331E+03  0.7818608E-02  0.1017058E+00
         -2   -1    0    0    0  501 -0.00000000000E+00  0.00000000000E+00  0.28788377641E+03  0.28788377642E+03  0.25500000000E-02 0. -1.
          2   -1    0    0  501    0  0.00000000000E+00 -0.00000000000E+00 -0.20649478681E+03  0.20649478683E+03  0.25500000000E-02 0.  1.
    5000001    1    1    2    0    0 -0.11438605378E+03 -0.88136030811E+02 -0.14786473042E+01  0.24024636444E+03  0.19200000000E+03 0.  0.
   -5000001    1    1    2    0    0  0.11438605378E+03  0.88136030811E+02  0.82867636907E+02  0.25413219881E+03  0.19200000000E+03 0.  0.
<mgrwt>
<rscale>  0 0.48763305E+03</rscale>
<asrwt>0</asrwt>
<pdfrwt beam="1">  1        2 0.29499255E-01 0.48763305E+03</pdfrwt>
<pdfrwt beam="2">  1       -2 0.41126254E-01 0.48763305E+03</pdfrwt>
<totfact> 0.10170775E+03</totfact>
</mgrwt>
</event>
<event>
 4    1  0.2058931E-005  0.4946447E+03  0.7818608E-02  0.1015186E+00
          2   -1    0    0  501    0  0.00000000000E+00  0.00000000000E+00  0.27387870066E+03  0.27387870067E+03  0.25500000000E-02 0.  1.
         -2   -1    0    0    0  501 -0.00000000000E+00 -0.00000000000E+00 -0.22334104822E+03  0.22334104823E+03  0.25500000000E-02 0. -1.
    5000001    1    1    2    0    0  0.49997909306E+02 -0.14419155928E+03  0.57267849237E+02  0.25186227041E+03  0.19200000000E+03 0.  0.
   -5000001    1    1    2    0    0 -0.49997909306E+02  0.14419155928E+03 -0.67301967972E+01  0.24535747849E+03  0.19200000000E+03 0.  0.
<mgrwt>
<rscale>  0 0.49464475E+03</rscale>
<asrwt>0</asrwt>
<pdfrwt beam="1">  1        2 0.39125529E-01 0.49464475E+03</pdfrwt>
<pdfrwt beam="2">  1       -2 0.31905864E-01 0.49464475E+03</pdfrwt>
<totfact> 0.12045308E+03</totfact>
</mgrwt>
</event>
<event>
 4    1  0.2058931E-005  0.4328554E+03  0.7818608E-02  0.1032962E+00
         -2   -1    0    0    0  501 -0.00000000000E+00  0.00000000000E+00  0.56618489254E+02  0.56618489312E+02  0.25500000000E-02 0. -1.
          2   -1    0    0  501    0  0.00000000000E+00 -0.00000000000E+00 -0.82730827788E+03  0.82730827788E+03  0.25500000000E-02 0.  1.
    5000001    1    1    2    0    0 -0.38273805363E+02 -0.90681806207E+02 -0.42005254547E+03  0.47222475063E+03  0.19200000000E+03 0.  0.
   -5000001    1    1    2    0    0  0.38273805363E+02  0.90681806207E+02 -0.35063724315E+03  0.41170201656E+03  0.19200000000E+03 0.  0.
<mgrwt>
<rscale>  0 0.43285538E+03</rscale>
<asrwt>0</asrwt>
<pdfrwt beam="1">  1        2 0.11818689E+00 0.43285538E+03</pdfrwt>
<pdfrwt beam="2">  1       -2 0.80883561E-02 0.43285538E+03</pdfrwt>
<totfact> 0.34942108E+03</totfact>
</mgrwt>
</event>
<event>
 4    1  0.2058931E-005  0.5166725E+03  0.7818608E-02  0.1009516E+00
         -2   -1    0    0    0  501 -0.00000000000E+00  0.00000000000E+00  0.37094123032E+02  0.37094123119E+02  0.25500000000E-02 0. -1.
          2   -1    0    0  501    0  0.00000000000E+00 -0.00000000000E+00 -0.17991428127E+04  0.17991428127E+04  0.25500000000E-02 0.  1.
    5000001    1    1    2    0    0  0.36826806786E+02  0.16275923663E+03 -0.10410255708E+04  0.10716552719E+04  0.19200000000E+03 0.  0.
   -5000001    1    1    2    0    0 -0.36826806786E+02 -0.16275923663E+03 -0.72102311885E+03  0.76458166386E+03  0.19200000000E+03 0.  0.
<mgrwt>
<rscale>  0 0.51667253E+03</rscale>
<asrwt>0</asrwt>
<pdfrwt beam="1">  1        2 0.25702035E+00 0.51667253E+03</pdfrwt>
<pdfrwt beam="2">  1       -2 0.52991616E-02 0.51667253E+03</pdfrwt>
<totfact> 0.19656288E+03</totfact>
</mgrwt>
</event>
<event>
 4    1  0.2058931E-005  0.5666127E+03  0.7818608E-02  0.9977202E-01
         -2   -1    0    0    0  501 -0.00000000000E+00  0.00000000000E+00  0.79153327910E+02  0.79153327951E+02  0.25500000000E-02 0.  1.
          2   -1    0    0  501    0  0.00000000000E+00 -0.00000000000E+00 -0.10140128119E+04  0.10140128119E+04  0.25500000000E-02 0. -1.
    5000001    1    1    2    0    0  0.18869622109E+03 -0.65815332284E+02 -0.35393559001E+03  0.44952455294E+03  0.19200000000E+03 0.  0.
   -5000001    1    1    2    0    0 -0.18869622109E+03  0.65815332284E+02 -0.58092389399E+03  0.64364158693E+03  0.19200000000E+03 0.  0.
<mgrwt>
<rscale>  0 0.56661270E+03</rscale>
<asrwt>0</asrwt>
<pdfrwt beam="1">  1        2 0.14485897E+00 0.56661270E+03</pdfrwt>
<pdfrwt beam="2">  1       -2 0.11307619E-01 0.56661270E+03</pdfrwt>
<totfact> 0.15523114E+03</totfact>
</mgrwt>
</event>
<event>
 4    1  0.2058931E-005  0.8794422E+03  0.7818608E-02  0.9451651E-01
          2   -1    0    0  501    0  0.00000000000E+00  0.00000000000E+00  0.26835201925E+04  0.26835201925E+04  0.25500000000E-02 0.  1.
         -2   -1    0    0    0  501 -0.00000000000E+00 -0.00000000000E+00 -0.72052619840E+02  0.72052619885E+02  0.25500000000E-02 0. -1.
    5000001    1    1    2    0    0  0.33145720855E+03  0.30194149969E+02  0.63579615245E+03  0.74288378315E+03  0.19200000000E+03 0.  0.
   -5000001    1    1    2    0    0 -0.33145720855E+03 -0.30194149969E+02  0.19756714202E+04  0.20126890292E+04  0.19200000000E+03 0.  0.
<mgrwt>
<rscale>  0 0.87944223E+03</rscale>
<asrwt>0</asrwt>
<pdfrwt beam="1">  1        2 0.38335999E+00 0.87944223E+03</pdfrwt>
<pdfrwt beam="2">  1       -2 0.10293233E-01 0.87944223E+03</pdfrwt>
<totfact> 0.23635009E+02</totfact>
</mgrwt>
</event>
<event>
 4    1  0.2058931E-005  0.5564847E+03  0.7818608E-02  0.1000004E+00
          2   -1    0    0  501    0  0.00000000000E+00  0.00000000000E+00  0.55345681929E+02  0.55345681987E+02  0.25500000000E-02 0.  1.
         -2   -1    0    0    0  501 -0.00000000000E+00 -0.00000000000E+00 -0.13988230526E+04  0.13988230526E+04  0.25500000000E-02 0. -1.
    5000001    1    1    2    0    0 -0.17787569999E+03  0.49433112158E+02 -0.88195251790E+03  0.92129671717E+03  0.19200000000E+03 0.  0.
   -5000001    1    1    2    0    0  0.17787569999E+03 -0.49433112158E+02 -0.46152485272E+03  0.53287201738E+03  0.19200000000E+03 0.  0.
<mgrwt>
<rscale>  0 0.55648474E+03</rscale>
<asrwt>0</asrwt>
<pdfrwt beam="1">  1        2 0.79065268E-02 0.55648474E+03</pdfrwt>
<pdfrwt beam="2">  1       -2 0.19983184E+00 0.55648474E+03</pdfrwt>
<totfact> 0.12321165E+02</totfact>
</mgrwt>
</event>
<event>
 4    1  0.2058931E-005  0.8533179E+03  0.7818608E-02  0.9485895E-01
         -2   -1    0    0    0  501 -0.00000000000E+00  0.00000000000E+00  0.86148697498E+03  0.86148697498E+03  0.25500000000E-02 0. -1.
          2   -1    0    0  501    0  0.00000000000E+00 -0.00000000000E+00 -0.21130659076E+03  0.21130659077E+03  0.25500000000E-02 0.  1.
    5000001    1    1    2    0    0  0.33589491203E+02 -0.35355870195E+03  0.49857443604E+03  0.64153914761E+03  0.19200000000E+03 0.  0.
   -5000001    1    1    2    0    0 -0.33589491203E+02  0.35355870195E+03  0.15160594818E+03  0.43125441814E+03  0.19200000000E+03 0.  0.
<mgrwt>
<rscale>  0 0.85331794E+03</rscale>
<asrwt>0</asrwt>
<pdfrwt beam="1">  1        2 0.30186655E-01 0.85331794E+03</pdfrwt>
<pdfrwt beam="2">  1       -2 0.12306957E+00 0.85331794E+03</pdfrwt>
<totfact> 0.88573672E+01</totfact>
</mgrwt>
</event>
<event>
 4    1  0.2058931E-005  0.5159086E+03  0.7818608E-02  0.1009708E+00
          2   -1    0    0  501    0  0.00000000000E+00  0.00000000000E+00  0.21898424520E+03  0.21898424521E+03  0.25500000000E-02 0.  1.
         -2   -1    0    0    0  501 -0.00000000000E+00 -0.00000000000E+00 -0.30385941156E+03  0.30385941157E+03  0.25500000000E-02 0. -1.
    5000001    1    1    2    0    0 -0.10616989757E+03  0.12552266931E+03  0.97171618467E+01  0.25295535356E+03  0.19200000000E+03 0.  0.
   -5000001    1    1    2    0    0  0.10616989757E+03 -0.12552266931E+03 -0.94592328211E+02  0.26988830322E+03  0.19200000000E+03 0.  0.
<mgrwt>
<rscale>  0 0.51590861E+03</rscale>
<asrwt>0</asrwt>
<pdfrwt beam="1">  1        2 0.31283464E-01 0.51590861E+03</pdfrwt>
<pdfrwt beam="2">  1       -2 0.43408487E-01 0.51590861E+03</pdfrwt>
<totfact> 0.85707432E+02</totfact>
</mgrwt>
</event>
<event>
 4    1  0.2058931E-005  0.5997336E+03  0.7818608E-02  0.9905959E-01
          2   -1    0    0  501    0  0.00000000000E+00  0.00000000000E+00  0.64872283133E+03  0.64872283133E+03  0.25500000000E-02 0.  1.
         -2   -1    0    0    0  501 -0.00000000000E+00 -0.00000000000E+00 -0.13861096917E+03  0.13861096919E+03  0.25500000000E-02 0. -1.
    5000001    1    1    2    0    0  0.88003003278E+02  0.20897462283E+03  0.20187224193E+03  0.35920930338E+03  0.19200000000E+03 0.  0.
   -5000001    1    1    2    0    0 -0.88003003278E+02 -0.20897462283E+03  0.30823962023E+03  0.42812449714E+03  0.19200000000E+03 0.  0.
<mgrwt>
<rscale>  0 0.59973361E+03</rscale>
<asrwt>0</asrwt>
<pdfrwt beam="1">  1        2 0.92674690E-01 0.59973361E+03</pdfrwt>
<pdfrwt beam="2">  1       -2 0.19801567E-01 0.59973361E+03</pdfrwt>
<totfact> 0.10748012E+03</totfact>
</mgrwt>
</event>
<event>
 4    1  0.2058931E-005  0.5850659E+03  0.7818608E-02  0.9936883E-01
          2   -1    0    0  501    0  0.00000000000E+00  0.00000000000E+00  0.10320945195E+04  0.10320945195E+04  0.25500000000E-02 0.  1.
         -2   -1    0    0    0  501 -0.00000000000E+00 -0.00000000000E+00 -0.82914433102E+02  0.82914433141E+02  0.25500000000E-02 0. -1.
    5000001    1    1    2    0    0  0.17830666068E+03  0.12829643008E+03  0.51538862553E+03  0.59223532024E+03  0.19200000000E+03 0.  0.
   -5000001    1    1    2    0    0 -0.17830666068E+03 -0.12829643008E+03  0.43379146087E+03  0.52277363240E+03  0.19200000000E+03 0.  0.
<mgrwt>
<rscale>  0 0.58506592E+03</rscale>
<asrwt>0</asrwt>
<pdfrwt beam="1">  1        2 0.14744207E+00 0.58506592E+03</pdfrwt>
<pdfrwt beam="2">  1       -2 0.11844920E-01 0.58506592E+03</pdfrwt>
<totfact> 0.14025344E+03</totfact>
</mgrwt>
</event>
<event>
 4    1  0.2058931E-005  0.5089882E+03  0.7818608E-02  0.1011459E+00
          2   -1    0    0  501    0  0.00000000000E+00  0.00000000000E+00  0.24629929044E+03  0.24629929046E+03  0.25500000000E-02 0.  1.
         -2   -1    0    0    0  501 -0.00000000000E+00 -0.00000000000E+00 -0.26296151839E+03  0.26296151840E+03  0.25500000000E-02 0. -1.
    5000001    1    1    2    0    0 -0.74875244255E+02  0.10554328187E+03 -0.11401699656E+03  0.25808828345E+03  0.19200000000E+03 0.  0.
   -5000001    1    1    2    0    0  0.74875244255E+02 -0.10554328187E+03  0.97354768608E+02  0.25117252541E+03  0.19200000000E+03 0.  0.
<mgrwt>
<rscale>  0 0.50898815E+03</rscale>
<asrwt>0</asrwt>
<pdfrwt beam="1">  1        2 0.35185613E-01 0.50898815E+03</pdfrwt>
<pdfrwt beam="2">  1       -2 0.37565931E-01 0.50898815E+03</pdfrwt>
<totfact> 0.99542689E+02</totfact>
</mgrwt>
</event>
<event>
 4    1  0.2058931E-005  0.5059528E+03  0.7818608E-02  0.1012237E+00
          2   -1    0    0  501    0  0.00000000000E+00  0.00000000000E+00  0.17935357186E+04  0.17935357186E+04  0.25500000000E-02 0.  1.
         -2   -1    0    0    0  501 -0.00000000000E+00 -0.00000000000E+00 -0.35682062054E+02  0.35682062145E+02  0.25500000000E-02 0. -1.
    5000001    1    1    2    0    0  0.55820831878E+02 -0.15400264194E+03  0.94157583961E+03  0.97481374669E+03  0.19200000000E+03 0.  0.
   -5000001    1    1    2    0    0 -0.55820831878E+02  0.15400264194E+03  0.81627781696E+03  0.85440403408E+03  0.19200000000E+03 0.  0.
<mgrwt>
<rscale>  0 0.50595278E+03</rscale>
<asrwt>0</asrwt>
<pdfrwt beam="1">  1        2 0.25621939E+00 0.50595278E+03</pdfrwt>
<pdfrwt beam="2">  1       -2 0.50974374E-02 0.50595278E+03</pdfrwt>
<totfact> 0.21017435E+03</totfact>
</mgrwt>
</event>
<event>
 4    1  0.2058931E-005  0.6266100E+03  0.7818608E-02  0.9851687E-01
         -2   -1    0    0    0  501 -0.00000000000E+00  0.00000000000E+00  0.33671690823E+02  0.33671690919E+02  0.25500000000E-02 0. -1.
          2   -1    0    0  501    0  0.00000000000E+00 -0.00000000000E+00 -0.29152093212E+04  0.29152093212E+04  0.25500000000E-02 0.  1.
    5000001    1    1    2    0    0 -0.30087544909E+02 -0.35836873748E+02 -0.29663324959E+03  0.35643348137E+03  0.19200000000E+03 0.  0.
   -5000001    1    1    2    0    0  0.30087544909E+02  0.35836873748E+02 -0.25849043808E+04  0.25924475307E+04  0.19200000000E+03 0.  0.
<mgrwt>
<rscale>  0 0.62661001E+03</rscale>
<asrwt>0</asrwt>
<pdfrwt beam="1">  1        2 0.41645831E+00 0.62661001E+03</pdfrwt>
<pdfrwt beam="2">  1       -2 0.48102434E-02 0.62661001E+03</pdfrwt>
<totfact> 0.60935409E+02</totfact>
</mgrwt>
</event>
<event>
 4    1  0.2058931E-005  0.5389652E+03  0.7818608E-02  0.1004081E+00
          2   -1    0    0  501    0  0.00000000000E+00  0.00000000000E+00  0.38044670697E+03  0.38044670698E+03  0.25500000000E-02 0.  1.
         -2   -1    0    0    0  501 -0.00000000000E+00 -0.00000000000E+00 -0.19088319539E+03  0.19088319541E+03  0.25500000000E-02 0. -1.
    5000001    1    1    2    0    0 -0.18423948745E+03  0.42091418756E+02  0.10156995153E+03  0.28791722998E+03  0.19200000000E+03 0.  0.
   -5000001    1    1    2    0    0  0.18423948745E+03 -0.42091418756E+02  0.87993560048E+02  0.28341267240E+03  0.19200000000E+03 0.  0.
<mgrwt>
<rscale>  0 0.53896524E+03</rscale>
<asrwt>0</asrwt>
<pdfrwt beam="1">  1        2 0.54349530E-01 0.53896524E+03</pdfrwt>
<pdfrwt beam="2">  1       -2 0.27269028E-01 0.53896524E+03</pdfrwt>
<totfact> 0.11196673E+03</totfact>
</mgrwt>
</event>
<event>
 4    1  0.2058931E-005  0.5557653E+03  0.7818608E-02  0.1000168E+00
         -2   -1    0    0    0  501 -0.00000000000E+00  0.00000000000E+00  0.57927358002E+02  0.57927358058E+02  0.25500000000E-02 0. -1.
          2   -1    0    0  501    0  0.00000000000E+00 -0.00000000000E+00 -0.13330275930E+04  0.13330275930E+04  0.25500000000E-02 0.  1.
    5000001    1    1    2    0    0 -0.37462248228E+01 -0.20055105908E+03 -0.61013301367E+03  0.67034398324E+03  0.19200000000E+03 0.  0.
   -5000001    1    1    2    0    0  0.37462248228E+01  0.20055105908E+03 -0.66496722133E+03  0.72061096782E+03  0.19200000000E+03 0.  0.
<mgrwt>
<rscale>  0 0.55576530E+03</rscale>
<asrwt>0</asrwt>
<pdfrwt beam="1">  1        2 0.19043249E+00 0.55576530E+03</pdfrwt>
<pdfrwt beam="2">  1       -2 0.82753377E-02 0.55576530E+03</pdfrwt>
<totfact> 0.16955262E+03</totfact>
</mgrwt>
</event>
<event>
 4    1  0.2058931E-005  0.4746034E+03  0.7818608E-02  0.1020629E+00
         -2   -1    0    0    0  501 -0.00000000000E+00  0.00000000000E+00  0.49937609917E+02  0.49937609982E+02  0.25500000000E-02 0. -1.
          2   -1    0    0  501    0  0.00000000000E+00 -0.00000000000E+00 -0.11276489771E+04  0.11276489771E+04  0.25500000000E-02 0.  1.
    5000001    1    1    2    0    0  0.10969445558E+03  0.40380194490E+02 -0.35014305113E+03  0.41608603671E+03  0.19200000000E+03 0.  0.
   -5000001    1    1    2    0    0 -0.10969445558E+03 -0.40380194490E+02 -0.72756831604E+03  0.76150055036E+03  0.19200000000E+03 0.  0.
<mgrwt>
<rscale>  0 0.47460339E+03</rscale>
<asrwt>0</asrwt>
<pdfrwt beam="1">  1        2 0.16109270E+00 0.47460339E+03</pdfrwt>
<pdfrwt beam="2">  1       -2 0.71339450E-02 0.47460339E+03</pdfrwt>
<totfact> 0.27882230E+03</totfact>
</mgrwt>
</event>
<event>
 4    1  0.2058931E-005  0.8249717E+03  0.7818608E-02  0.9524559E-01
          2   -1    0    0  501    0  0.00000000000E+00  0.00000000000E+00  0.15428818986E+04  0.15428818986E+04  0.25500000000E-02 0.  1.
         -2   -1    0    0    0  501 -0.00000000000E+00 -0.00000000000E+00 -0.11027711722E+03  0.11027711725E+03  0.25500000000E-02 0. -1.
    5000001    1    1    2    0    0  0.33618522584E+03  0.77691849977E+02  0.95529641815E+03  0.10336884328E+04  0.19200000000E+03 0.  0.
   -5000001    1    1    2    0    0 -0.33618522584E+03 -0.77691849977E+02  0.47730836319E+03  0.61947058300E+03  0.19200000000E+03 0.  0.
<mgrwt>
<rscale>  0 0.82497168E+03</rscale>
<asrwt>0</asrwt>
<pdfrwt beam="1">  1        2 0.22041170E+00 0.82497168E+03</pdfrwt>
<pdfrwt beam="2">  1       -2 0.15753874E-01 0.82497168E+03</pdfrwt>
<totfact> 0.45012332E+02</totfact>
</mgrwt>
</event>
<event>
 4    1  0.2058931E-005  0.7778823E+03  0.7818608E-02  0.9592595E-01
         -2   -1    0    0    0  501 -0.00000000000E+00  0.00000000000E+00  0.55063827353E+02  0.55063827412E+02  0.25500000000E-02 0. -1.
          2   -1    0    0  501    0  0.00000000000E+00 -0.00000000000E+00 -0.27472705405E+04  0.27472705405E+04  0.25500000000E-02 0.  1.
    5000001    1    1    2    0    0 -0.71217920190E+02 -0.31948438198E+03 -0.16532476379E+04  0.16962411428E+04  0.19200000000E+03 0.  0.
   -5000001    1    1    2    0    0  0.71217920190E+02  0.31948438198E+03 -0.10389590753E+04  0.11060932251E+04  0.19200000000E+03 0.  0.
<mgrwt>
<rscale>  0 0.77788233E+03</rscale>
<asrwt>0</asrwt>
<pdfrwt beam="1">  1        2 0.39246713E+00 0.77788233E+03</pdfrwt>
<pdfrwt beam="2">  1       -2 0.78662628E-02 0.77788233E+03</pdfrwt>
<totfact> 0.34081860E+02</totfact>
</mgrwt>
</event>
<event>
 4    1  0.2058931E-005  0.4410907E+03  0.7818608E-02  0.1030413E+00
          2   -1    0    0  501    0  0.00000000000E+00  0.00000000000E+00  0.96500281248E+03  0.96500281248E+03  0.25500000000E-02 0.  1.
         -2   -1    0    0    0  501 -0.00000000000E+00 -0.00000000000E+00 -0.50404265960E+02  0.50404266025E+02  0.25500000000E-02 0. -1.
    5000001    1    1    2    0    0  0.73443842983E+02  0.62187452487E+02  0.34185307939E+03  0.40371872041E+03  0.19200000000E+03 0.  0.
   -5000001    1    1    2    0    0 -0.73443842983E+02 -0.62187452487E+02  0.57274546713E+03  0.61168835810E+03  0.19200000000E+03 0.  0.
<mgrwt>
<rscale>  0 0.44109073E+03</rscale>
<asrwt>0</asrwt>
<pdfrwt beam="1">  1        2 0.13785755E+00 0.44109073E+03</pdfrwt>
<pdfrwt beam="2">  1       -2 0.72006093E-02 0.44109073E+03</pdfrwt>
<totfact> 0.34266559E+03</totfact>
</mgrwt>
</event>
<event>
 4    1  0.2058931E-005  0.6682422E+03  0.7818608E-02  0.9773139E-01
         -2   -1    0    0    0  501 -0.00000000000E+00  0.00000000000E+00  0.90064125328E+03  0.90064125329E+03  0.25500000000E-02 0. -1.
          2   -1    0    0  501    0  0.00000000000E+00 -0.00000000000E+00 -0.12395268885E+03  0.12395268888E+03  0.25500000000E-02 0.  1.
    5000001    1    1    2    0    0 -0.12081764130E+03 -0.23093065439E+03  0.26147128991E+03  0.41612150273E+03  0.19200000000E+03 0.  0.
   -5000001    1    1    2    0    0  0.12081764130E+03  0.23093065439E+03  0.51521727452E+03  0.60847243943E+03  0.19200000000E+03 0.  0.
<mgrwt>
<rscale>  0 0.66824219E+03</rscale>
<asrwt>0</asrwt>
<pdfrwt beam="1">  1        2 0.17707527E-01 0.66824219E+03</pdfrwt>
<pdfrwt beam="2">  1       -2 0.12866304E+00 0.66824219E+03</pdfrwt>
<totfact> 0.14817382E+02</totfact>
</mgrwt>
</event>
<event>
 4    1  0.2058931E-005  0.7851024E+03  0.7818608E-02  0.9581835E-01
         -2   -1    0    0    0  501 -0.00000000000E+00  0.00000000000E+00  0.71032562165E+02  0.71032562210E+02  0.25500000000E-02 0. -1.
          2   -1    0    0  501    0  0.00000000000E+00 -0.00000000000E+00 -0.21693776340E+04  0.21693776340E+04  0.25500000000E-02 0.  1.
    5000001    1    1    2    0    0 -0.26428401027E+03  0.20932719016E+03 -0.87870307987E+03  0.96054516458E+03  0.19200000000E+03 0.  0.
   -5000001    1    1    2    0    0  0.26428401027E+03 -0.20932719016E+03 -0.12196419920E+04  0.12798650316E+04  0.19200000000E+03 0.  0.
<mgrwt>
<rscale>  0 0.78510242E+03</rscale>
<asrwt>0</asrwt>
<pdfrwt beam="1">  1        2 0.30991105E+00 0.78510242E+03</pdfrwt>
<pdfrwt beam="2">  1       -2 0.10147510E-01 0.78510242E+03</pdfrwt>
<totfact> 0.44904131E+02</totfact>
</mgrwt>
</event>
<event>
 4    1  0.2058931E-005  0.5244176E+03  0.7818608E-02  0.1007595E+00
         -2   -1    0    0    0  501 -0.00000000000E+00  0.00000000000E+00  0.12714538283E+03  0.12714538285E+03  0.25500000000E-02 0. -1.
          2   -1    0    0  501    0  0.00000000000E+00 -0.00000000000E+00 -0.54074679543E+03  0.54074679543E+03  0.25500000000E-02 0.  1.
    5000001    1    1    2    0    0 -0.13210701980E+03  0.77637781111E+02 -0.90007939666E+02  0.26162056291E+03  0.19200000000E+03 0.  0.
   -5000001    1    1    2    0    0  0.13210701980E+03 -0.77637781111E+02 -0.32359347293E+03  0.40627161538E+03  0.19200000000E+03 0.  0.
<mgrwt>
<rscale>  0 0.52441761E+03</rscale>
<asrwt>0</asrwt>
<pdfrwt beam="1">  1        2 0.77249541E-01 0.52441761E+03</pdfrwt>
<pdfrwt beam="2">  1       -2 0.18163626E-01 0.52441761E+03</pdfrwt>
<totfact> 0.15449693E+03</totfact>
</mgrwt>
</event>
<event>
 4    1  0.2058931E-005  0.4139212E+03  0.7818608E-02  0.1039063E+00
          2   -1    0    0  501    0  0.00000000000E+00  0.00000000000E+00  0.22045570910E+03  0.22045570912E+03  0.25500000000E-02 0. -1.
         -2   -1    0    0    0  501 -0.00000000000E+00 -0.00000000000E+00 -0.19429156827E+03  0.19429156828E+03  0.25500000000E-02 0.  1.
    5000001    1    1    2    0    0  0.54537834636E+02 -0.32473715541E+02 -0.31048625394E+02  0.20458967410E+03  0.19200000000E+03 0.  0.
   -5000001    1    1    2    0    0 -0.54537834636E+02  0.32473715541E+02  0.57212766229E+02  0.21015760331E+03  0.19200000000E+03 0.  0.
<mgrwt>
<rscale>  0 0.41392118E+03</rscale>
<asrwt>0</asrwt>
<pdfrwt beam="1">  1        2 0.31493673E-01 0.41392118E+03</pdfrwt>
<pdfrwt beam="2">  1       -2 0.27755938E-01 0.41392118E+03</pdfrwt>
<totfact> 0.19735355E+03</totfact>
</mgrwt>
</event>
<event>
 4    1  0.2058931E-005  0.4604070E+03  0.7818608E-02  0.1024663E+00
         -2   -1    0    0    0  501 -0.00000000000E+00  0.00000000000E+00  0.24052311558E+02  0.24052311693E+02  0.25500000000E-02 0. -1.
          2   -1    0    0  501    0  0.00000000000E+00 -0.00000000000E+00 -0.22032667121E+04  0.22032667121E+04  0.25500000000E-02 0.  1.
    5000001    1    1    2    0    0  0.83895305599E+01  0.74559174576E+02 -0.59388390583E+03  0.62864262371E+03  0.19200000000E+03 0.  0.
   -5000001    1    1    2    0    0 -0.83895305599E+01 -0.74559174576E+02 -0.15853304947E+04  0.15986764001E+04  0.19200000000E+03 0.  0.
<mgrwt>
<rscale>  0 0.46040703E+03</rscale>
<asrwt>0</asrwt>
<pdfrwt beam="1">  1        2 0.31475226E+00 0.46040703E+03</pdfrwt>
<pdfrwt beam="2">  1       -2 0.34360459E-02 0.46040703E+03</pdfrwt>
<totfact> 0.24055614E+03</totfact>
</mgrwt>
</event>
<event>
 4    1  0.2058931E-005  0.9889261E+03  0.7818608E-02  0.9320775E-01
          2   -1    0    0  501    0  0.00000000000E+00  0.00000000000E+00  0.65492800846E+03  0.65492800847E+03  0.25500000000E-02 0.  1.
         -2   -1    0    0    0  501 -0.00000000000E+00 -0.00000000000E+00 -0.37331386006E+03  0.37331386007E+03  0.25500000000E-02 0. -1.
    5000001    1    1    2    0    0 -0.35027556381E+03  0.29084522316E+03  0.16014174151E+03  0.51941629914E+03  0.19200000000E+03 0.  0.
   -5000001    1    1    2    0    0  0.35027556381E+03 -0.29084522316E+03  0.12147240689E+03  0.50882556940E+03  0.19200000000E+03 0.  0.
<mgrwt>
<rscale>  0 0.98892609E+03</rscale>
<asrwt>0</asrwt>
<pdfrwt beam="1">  1        2 0.93561143E-01 0.98892609E+03</pdfrwt>
<pdfrwt beam="2">  1       -2 0.53330552E-01 0.98892609E+03</pdfrwt>
<totfact> 0.16170587E+02</totfact>
</mgrwt>
</event>
<event>
 4    1  0.2058931E-005  0.7424555E+03  0.7818608E-02  0.9647261E-01
         -2   -1    0    0    0  501 -0.00000000000E+00  0.00000000000E+00  0.59186251332E+02  0.59186251387E+02  0.25500000000E-02 0. -1.
          2   -1    0    0  501    0  0.00000000000E+00 -0.00000000000E+00 -0.23284133962E+04  0.23284133962E+04  0.25500000000E-02 0.  1.
    5000001    1    1    2    0    0 -0.10356327461E+03  0.28865852913E+03 -0.86754672912E+03  0.93997363021E+03  0.19200000000E+03 0.  0.
   -5000001    1    1    2    0    0  0.10356327461E+03 -0.28865852913E+03 -0.14016804157E+04  0.14476260173E+04  0.19200000000E+03 0.  0.
<mgrwt>
<rscale>  0 0.74245555E+03</rscale>
<asrwt>0</asrwt>
<pdfrwt beam="1">  1        2 0.33263043E+00 0.74245555E+03</pdfrwt>
<pdfrwt beam="2">  1       -2 0.84551802E-02 0.74245555E+03</pdfrwt>
<totfact> 0.50227861E+02</totfact>
</mgrwt>
</event>
<event>
 4    1  0.2058931E-005  0.5158721E+03  0.7818608E-02  0.1009717E+00
          2   -1    0    0  501    0  0.00000000000E+00  0.00000000000E+00  0.58737793774E+03  0.58737793774E+03  0.25500000000E-02 0.  1.
         -2   -1    0    0    0  501 -0.00000000000E+00 -0.00000000000E+00 -0.11326781745E+03  0.11326781748E+03  0.25500000000E-02 0. -1.
    5000001    1    1    2    0    0  0.63524649033E+02  0.15953380802E+03  0.25530726848E+03  0.36267370772E+03  0.19200000000E+03 0.  0.
   -5000001    1    1    2    0    0 -0.63524649033E+02 -0.15953380802E+03  0.21880285181E+03  0.33797204750E+03  0.19200000000E+03 0.  0.
<mgrwt>
<rscale>  0 0.51587214E+03</rscale>
<asrwt>0</asrwt>
<pdfrwt beam="1">  1        2 0.83911135E-01 0.51587214E+03</pdfrwt>
<pdfrwt beam="2">  1       -2 0.16181117E-01 0.51587214E+03</pdfrwt>
<totfact> 0.17095083E+03</totfact>
</mgrwt>
</event>
<event>
 4    1  0.2058931E-005  0.1342026E+04  0.7818608E-02  0.8996886E-01
         -2   -1    0    0    0  501 -0.00000000000E+00  0.00000000000E+00  0.30909428576E+03  0.30909428577E+03  0.25500000000E-02 0. -1.
          2   -1    0    0  501    0  0.00000000000E+00 -0.00000000000E+00 -0.14567023356E+04  0.14567023356E+04  0.25500000000E-02 0.  1.
    5000001    1    1    2    0    0 -0.39291837694E+03 -0.24657233257E+03 -0.11595972237E+04  0.12636108924E+04  0.19200000000E+03 0.  0.
   -5000001    1    1    2    0    0  0.39291837694E+03  0.24657233257E+03  0.11989173849E+02  0.50218572901E+03  0.19200000000E+03 0.  0.
<mgrwt>
<rscale>  0 0.13420259E+04</rscale>
<asrwt>0</asrwt>
<pdfrwt beam="1">  1        2 0.20810033E+00 0.13420259E+04</pdfrwt>
<pdfrwt beam="2">  1       -2 0.44156327E-01 0.13420259E+04</pdfrwt>
<totfact> 0.73317196E+01</totfact>
</mgrwt>
</event>
<event>
 4    1  0.2058931E-005  0.4375279E+03  0.7818608E-02  0.1031508E+00
         -2   -1    0    0    0  501 -0.00000000000E+00  0.00000000000E+00  0.32471897435E+03  0.32471897436E+03  0.25500000000E-02 0. -1.
          2   -1    0    0  501    0  0.00000000000E+00 -0.00000000000E+00 -0.14738180408E+03  0.14738180411E+03  0.25500000000E-02 0.  1.
    5000001    1    1    2    0    0  0.82952324543E+02  0.37885808969E+02  0.32837886794E+02  0.21507847284E+03  0.19200000000E+03 0.  0.
   -5000001    1    1    2    0    0 -0.82952324543E+02 -0.37885808969E+02  0.14449928347E+03  0.25702230563E+03  0.19200000000E+03 0.  0.
<mgrwt>
<rscale>  0 0.43752791E+03</rscale>
<asrwt>0</asrwt>
<pdfrwt beam="1">  1        2 0.21054544E-01 0.43752791E+03</pdfrwt>
<pdfrwt beam="2">  1       -2 0.46388425E-01 0.43752791E+03</pdfrwt>
<totfact> 0.11771724E+03</totfact>
</mgrwt>
</event>
<event>
 4    1  0.2058931E-005  0.6852377E+03  0.7818608E-02  0.9742816E-01
          2   -1    0    0  501    0  0.00000000000E+00  0.00000000000E+00  0.18760767248E+04  0.18760767248E+04  0.25500000000E-02 0.  1.
         -2   -1    0    0    0  501 -0.00000000000E+00 -0.00000000000E+00 -0.62570828116E+02  0.62570828168E+02  0.25500000000E-02 0. -1.
    5000001    1    1    2    0    0 -0.12440595751E+03  0.16649461586E+03  0.14533477834E+04  0.14806353633E+04  0.19200000000E+03 0.  0.
   -5000001    1    1    2    0    0  0.12440595751E+03 -0.16649461586E+03  0.36015811328E+03  0.45801218972E+03  0.19200000000E+03 0.  0.
<mgrwt>
<rscale>  0 0.68523769E+03</rscale>
<asrwt>0</asrwt>
<pdfrwt beam="1">  1        2 0.26801095E+00 0.68523769E+03</pdfrwt>
<pdfrwt beam="2">  1       -2 0.89386900E-02 0.68523769E+03</pdfrwt>
<totfact> 0.78108500E+02</totfact>
</mgrwt>
</event>
<event>
 4    1  0.2058931E-005  0.8256738E+03  0.7818608E-02  0.9523581E-01
         -2   -1    0    0    0  501 -0.00000000000E+00  0.00000000000E+00  0.13119393653E+04  0.13119393653E+04  0.25500000000E-02 0. -1.
          2   -1    0    0  501    0  0.00000000000E+00 -0.00000000000E+00 -0.12991020108E+03  0.12991020111E+03  0.25500000000E-02 0.  1.
    5000001    1    1    2    0    0  0.70767538522E+02  0.35855509912E+03  0.59225327898E+03  0.72194026767E+03  0.19200000000E+03 0.  0.
   -5000001    1    1    2    0    0 -0.70767538522E+02 -0.35855509912E+03  0.58977588524E+03  0.71990929875E+03  0.19200000000E+03 0.  0.
<mgrwt>
<rscale>  0 0.82567380E+03</rscale>
<asrwt>0</asrwt>
<pdfrwt beam="1">  1        2 0.18558599E-01 0.82567380E+03</pdfrwt>
<pdfrwt beam="2">  1       -2 0.18741992E+00 0.82567380E+03</pdfrwt>
<totfact> 0.50639211E+01</totfact>
</mgrwt>
</event>
<event>
 4    1  0.2058931E-005  0.6902764E+03  0.7818608E-02  0.9734007E-01
          2   -1    0    0  501    0  0.00000000000E+00  0.00000000000E+00  0.25993566973E+03  0.25993566974E+03  0.25500000000E-02 0.  1.
         -2   -1    0    0    0  501 -0.00000000000E+00 -0.00000000000E+00 -0.45826861809E+03  0.45826861810E+03  0.25500000000E-02 0. -1.
    5000001    1    1    2    0    0 -0.94669465058E+02  0.12943764293E+03 -0.34656818916E+03  0.42742241490E+03  0.19200000000E+03 0.  0.
   -5000001    1    1    2    0    0  0.94669465058E+02 -0.12943764293E+03  0.14823524080E+03  0.29078187295E+03  0.19200000000E+03 0.  0.
<mgrwt>
<rscale>  0 0.69027635E+03</rscale>
<asrwt>0</asrwt>
<pdfrwt beam="1">  1        2 0.37133667E-01 0.69027635E+03</pdfrwt>
<pdfrwt beam="2">  1       -2 0.65466945E-01 0.69027635E+03</pdfrwt>
<totfact> 0.30366152E+02</totfact>
</mgrwt>
</event>
<event>
 4    1  0.2058931E-005  0.6713716E+03  0.7818608E-02  0.9767483E-01
         -2   -1    0    0    0  501 -0.00000000000E+00  0.00000000000E+00  0.19211155946E+03  0.19211155947E+03  0.25500000000E-02 0.  1.
          2   -1    0    0  501    0  0.00000000000E+00 -0.00000000000E+00 -0.58655992133E+03  0.58655992133E+03  0.25500000000E-02 0. -1.
    5000001    1    1    2    0    0  0.19462944743E+03  0.18726268722E+03 -0.13505723228E+03  0.35784408870E+03  0.19200000000E+03 0.  0.
   -5000001    1    1    2    0    0 -0.19462944743E+03 -0.18726268722E+03 -0.25939112959E+03  0.42082739210E+03  0.19200000000E+03 0.  0.
<mgrwt>
<rscale>  0 0.67137155E+03</rscale>
<asrwt>0</asrwt>
<pdfrwt beam="1">  1        2 0.83794274E-01 0.67137155E+03</pdfrwt>
<pdfrwt beam="2">  1       -2 0.27444509E-01 0.67137155E+03</pdfrwt>
<totfact> 0.67648959E+02</totfact>
</mgrwt>
</event>
<event>
 4    1  0.2058931E-005  0.1022153E+04  0.7818608E-02  0.9284576E-01
         -2   -1    0    0    0  501 -0.00000000000E+00  0.00000000000E+00  0.18851594840E+03  0.18851594842E+03  0.25500000000E-02 0. -1.
          2   -1    0    0  501    0  0.00000000000E+00 -0.00000000000E+00 -0.13855543290E+04  0.13855543290E+04  0.25500000000E-02 0.  1.
    5000001    1    1    2    0    0 -0.26683958498E+03  0.14980092801E+03 -0.11552327633E+04  0.12104009334E+04  0.19200000000E+03 0.  0.
   -5000001    1    1    2    0    0  0.26683958498E+03 -0.14980092801E+03 -0.41805617298E+02  0.36366934403E+03  0.19200000000E+03 0.  0.
<mgrwt>
<rscale>  0 0.10221528E+04</rscale>
<asrwt>0</asrwt>
<pdfrwt beam="1">  1        2 0.19793633E+00 0.10221528E+04</pdfrwt>
<pdfrwt beam="2">  1       -2 0.26930851E-01 0.10221528E+04</pdfrwt>
<totfact> 0.20986272E+02</totfact>
</mgrwt>
</event>
