<event>
 4    1  0.2559694E-005  0.8680065E+03  0.7818608E-02  0.9466483E-01
         -1   -1    0    0    0  501 -0.00000000000E+00  0.00000000000E+00  0.25140799538E+03  0.25140799543E+03  0.50400000000E-02 0.  1.
          1   -1    0    0  501    0  0.00000000000E+00 -0.00000000000E+00 -0.74921566327E+03  0.74921566329E+03  0.50400000000E-02 0. -1.
    5000001    1    1    2    0    0 -0.38777047244E+03 -0.79587647402E+02 -0.32566290998E+03  0.53849927006E+03  0.16500000000E+03 0.  0.
   -5000001    1    1    2    0    0  0.38777047244E+03  0.79587647402E+02 -0.17214475791E+03  0.46212438866E+03  0.16500000000E+03 0.  0.
<mgrwt>
<rscale>  0 0.86800647E+03</rscale>
<asrwt>0</asrwt>
<pdfrwt beam="1">  1        1 0.10703081E+00 0.86800647E+03</pdfrwt>
<pdfrwt beam="2">  1       -1 0.35915428E-01 0.86800647E+03</pdfrwt>
<totfact> 0.20513352E+02</totfact>
</mgrwt>
</event>
<event>
 4    1  0.2559694E-005  0.4845919E+03  0.7818608E-02  0.1017881E+00
         -1   -1    0    0    0  501 -0.00000000000E+00  0.00000000000E+00  0.71664938975E+02  0.71664939152E+02  0.50400000000E-02 0.  1.
          1   -1    0    0  501    0  0.00000000000E+00 -0.00000000000E+00 -0.81919188244E+03  0.81919188245E+03  0.50400000000E-02 0. -1.
    5000001    1    1    2    0    0 -0.17639579559E+03  0.17416359089E+02 -0.38841629933E+03  0.45772374621E+03  0.16500000000E+03 0.  0.
   -5000001    1    1    2    0    0  0.17639579559E+03 -0.17416359089E+02 -0.35911064413E+03  0.43313307539E+03  0.16500000000E+03 0.  0.
<mgrwt>
<rscale>  0 0.48459194E+03</rscale>
<asrwt>0</asrwt>
<pdfrwt beam="1">  1        1 0.11702741E+00 0.48459194E+03</pdfrwt>
<pdfrwt beam="2">  1       -1 0.10237849E-01 0.48459194E+03</pdfrwt>
<totfact> 0.14641407E+03</totfact>
</mgrwt>
</event>
<event>
 4    1  0.2559694E-005  0.5491764E+03  0.7818608E-02  0.1001685E+00
          1   -1    0    0  501    0  0.00000000000E+00  0.00000000000E+00  0.15077734340E+03  0.15077734348E+03  0.50400000000E-02 0.  1.
         -1   -1    0    0    0  501 -0.00000000000E+00 -0.00000000000E+00 -0.50006634197E+03  0.50006634199E+03  0.50400000000E-02 0. -1.
    5000001    1    1    2    0    0  0.21130405546E+03  0.47811992499E+02 -0.13294076014E+03  0.30304065105E+03  0.16500000000E+03 0.  0.
   -5000001    1    1    2    0    0 -0.21130405546E+03 -0.47811992499E+02 -0.21634823843E+03  0.34780303443E+03  0.16500000000E+03 0.  0.
<mgrwt>
<rscale>  0 0.54917638E+03</rscale>
<asrwt>0</asrwt>
<pdfrwt beam="1">  1        1 0.21539621E-01 0.54917638E+03</pdfrwt>
<pdfrwt beam="2">  1       -1 0.71438048E-01 0.54917638E+03</pdfrwt>
<totfact> 0.47594284E+02</totfact>
</mgrwt>
</event>
<event>
 4    1  0.2559694E-005  0.4072681E+03  0.7818608E-02  0.1041292E+00
          1   -1    0    0  501    0  0.00000000000E+00  0.00000000000E+00  0.44865092820E+03  0.44865092823E+03  0.50400000000E-02 0.  1.
         -1   -1    0    0    0  501 -0.00000000000E+00 -0.00000000000E+00 -0.92425607501E+02  0.92425607638E+02  0.50400000000E-02 0. -1.
    5000001    1    1    2    0    0  0.83271752624E+02  0.75787011386E+02  0.12557222245E+03  0.23594753428E+03  0.16500000000E+03 0.  0.
   -5000001    1    1    2    0    0 -0.83271752624E+02 -0.75787011386E+02  0.23065309824E+03  0.30512900159E+03  0.16500000000E+03 0.  0.
<mgrwt>
<rscale>  0 0.40726814E+03</rscale>
<asrwt>0</asrwt>
<pdfrwt beam="1">  1        1 0.64092990E-01 0.40726814E+03</pdfrwt>
<pdfrwt beam="2">  1       -1 0.13203658E-01 0.40726814E+03</pdfrwt>
<totfact> 0.22757183E+03</totfact>
</mgrwt>
</event>
<event>
 4    1  0.2559694E-005  0.5990113E+03  0.7818608E-02  0.9907459E-01
          1   -1    0    0  501    0  0.00000000000E+00  0.00000000000E+00  0.51561885154E+03  0.51561885157E+03  0.50400000000E-02 0.  1.
         -1   -1    0    0    0  501 -0.00000000000E+00 -0.00000000000E+00 -0.17397274655E+03  0.17397274662E+03  0.50400000000E-02 0. -1.
    5000001    1    1    2    0    0 -0.20017522879E+03 -0.12060303057E+03  0.68737907566E+02  0.29421949823E+03  0.16500000000E+03 0.  0.
   -5000001    1    1    2    0    0  0.20017522879E+03  0.12060303057E+03  0.27290819743E+03  0.39537209996E+03  0.16500000000E+03 0.  0.
<mgrwt>
<rscale>  0 0.59901128E+03</rscale>
<asrwt>0</asrwt>
<pdfrwt beam="1">  1        1 0.73659836E-01 0.59901128E+03</pdfrwt>
<pdfrwt beam="2">  1       -1 0.24853249E-01 0.59901128E+03</pdfrwt>
<totfact> 0.67044730E+02</totfact>
</mgrwt>
</event>
<event>
 4    1  0.2559694E-005  0.4413861E+03  0.7818608E-02  0.1030322E+00
          1   -1    0    0  501    0  0.00000000000E+00  0.00000000000E+00  0.81878223612E+02  0.81878223767E+02  0.50400000000E-02 0.  1.
         -1   -1    0    0    0  501 -0.00000000000E+00 -0.00000000000E+00 -0.59485200146E+03  0.59485200148E+03  0.50400000000E-02 0. -1.
    5000001    1    1    2    0    0 -0.97887316957E+02  0.10173340487E+03 -0.31682564717E+03  0.38410298514E+03  0.16500000000E+03 0.  0.
   -5000001    1    1    2    0    0  0.97887316957E+02 -0.10173340487E+03 -0.19614813068E+03  0.29262724011E+03  0.16500000000E+03 0.  0.
<mgrwt>
<rscale>  0 0.44138611E+03</rscale>
<asrwt>0</asrwt>
<pdfrwt beam="1">  1        1 0.11696889E-01 0.44138611E+03</pdfrwt>
<pdfrwt beam="2">  1       -1 0.84978855E-01 0.44138611E+03</pdfrwt>
<totfact> 0.74794855E+02</totfact>
</mgrwt>
</event>
<event>
 4    1  0.2559694E-005  0.4031852E+03  0.7818608E-02  0.1042682E+00
          1   -1    0    0  501    0  0.00000000000E+00  0.00000000000E+00  0.41225334773E+04  0.41225334773E+04  0.50400000000E-02 0.  1.
         -1   -1    0    0    0  501 -0.00000000000E+00 -0.00000000000E+00 -0.98579112195E+01  0.98579125079E+01  0.50400000000E-02 0. -1.
    5000001    1    1    2    0    0  0.70357943031E+02 -0.84726010262E+02  0.24238649664E+04  0.24319693897E+04  0.16500000000E+03 0.  0.
   -5000001    1    1    2    0    0 -0.70357943031E+02  0.84726010262E+02  0.16888105997E+04  0.17004220001E+04  0.16500000000E+03 0.  0.
<mgrwt>
<rscale>  0 0.40318518E+03</rscale>
<asrwt>0</asrwt>
<pdfrwt beam="1">  1        1 0.58893360E+00 0.40318518E+03</pdfrwt>
<pdfrwt beam="2">  1       -1 0.14082725E-02 0.40318518E+03</pdfrwt>
<totfact> 0.19333589E+02</totfact>
</mgrwt>
</event>
<event>
 4    1  0.2559694E-005  0.4133319E+03  0.7818608E-02  0.1039259E+00
          1   -1    0    0  501    0  0.00000000000E+00  0.00000000000E+00  0.93558167589E+03  0.93558167590E+03  0.50400000000E-02 0.  1.
         -1   -1    0    0    0  501 -0.00000000000E+00 -0.00000000000E+00 -0.45651616627E+02  0.45651616905E+02  0.50400000000E-02 0. -1.
    5000001    1    1    2    0    0  0.11145080625E+03 -0.55354866067E+02  0.44641435694E+03  0.49193111458E+03  0.16500000000E+03 0.  0.
   -5000001    1    1    2    0    0 -0.11145080625E+03  0.55354866067E+02  0.44351570232E+03  0.48930217823E+03  0.16500000000E+03 0.  0.
<mgrwt>
<rscale>  0 0.41333191E+03</rscale>
<asrwt>0</asrwt>
<pdfrwt beam="1">  1        1 0.13365450E+00 0.41333191E+03</pdfrwt>
<pdfrwt beam="2">  1       -1 0.65216609E-02 0.41333191E+03</pdfrwt>
<totfact> 0.23884418E+03</totfact>
</mgrwt>
</event>
<event>
 4    1  0.2559694E-005  0.4524724E+03  0.7818608E-02  0.1026987E+00
         -1   -1    0    0    0  501 -0.00000000000E+00  0.00000000000E+00  0.14906322031E+03  0.14906322040E+03  0.50400000000E-02 0. -1.
          1   -1    0    0  501    0  0.00000000000E+00 -0.00000000000E+00 -0.34336314483E+03  0.34336314487E+03  0.50400000000E-02 0.  1.
    5000001    1    1    2    0    0  0.84967166331E+01  0.13707614959E+03 -0.19462073535E+02  0.21555935908E+03  0.16500000000E+03 0.  0.
   -5000001    1    1    2    0    0 -0.84967166331E+01 -0.13707614959E+03 -0.17483785098E+03  0.27686700619E+03  0.16500000000E+03 0.  0.
<mgrwt>
<rscale>  0 0.45247239E+03</rscale>
<asrwt>0</asrwt>
<pdfrwt beam="1">  1        1 0.49051878E-01 0.45247239E+03</pdfrwt>
<pdfrwt beam="2">  1       -1 0.21294746E-01 0.45247239E+03</pdfrwt>
<totfact> 0.14827768E+03</totfact>
</mgrwt>
</event>
<event>
 4    1  0.2559694E-005  0.1654843E+04  0.7818608E-02  0.8787547E-01
         -1   -1    0    0    0  501 -0.00000000000E+00  0.00000000000E+00  0.25833876548E+03  0.25833876553E+03  0.50400000000E-02 0. -1.
          1   -1    0    0  501    0  0.00000000000E+00 -0.00000000000E+00 -0.26501109785E+04  0.26501109785E+04  0.50400000000E-02 0.  1.
    5000001    1    1    2    0    0 -0.34210446931E+03  0.69772705763E+03 -0.78920347340E+03  0.11197882109E+04  0.16500000000E+03 0.  0.
   -5000001    1    1    2    0    0  0.34210446931E+03 -0.69772705763E+03 -0.16025687396E+04  0.17886615331E+04  0.16500000000E+03 0.  0.
<mgrwt>
<rscale>  0 0.16548431E+04</rscale>
<asrwt>0</asrwt>
<pdfrwt beam="1">  1        1 0.37858727E+00 0.16548431E+04</pdfrwt>
<pdfrwt beam="2">  1       -1 0.36905540E-01 0.16548431E+04</pdfrwt>
<totfact> 0.97483420E+00</totfact>
</mgrwt>
</event>
<event>
 4    1  0.2559694E-005  0.7926720E+03  0.7818608E-02  0.9570685E-01
         -1   -1    0    0    0  501 -0.00000000000E+00  0.00000000000E+00  0.73483887160E+02  0.73483887333E+02  0.50400000000E-02 0.  1.
          1   -1    0    0  501    0  0.00000000000E+00 -0.00000000000E+00 -0.21376415797E+04  0.21376415797E+04  0.50400000000E-02 0. -1.
    5000001    1    1    2    0    0  0.17814876327E+03  0.31266135785E+03 -0.10852329458E+04  0.11551838180E+04  0.16500000000E+03 0.  0.
   -5000001    1    1    2    0    0 -0.17814876327E+03 -0.31266135785E+03 -0.97892474669E+03  0.10559416491E+04  0.16500000000E+03 0.  0.
<mgrwt>
<rscale>  0 0.79267197E+03</rscale>
<asrwt>0</asrwt>
<pdfrwt beam="1">  1        1 0.30537733E+00 0.79267197E+03</pdfrwt>
<pdfrwt beam="2">  1       -1 0.10497700E-01 0.79267197E+03</pdfrwt>
<totfact> 0.18275397E+02</totfact>
</mgrwt>
</event>
<event>
 4    1  0.2559694E-005  0.4737136E+03  0.7818608E-02  0.1020877E+00
          1   -1    0    0  501    0  0.00000000000E+00  0.00000000000E+00  0.47183747960E+03  0.47183747963E+03  0.50400000000E-02 0. -1.
         -1   -1    0    0    0  501 -0.00000000000E+00 -0.00000000000E+00 -0.11889931045E+03  0.11889931055E+03  0.50400000000E-02 0.  1.
    5000001    1    1    2    0    0 -0.11453076579E+03 -0.10960469593E+03  0.25278983339E+03  0.34096654608E+03  0.16500000000E+03 0.  0.
   -5000001    1    1    2    0    0  0.11453076579E+03  0.10960469593E+03  0.10014833576E+03  0.24977024410E+03  0.16500000000E+03 0.  0.
<mgrwt>
<rscale>  0 0.47371363E+03</rscale>
<asrwt>0</asrwt>
<pdfrwt beam="1">  1        1 0.67405355E-01 0.47371363E+03</pdfrwt>
<pdfrwt beam="2">  1       -1 0.16985616E-01 0.47371363E+03</pdfrwt>
<totfact> 0.14219760E+03</totfact>
</mgrwt>
</event>
<event>
 4    1  0.2559694E-005  0.4138513E+03  0.7818608E-02  0.1039086E+00
         -1   -1    0    0    0  501 -0.00000000000E+00  0.00000000000E+00  0.13299211727E+03  0.13299211737E+03  0.50400000000E-02 0.  1.
          1   -1    0    0  501    0  0.00000000000E+00 -0.00000000000E+00 -0.32196063419E+03  0.32196063423E+03  0.50400000000E-02 0. -1.
    5000001    1    1    2    0    0 -0.10010210152E+03  0.53842071673E+02 -0.37639736517E+02  0.20386551738E+03  0.16500000000E+03 0.  0.
   -5000001    1    1    2    0    0  0.10010210152E+03 -0.53842071673E+02 -0.15132878040E+03  0.25108723422E+03  0.16500000000E+03 0.  0.
<mgrwt>
<rscale>  0 0.41385131E+03</rscale>
<asrwt>0</asrwt>
<pdfrwt beam="1">  1        1 0.45994376E-01 0.41385131E+03</pdfrwt>
<pdfrwt beam="2">  1       -1 0.18998874E-01 0.41385131E+03</pdfrwt>
<totfact> 0.19415875E+03</totfact>
</mgrwt>
</event>
<event>
 4    1  0.2559694E-005  0.4347033E+03  0.7818608E-02  0.1032384E+00
         -1   -1    0    0    0  501 -0.00000000000E+00  0.00000000000E+00  0.63798739910E+02  0.63798740109E+02  0.50400000000E-02 0. -1.
          1   -1    0    0  501    0  0.00000000000E+00 -0.00000000000E+00 -0.74048073517E+03  0.74048073519E+03  0.50400000000E-02 0.  1.
    5000001    1    1    2    0    0  0.12196427642E+03 -0.70338574795E+02 -0.31257507988E+03  0.38046153602E+03  0.16500000000E+03 0.  0.
   -5000001    1    1    2    0    0 -0.12196427642E+03  0.70338574795E+02 -0.36410691538E+03  0.42381793928E+03  0.16500000000E+03 0.  0.
<mgrwt>
<rscale>  0 0.43470329E+03</rscale>
<asrwt>0</asrwt>
<pdfrwt beam="1">  1        1 0.10578296E+00 0.43470329E+03</pdfrwt>
<pdfrwt beam="2">  1       -1 0.91141062E-02 0.43470329E+03</pdfrwt>
<totfact> 0.20450620E+03</totfact>
</mgrwt>
</event>
<event>
 4    1  0.2559694E-005  0.5335431E+03  0.7818608E-02  0.1005376E+00
         -1   -1    0    0    0  501 -0.00000000000E+00  0.00000000000E+00  0.17645089352E+03  0.17645089359E+03  0.50400000000E-02 0. -1.
          1   -1    0    0  501    0  0.00000000000E+00 -0.00000000000E+00 -0.40332503995E+03  0.40332503998E+03  0.50400000000E-02 0.  1.
    5000001    1    1    2    0    0  0.69772274654E+02 -0.17493655773E+03 -0.13423160203E+02  0.25075117302E+03  0.16500000000E+03 0.  0.
   -5000001    1    1    2    0    0 -0.69772274654E+02  0.17493655773E+03 -0.21345098622E+03  0.32902476055E+03  0.16500000000E+03 0.  0.
<mgrwt>
<rscale>  0 0.53354311E+03</rscale>
<asrwt>0</asrwt>
<pdfrwt beam="1">  1        1 0.57617863E-01 0.53354311E+03</pdfrwt>
<pdfrwt beam="2">  1       -1 0.25207271E-01 0.53354311E+03</pdfrwt>
<totfact> 0.90763516E+02</totfact>
</mgrwt>
</event>
<event>
 4    1  0.2559694E-005  0.3969680E+03  0.7818608E-02  0.1044835E+00
         -1   -1    0    0    0  501 -0.00000000000E+00  0.00000000000E+00  0.75167273132E+02  0.75167273301E+02  0.50400000000E-02 0. -1.
          1   -1    0    0  501    0  0.00000000000E+00 -0.00000000000E+00 -0.52410970919E+03  0.52410970921E+03  0.50400000000E-02 0.  1.
    5000001    1    1    2    0    0  0.23265920268E+02  0.10755544631E+03 -0.23630243114E+03  0.30850172778E+03  0.16500000000E+03 0.  0.
   -5000001    1    1    2    0    0 -0.23265920268E+02 -0.10755544631E+03 -0.21264000492E+03  0.29077525474E+03  0.16500000000E+03 0.  0.
<mgrwt>
<rscale>  0 0.39696800E+03</rscale>
<asrwt>0</asrwt>
<pdfrwt beam="1">  1        1 0.74872814E-01 0.39696800E+03</pdfrwt>
<pdfrwt beam="2">  1       -1 0.10738182E-01 0.39696800E+03</pdfrwt>
<totfact> 0.25664947E+03</totfact>
</mgrwt>
</event>
<event>
 4    1  0.2559694E-005  0.5051380E+03  0.7818608E-02  0.1012446E+00
          1   -1    0    0  501    0  0.00000000000E+00  0.00000000000E+00  0.13913316443E+04  0.13913316444E+04  0.50400000000E-02 0.  1.
         -1   -1    0    0    0  501 -0.00000000000E+00 -0.00000000000E+00 -0.45848949132E+02  0.45848949409E+02  0.50400000000E-02 0. -1.
    5000001    1    1    2    0    0 -0.12152968687E+03 -0.14597580771E+03  0.60991027394E+03  0.65976809826E+03  0.16500000000E+03 0.  0.
   -5000001    1    1    2    0    0  0.12152968687E+03  0.14597580771E+03  0.73557242127E+03  0.77741249550E+03  0.16500000000E+03 0.  0.
<mgrwt>
<rscale>  0 0.50513798E+03</rscale>
<asrwt>0</asrwt>
<pdfrwt beam="1">  1        1 0.19876169E+00 0.50513798E+03</pdfrwt>
<pdfrwt beam="2">  1       -1 0.65498490E-02 0.50513798E+03</pdfrwt>
<totfact> 0.11461683E+03</totfact>
</mgrwt>
</event>
<event>
 4    1  0.2559694E-005  0.5016495E+03  0.7818608E-02  0.1013349E+00
         -1   -1    0    0    0  501 -0.00000000000E+00  0.00000000000E+00  0.23368715539E+03  0.23368715544E+03  0.50400000000E-02 0. -1.
          1   -1    0    0  501    0  0.00000000000E+00 -0.00000000000E+00 -0.26921912115E+03  0.26921912120E+03  0.50400000000E-02 0.  1.
    5000001    1    1    2    0    0  0.17729477992E+02  0.79386044246E+02 -0.18869702790E+03  0.26352997315E+03  0.16500000000E+03 0.  0.
   -5000001    1    1    2    0    0 -0.17729477992E+02 -0.79386044246E+02  0.15316506214E+03  0.23937630349E+03  0.16500000000E+03 0.  0.
<mgrwt>
<rscale>  0 0.50164948E+03</rscale>
<asrwt>0</asrwt>
<pdfrwt beam="1">  1        1 0.38459874E-01 0.50164948E+03</pdfrwt>
<pdfrwt beam="2">  1       -1 0.33383880E-01 0.50164948E+03</pdfrwt>
<totfact> 0.94166408E+02</totfact>
</mgrwt>
</event>
<event>
 4    1  0.2559694E-005  0.4305045E+03  0.7818608E-02  0.1033701E+00
          1   -1    0    0  501    0  0.00000000000E+00  0.00000000000E+00  0.71577073715E+02  0.71577073892E+02  0.50400000000E-02 0.  1.
         -1   -1    0    0    0  501 -0.00000000000E+00 -0.00000000000E+00 -0.64732357628E+03  0.64732357630E+03  0.50400000000E-02 0. -1.
    5000001    1    1    2    0    0 -0.43644331777E+02  0.13109562772E+03 -0.29488606843E+03  0.36506668522E+03  0.16500000000E+03 0.  0.
   -5000001    1    1    2    0    0  0.43644331777E+02 -0.13109562772E+03 -0.28086043414E+03  0.35383396497E+03  0.16500000000E+03 0.  0.
<mgrwt>
<rscale>  0 0.43050448E+03</rscale>
<asrwt>0</asrwt>
<pdfrwt beam="1">  1        1 0.10225297E-01 0.43050448E+03</pdfrwt>
<pdfrwt beam="2">  1       -1 0.92474794E-01 0.43050448E+03</pdfrwt>
<totfact> 0.74761461E+02</totfact>
</mgrwt>
</event>
<event>
 4    1  0.2559694E-005  0.4255724E+03  0.7818608E-02  0.1035268E+00
         -1   -1    0    0    0  501 -0.00000000000E+00  0.00000000000E+00  0.78073915496E+02  0.78073915658E+02  0.50400000000E-02 0. -1.
          1   -1    0    0  501    0  0.00000000000E+00 -0.00000000000E+00 -0.57993719625E+03  0.57993719628E+03  0.50400000000E-02 0.  1.
    5000001    1    1    2    0    0  0.93665024143E+02 -0.57005911778E+02 -0.13086452450E+03  0.23743069409E+03  0.16500000000E+03 0.  0.
   -5000001    1    1    2    0    0 -0.93665024143E+02  0.57005911778E+02 -0.37099875626E+03  0.42058041784E+03  0.16500000000E+03 0.  0.
<mgrwt>
<rscale>  0 0.42557240E+03</rscale>
<asrwt>0</asrwt>
<pdfrwt beam="1">  1        1 0.82848169E-01 0.42557240E+03</pdfrwt>
<pdfrwt beam="2">  1       -1 0.11153417E-01 0.42557240E+03</pdfrwt>
<totfact> 0.21093127E+03</totfact>
</mgrwt>
</event>
<event>
 4    1  0.2559694E-005  0.4400842E+03  0.7818608E-02  0.1030721E+00
          1   -1    0    0  501    0  0.00000000000E+00  0.00000000000E+00  0.19126671251E+04  0.19126671251E+04  0.50400000000E-02 0. -1.
         -1   -1    0    0    0  501 -0.00000000000E+00 -0.00000000000E+00 -0.25314665861E+02  0.25314666362E+02  0.50400000000E-02 0.  1.
    5000001    1    1    2    0    0 -0.55344852523E+02 -0.61897178325E+02  0.41708937234E+03  0.45616099999E+03  0.16500000000E+03 0.  0.
   -5000001    1    1    2    0    0  0.55344852523E+02  0.61897178325E+02  0.14702630869E+04  0.14818207915E+04  0.16500000000E+03 0.  0.
<mgrwt>
<rscale>  0 0.44008422E+03</rscale>
<asrwt>0</asrwt>
<pdfrwt beam="1">  1        1 0.27323827E+00 0.44008422E+03</pdfrwt>
<pdfrwt beam="2">  1       -1 0.36163794E-02 0.44008422E+03</pdfrwt>
<totfact> 0.13358709E+03</totfact>
</mgrwt>
</event>
<event>
 4    1  0.2559694E-005  0.4209892E+03  0.7818608E-02  0.1036745E+00
          1   -1    0    0  501    0  0.00000000000E+00  0.00000000000E+00  0.58145569459E+02  0.58145569677E+02  0.50400000000E-02 0. -1.
         -1   -1    0    0    0  501 -0.00000000000E+00 -0.00000000000E+00 -0.76201792705E+03  0.76201792706E+03  0.50400000000E-02 0.  1.
    5000001    1    1    2    0    0 -0.72729533652E+02 -0.10251993501E+03 -0.42171929368E+03  0.46997030204E+03  0.16500000000E+03 0.  0.
   -5000001    1    1    2    0    0  0.72729533652E+02  0.10251993501E+03 -0.28215306391E+03  0.35019319470E+03  0.16500000000E+03 0.  0.
<mgrwt>
<rscale>  0 0.42098915E+03</rscale>
<asrwt>0</asrwt>
<pdfrwt beam="1">  1        1 0.83065104E-02 0.42098915E+03</pdfrwt>
<pdfrwt beam="2">  1       -1 0.10885970E+00 0.42098915E+03</pdfrwt>
<totfact> 0.68770271E+02</totfact>
</mgrwt>
</event>
<event>
 4    1  0.2559694E-005  0.4465467E+03  0.7818608E-02  0.1028757E+00
          1   -1    0    0  501    0  0.00000000000E+00  0.00000000000E+00  0.15007324757E+04  0.15007324757E+04  0.50400000000E-02 0.  1.
         -1   -1    0    0    0  501 -0.00000000000E+00 -0.00000000000E+00 -0.33217771355E+02  0.33217771737E+02  0.50400000000E-02 0. -1.
    5000001    1    1    2    0    0 -0.12586829612E+03 -0.62097482217E+02  0.91960644534E+03  0.94477507354E+03  0.16500000000E+03 0.  0.
   -5000001    1    1    2    0    0  0.12586829612E+03  0.62097482217E+02  0.54790825903E+03  0.58917517393E+03  0.16500000000E+03 0.  0.
<mgrwt>
<rscale>  0 0.44654670E+03</rscale>
<asrwt>0</asrwt>
<pdfrwt beam="1">  1        1 0.21439038E+00 0.44654670E+03</pdfrwt>
<pdfrwt beam="2">  1       -1 0.47453954E-02 0.44654670E+03</pdfrwt>
<totfact> 0.15983075E+03</totfact>
</mgrwt>
</event>
<event>
 4    1  0.2559694E-005  0.9172998E+03  0.7818608E-02  0.9404211E-01
         -1   -1    0    0    0  501 -0.00000000000E+00  0.00000000000E+00  0.20058054054E+03  0.20058054061E+03  0.50400000000E-02 0.  1.
          1   -1    0    0  501    0  0.00000000000E+00 -0.00000000000E+00 -0.10487544403E+04  0.10487544403E+04  0.50400000000E-02 0. -1.
    5000001    1    1    2    0    0  0.65694261121E+02  0.39638326099E+03 -0.22345941723E+03  0.48846139733E+03  0.16500000000E+03 0.  0.
   -5000001    1    1    2    0    0 -0.65694261121E+02 -0.39638326099E+03 -0.62471448256E+03  0.76087358362E+03  0.16500000000E+03 0.  0.
<mgrwt>
<rscale>  0 0.91729980E+03</rscale>
<asrwt>0</asrwt>
<pdfrwt beam="1">  1        1 0.14982206E+00 0.91729980E+03</pdfrwt>
<pdfrwt beam="2">  1       -1 0.28654364E-01 0.91729980E+03</pdfrwt>
<totfact> 0.17622242E+02</totfact>
</mgrwt>
</event>
<event>
 4    1  0.2559694E-005  0.6558407E+03  0.7818608E-02  0.9795881E-01
          1   -1    0    0  501    0  0.00000000000E+00  0.00000000000E+00  0.26045275030E+03  0.26045275035E+03  0.50400000000E-02 0.  1.
         -1   -1    0    0    0  501 -0.00000000000E+00 -0.00000000000E+00 -0.41286477141E+03  0.41286477144E+03  0.50400000000E-02 0. -1.
    5000001    1    1    2    0    0  0.11451973932E+03 -0.21627682586E+03  0.70487317737E+02  0.30345328810E+03  0.16500000000E+03 0.  0.
   -5000001    1    1    2    0    0 -0.11451973932E+03  0.21627682586E+03 -0.22289933885E+03  0.36986423368E+03  0.16500000000E+03 0.  0.
<mgrwt>
<rscale>  0 0.65584073E+03</rscale>
<asrwt>0</asrwt>
<pdfrwt beam="1">  1        1 0.37207536E-01 0.65584073E+03</pdfrwt>
<pdfrwt beam="2">  1       -1 0.58980681E-01 0.65584073E+03</pdfrwt>
<totfact> 0.34251842E+02</totfact>
</mgrwt>
</event>
<event>
 4    1  0.2559694E-005  0.3995233E+03  0.7818608E-02  0.1043945E+00
         -1   -1    0    0    0  501 -0.00000000000E+00  0.00000000000E+00  0.12010598556E+03  0.12010598567E+03  0.50400000000E-02 0.  1.
          1   -1    0    0  501    0  0.00000000000E+00 -0.00000000000E+00 -0.33224590349E+03  0.33224590353E+03  0.50400000000E-02 0. -1.
    5000001    1    1    2    0    0 -0.10031776870E+03 -0.47586177832E+02 -0.12730106944E+03  0.23613271971E+03  0.16500000000E+03 0.  0.
   -5000001    1    1    2    0    0  0.10031776870E+03  0.47586177832E+02 -0.84838848496E+02  0.21621916948E+03  0.16500000000E+03 0.  0.
<mgrwt>
<rscale>  0 0.39952332E+03</rscale>
<asrwt>0</asrwt>
<pdfrwt beam="1">  1        1 0.47463700E-01 0.39952332E+03</pdfrwt>
<pdfrwt beam="2">  1       -1 0.17157998E-01 0.39952332E+03</pdfrwt>
<totfact> 0.22010072E+03</totfact>
</mgrwt>
</event>
<event>
 4    1  0.2559694E-005  0.4820401E+03  0.7818608E-02  0.1018576E+00
         -1   -1    0    0    0  501 -0.00000000000E+00  0.00000000000E+00  0.44632739896E+02  0.44632740180E+02  0.50400000000E-02 0. -1.
          1   -1    0    0  501    0  0.00000000000E+00 -0.00000000000E+00 -0.13015258352E+04  0.13015258352E+04  0.50400000000E-02 0.  1.
    5000001    1    1    2    0    0 -0.14230409681E+03  0.14555648476E+02 -0.91328556599E+03  0.93903026997E+03  0.16500000000E+03 0.  0.
   -5000001    1    1    2    0    0  0.14230409681E+03 -0.14555648476E+02 -0.34360752928E+03  0.40712830539E+03  0.16500000000E+03 0.  0.
<mgrwt>
<rscale>  0 0.48204010E+03</rscale>
<asrwt>0</asrwt>
<pdfrwt beam="1">  1        1 0.18593224E+00 0.48204010E+03</pdfrwt>
<pdfrwt beam="2">  1       -1 0.63761065E-02 0.48204010E+03</pdfrwt>
<totfact> 0.13690071E+03</totfact>
</mgrwt>
</event>
<event>
 4    1  0.2559694E-005  0.5146058E+03  0.7818608E-02  0.1010035E+00
          1   -1    0    0  501    0  0.00000000000E+00  0.00000000000E+00  0.77292580505E+03  0.77292580507E+03  0.50400000000E-02 0.  1.
         -1   -1    0    0    0  501 -0.00000000000E+00 -0.00000000000E+00 -0.85654771823E+02  0.85654771971E+02  0.50400000000E-02 0. -1.
    5000001    1    1    2    0    0  0.17895617740E+03 -0.36866325197E+02  0.21883402337E+03  0.32938999552E+03  0.16500000000E+03 0.  0.
   -5000001    1    1    2    0    0 -0.17895617740E+03  0.36866325197E+02  0.46843700985E+03  0.52919058152E+03  0.16500000000E+03 0.  0.
<mgrwt>
<rscale>  0 0.51460580E+03</rscale>
<asrwt>0</asrwt>
<pdfrwt beam="1">  1        1 0.11041797E+00 0.51460580E+03</pdfrwt>
<pdfrwt beam="2">  1       -1 0.12236396E-01 0.51460580E+03</pdfrwt>
<totfact> 0.12062366E+03</totfact>
</mgrwt>
</event>
<event>
 4    1  0.2559694E-005  0.5842217E+03  0.7818608E-02  0.9938693E-01
          1   -1    0    0  501    0  0.00000000000E+00  0.00000000000E+00  0.10900729582E+04  0.10900729582E+04  0.50400000000E-02 0.  1.
         -1   -1    0    0    0  501 -0.00000000000E+00 -0.00000000000E+00 -0.78278023176E+02  0.78278023338E+02  0.50400000000E-02 0. -1.
    5000001    1    1    2    0    0  0.23566894087E+03 -0.49196041323E+02  0.48192803060E+03  0.56341789717E+03  0.16500000000E+03 0.  0.
   -5000001    1    1    2    0    0 -0.23566894087E+03  0.49196041323E+02  0.52986690441E+03  0.60493308437E+03  0.16500000000E+03 0.  0.
<mgrwt>
<rscale>  0 0.58422173E+03</rscale>
<asrwt>0</asrwt>
<pdfrwt beam="1">  1        1 0.15572472E+00 0.58422173E+03</pdfrwt>
<pdfrwt beam="2">  1       -1 0.11182574E-01 0.58422173E+03</pdfrwt>
<totfact> 0.79249707E+02</totfact>
</mgrwt>
</event>
<event>
 4    1  0.2559694E-005  0.4504725E+03  0.7818608E-02  0.1027581E+00
         -1   -1    0    0    0  501 -0.00000000000E+00  0.00000000000E+00  0.25049432723E+02  0.25049433230E+02  0.50400000000E-02 0. -1.
          1   -1    0    0  501    0  0.00000000000E+00 -0.00000000000E+00 -0.20252504480E+04  0.20252504480E+04  0.50400000000E-02 0.  1.
    5000001    1    1    2    0    0 -0.93100860882E+02  0.11828937178E+03 -0.86769892442E+03  0.89598357642E+03  0.16500000000E+03 0.  0.
   -5000001    1    1    2    0    0  0.93100860882E+02 -0.11828937178E+03 -0.11325020909E+04  0.11543163048E+04  0.16500000000E+03 0.  0.
<mgrwt>
<rscale>  0 0.45047253E+03</rscale>
<asrwt>0</asrwt>
<pdfrwt beam="1">  1        1 0.28932139E+00 0.45047253E+03</pdfrwt>
<pdfrwt beam="2">  1       -1 0.35784917E-02 0.45047253E+03</pdfrwt>
<totfact> 0.11572298E+03</totfact>
</mgrwt>
</event>
<event>
 4    1  0.2559694E-005  0.5633040E+03  0.7818608E-02  0.9984606E-01
         -1   -1    0    0    0  501 -0.00000000000E+00  0.00000000000E+00  0.34898588190E+02  0.34898588554E+02  0.50400000000E-02 0. -1.
          1   -1    0    0  501    0  0.00000000000E+00 -0.00000000000E+00 -0.22730963404E+04  0.22730963404E+04  0.50400000000E-02 0.  1.
    5000001    1    1    2    0    0 -0.95637881389E+02  0.20679233601E+03 -0.10621517400E+04  0.10987724940E+04  0.16500000000E+03 0.  0.
   -5000001    1    1    2    0    0  0.95637881389E+02 -0.20679233601E+03 -0.11760460122E+04  0.12092224350E+04  0.16500000000E+03 0.  0.
<mgrwt>
<rscale>  0 0.56330402E+03</rscale>
<asrwt>0</asrwt>
<pdfrwt beam="1">  1        1 0.32472796E+00 0.56330402E+03</pdfrwt>
<pdfrwt beam="2">  1       -1 0.49855140E-02 0.56330402E+03</pdfrwt>
<totfact> 0.48919068E+02</totfact>
</mgrwt>
</event>
<event>
 4    1  0.2559694E-005  0.5879839E+03  0.7818608E-02  0.9930654E-01
         -1   -1    0    0    0  501 -0.00000000000E+00  0.00000000000E+00  0.17127935953E+03  0.17127935961E+03  0.50400000000E-02 0. -1.
          1   -1    0    0  501    0  0.00000000000E+00 -0.00000000000E+00 -0.50462157153E+03  0.50462157156E+03  0.50400000000E-02 0.  1.
    5000001    1    1    2    0    0 -0.20943620659E+03 -0.97506574082E+02 -0.25448143661E+03  0.38125694511E+03  0.16500000000E+03 0.  0.
   -5000001    1    1    2    0    0  0.20943620659E+03  0.97506574082E+02 -0.78860775388E+02  0.29464398605E+03  0.16500000000E+03 0.  0.
<mgrwt>
<rscale>  0 0.58798388E+03</rscale>
<asrwt>0</asrwt>
<pdfrwt beam="1">  1        1 0.72088795E-01 0.58798388E+03</pdfrwt>
<pdfrwt beam="2">  1       -1 0.24468480E-01 0.58798388E+03</pdfrwt>
<totfact> 0.70892260E+02</totfact>
</mgrwt>
</event>
<event>
 4    1  0.2559694E-005  0.5983581E+03  0.7818608E-02  0.9908818E-01
         -1   -1    0    0    0  501 -0.00000000000E+00  0.00000000000E+00  0.79945816877E+02  0.79945817036E+02  0.50400000000E-02 0. -1.
          1   -1    0    0  501    0  0.00000000000E+00 -0.00000000000E+00 -0.11196095669E+04  0.11196095669E+04  0.50400000000E-02 0.  1.
    5000001    1    1    2    0    0 -0.24347522133E+03 -0.17772802223E+02 -0.41591246921E+03  0.50970995472E+03  0.16500000000E+03 0.  0.
   -5000001    1    1    2    0    0  0.24347522133E+03  0.17772802223E+02 -0.62375128083E+03  0.68984542924E+03  0.16500000000E+03 0.  0.
<mgrwt>
<rscale>  0 0.59835809E+03</rscale>
<asrwt>0</asrwt>
<pdfrwt beam="1">  1        1 0.15994421E+00 0.59835809E+03</pdfrwt>
<pdfrwt beam="2">  1       -1 0.11420832E-01 0.59835809E+03</pdfrwt>
<totfact> 0.73002986E+02</totfact>
</mgrwt>
</event>
<event>
 4    1  0.2559694E-005  0.1229716E+04  0.7818608E-02  0.9087237E-01
          1   -1    0    0  501    0  0.00000000000E+00  0.00000000000E+00  0.16179833354E+03  0.16179833362E+03  0.50400000000E-02 0.  1.
         -1   -1    0    0    0  501 -0.00000000000E+00 -0.00000000000E+00 -0.23365514868E+04  0.23365514869E+04  0.50400000000E-02 0. -1.
    5000001    1    1    2    0    0  0.55693619955E+03 -0.18036700478E+03 -0.12703935971E+04  0.14084868045E+04  0.16500000000E+03 0.  0.
   -5000001    1    1    2    0    0 -0.55693619955E+03  0.18036700478E+03 -0.90435955620E+03  0.10898630160E+04  0.16500000000E+03 0.  0.
<mgrwt>
<rscale>  0 0.12297156E+04</rscale>
<asrwt>0</asrwt>
<pdfrwt beam="1">  1        1 0.23114049E-01 0.12297156E+04</pdfrwt>
<pdfrwt beam="2">  1       -1 0.33379305E+00 0.12297156E+04</pdfrwt>
<totfact> 0.42956978E+00</totfact>
</mgrwt>
</event>
<event>
 4    1  0.2559694E-005  0.9988948E+03  0.7818608E-02  0.9309758E-01
          1   -1    0    0  501    0  0.00000000000E+00  0.00000000000E+00  0.13021151886E+04  0.13021151886E+04  0.50400000000E-02 0.  1.
         -1   -1    0    0    0  501 -0.00000000000E+00 -0.00000000000E+00 -0.19157115798E+03  0.19157115805E+03  0.50400000000E-02 0. -1.
    5000001    1    1    2    0    0 -0.47578768371E+02 -0.18065183211E+03  0.12024686285E+04  0.12280287562E+04  0.16500000000E+03 0.  0.
   -5000001    1    1    2    0    0  0.47578768371E+02  0.18065183211E+03 -0.91924597880E+02  0.26565759041E+03  0.16500000000E+03 0.  0.
<mgrwt>
<rscale>  0 0.99889482E+03</rscale>
<asrwt>0</asrwt>
<pdfrwt beam="1">  1        1 0.18601646E+00 0.99889482E+03</pdfrwt>
<pdfrwt beam="2">  1       -1 0.27367307E-01 0.99889482E+03</pdfrwt>
<totfact> 0.12618447E+02</totfact>
</mgrwt>
</event>
<event>
 4    1  0.2559694E-005  0.4343832E+03  0.7818608E-02  0.1032484E+00
          1   -1    0    0  501    0  0.00000000000E+00  0.00000000000E+00  0.18817675549E+03  0.18817675556E+03  0.50400000000E-02 0. -1.
         -1   -1    0    0    0  501 -0.00000000000E+00 -0.00000000000E+00 -0.25068021451E+03  0.25068021456E+03  0.50400000000E-02 0.  1.
    5000001    1    1    2    0    0  0.10136813658E+03  0.80321231161E+01 -0.13027741247E+03  0.23353204986E+03  0.16500000000E+03 0.  0.
   -5000001    1    1    2    0    0 -0.10136813658E+03 -0.80321231161E+01  0.67773953445E+02  0.20532492026E+03  0.16500000000E+03 0.  0.
<mgrwt>
<rscale>  0 0.43438319E+03</rscale>
<asrwt>0</asrwt>
<pdfrwt beam="1">  1        1 0.26882394E-01 0.43438319E+03</pdfrwt>
<pdfrwt beam="2">  1       -1 0.35811459E-01 0.43438319E+03</pdfrwt>
<totfact> 0.13168344E+03</totfact>
</mgrwt>
</event>
<event>
 4    1  0.2559694E-005  0.7666800E+03  0.7818608E-02  0.9609539E-01
          1   -1    0    0  501    0  0.00000000000E+00  0.00000000000E+00  0.18280584081E+04  0.18280584081E+04  0.50400000000E-02 0.  1.
         -1   -1    0    0    0  501 -0.00000000000E+00 -0.00000000000E+00 -0.80385594302E+02  0.80385594460E+02  0.50400000000E-02 0. -1.
    5000001    1    1    2    0    0 -0.90310387202E+01 -0.34308169268E+03  0.76425495953E+03  0.85387191702E+03  0.16500000000E+03 0.  0.
   -5000001    1    1    2    0    0  0.90310387202E+01  0.34308169268E+03  0.98341785423E+03  0.10545720855E+04  0.16500000000E+03 0.  0.
<mgrwt>
<rscale>  0 0.76668002E+03</rscale>
<asrwt>0</asrwt>
<pdfrwt beam="1">  1        1 0.26115120E+00 0.76668002E+03</pdfrwt>
<pdfrwt beam="2">  1       -1 0.11483656E-01 0.76668002E+03</pdfrwt>
<totfact> 0.24734188E+02</totfact>
</mgrwt>
</event>
<event>
 4    1  0.2559694E-005  0.3979313E+03  0.7818608E-02  0.1044498E+00
          1   -1    0    0  501    0  0.00000000000E+00  0.00000000000E+00  0.19951604575E+04  0.19951604575E+04  0.50400000000E-02 0.  1.
         -1   -1    0    0    0  501 -0.00000000000E+00 -0.00000000000E+00 -0.19841681445E+02  0.19841682086E+02  0.50400000000E-02 0. -1.
    5000001    1    1    2    0    0  0.32655403687E+02 -0.93210035736E+02  0.72907107510E+03  0.75400538374E+03  0.16500000000E+03 0.  0.
   -5000001    1    1    2    0    0 -0.32655403687E+02  0.93210035736E+02  0.12462477010E+04  0.12609967559E+04  0.16500000000E+03 0.  0.
<mgrwt>
<rscale>  0 0.39793135E+03</rscale>
<asrwt>0</asrwt>
<pdfrwt beam="1">  1        1 0.28502286E+00 0.39793135E+03</pdfrwt>
<pdfrwt beam="2">  1       -1 0.28345266E-02 0.39793135E+03</pdfrwt>
<totfact> 0.17157798E+03</totfact>
</mgrwt>
</event>
<event>
 4    1  0.2559694E-005  0.3775173E+03  0.7818608E-02  0.1051855E+00
          1   -1    0    0  501    0  0.00000000000E+00  0.00000000000E+00  0.96611312930E+03  0.96611312931E+03  0.50400000000E-02 0.  1.
         -1   -1    0    0    0  501 -0.00000000000E+00 -0.00000000000E+00 -0.36879568086E+02  0.36879568431E+02  0.50400000000E-02 0. -1.
    5000001    1    1    2    0    0 -0.85599743483E+02  0.31823997544E+02  0.44323774286E+03  0.48168950539E+03  0.16500000000E+03 0.  0.
   -5000001    1    1    2    0    0  0.85599743483E+02 -0.31823997544E+02  0.48599581835E+03  0.52130319235E+03  0.16500000000E+03 0.  0.
<mgrwt>
<rscale>  0 0.37751734E+03</rscale>
<asrwt>0</asrwt>
<pdfrwt beam="1">  1        1 0.13801614E+00 0.37751734E+03</pdfrwt>
<pdfrwt beam="2">  1       -1 0.52685104E-02 0.37751734E+03</pdfrwt>
<totfact> 0.31349148E+03</totfact>
</mgrwt>
</event>
<event>
 4    1  0.2559694E-005  0.3692025E+03  0.7818608E-02  0.1054998E+00
          1   -1    0    0  501    0  0.00000000000E+00  0.00000000000E+00  0.43542559166E+03  0.43542559169E+03  0.50400000000E-02 0. -1.
         -1   -1    0    0    0  501 -0.00000000000E+00 -0.00000000000E+00 -0.78262803259E+02  0.78262803421E+02  0.50400000000E-02 0.  1.
    5000001    1    1    2    0    0 -0.60915358225E+02 -0.55788143883E+02  0.17100787098E+03  0.25157839693E+03  0.16500000000E+03 0.  0.
   -5000001    1    1    2    0    0  0.60915358225E+02  0.55788143883E+02  0.18615491742E+03  0.26210999818E+03  0.16500000000E+03 0.  0.
<mgrwt>
<rscale>  0 0.36920253E+03</rscale>
<asrwt>0</asrwt>
<pdfrwt beam="1">  1        1 0.62203653E-01 0.36920253E+03</pdfrwt>
<pdfrwt beam="2">  1       -1 0.11180401E-01 0.36920253E+03</pdfrwt>
<totfact> 0.30723925E+03</totfact>
</mgrwt>
</event>
<event>
 4    1  0.2559694E-005  0.6269904E+03  0.7818608E-02  0.9850940E-01
          1   -1    0    0  501    0  0.00000000000E+00  0.00000000000E+00  0.11569627131E+04  0.11569627131E+04  0.50400000000E-02 0. -1.
         -1   -1    0    0    0  501 -0.00000000000E+00 -0.00000000000E+00 -0.84945895610E+02  0.84945895760E+02  0.50400000000E-02 0.  1.
    5000001    1    1    2    0    0 -0.15512468976E+03  0.21247940138E+03  0.45097305808E+03  0.54755170029E+03  0.16500000000E+03 0.  0.
   -5000001    1    1    2    0    0  0.15512468976E+03 -0.21247940138E+03  0.62104375944E+03  0.69435690860E+03  0.16500000000E+03 0.  0.
<mgrwt>
<rscale>  0 0.62699038E+03</rscale>
<asrwt>0</asrwt>
<pdfrwt beam="1">  1        1 0.16528038E+00 0.62699038E+03</pdfrwt>
<pdfrwt beam="2">  1       -1 0.12135128E-01 0.62699038E+03</pdfrwt>
<totfact> 0.62334130E+02</totfact>
</mgrwt>
</event>
<event>
 4    1  0.2559694E-005  0.4901149E+03  0.7818608E-02  0.1016392E+00
          1   -1    0    0  501    0  0.00000000000E+00  0.00000000000E+00  0.79900088864E+03  0.79900088865E+03  0.50400000000E-02 0. -1.
         -1   -1    0    0    0  501 -0.00000000000E+00 -0.00000000000E+00 -0.75160323415E+02  0.75160323584E+02  0.50400000000E-02 0.  1.
    5000001    1    1    2    0    0  0.82713679585E+02 -0.11609621193E+03  0.16244347090E+03  0.27190580070E+03  0.16500000000E+03 0.  0.
   -5000001    1    1    2    0    0 -0.82713679585E+02  0.11609621193E+03  0.56139709432E+03  0.60225541154E+03  0.16500000000E+03 0.  0.
<mgrwt>
<rscale>  0 0.49011495E+03</rscale>
<asrwt>0</asrwt>
<pdfrwt beam="1">  1        1 0.11414299E+00 0.49011495E+03</pdfrwt>
<pdfrwt beam="2">  1       -1 0.10737189E-01 0.49011495E+03</pdfrwt>
<totfact> 0.14112612E+03</totfact>
</mgrwt>
</event>
<event>
 4    1  0.2559694E-005  0.4706337E+03  0.7818608E-02  0.1021742E+00
          1   -1    0    0  501    0  0.00000000000E+00  0.00000000000E+00  0.16605976109E+03  0.16605976117E+03  0.50400000000E-02 0.  1.
         -1   -1    0    0    0  501 -0.00000000000E+00 -0.00000000000E+00 -0.33345834977E+03  0.33345834981E+03  0.50400000000E-02 0. -1.
    5000001    1    1    2    0    0 -0.10959282745E+03  0.12172276665E+03 -0.45108562762E+02  0.23682652340E+03  0.16500000000E+03 0.  0.
   -5000001    1    1    2    0    0  0.10959282745E+03 -0.12172276665E+03 -0.12229002591E+03  0.26269158758E+03  0.16500000000E+03 0.  0.
<mgrwt>
<rscale>  0 0.47063367E+03</rscale>
<asrwt>0</asrwt>
<pdfrwt beam="1">  1        1 0.23722823E-01 0.47063367E+03</pdfrwt>
<pdfrwt beam="2">  1       -1 0.47636907E-01 0.47063367E+03</pdfrwt>
<totfact> 0.92374922E+02</totfact>
</mgrwt>
</event>
<event>
 4    1  0.2559694E-005  0.7649842E+03  0.7818608E-02  0.9612131E-01
         -1   -1    0    0    0  501 -0.00000000000E+00  0.00000000000E+00  0.27561478651E+03  0.27561478656E+03  0.50400000000E-02 0. -1.
          1   -1    0    0  501    0  0.00000000000E+00 -0.00000000000E+00 -0.53081400688E+03  0.53081400690E+03  0.50400000000E-02 0.  1.
    5000001    1    1    2    0    0 -0.28975855635E+03  0.16077698776E+03 -0.22907437587E+03  0.43532669394E+03  0.16500000000E+03 0.  0.
   -5000001    1    1    2    0    0  0.28975855635E+03 -0.16077698776E+03 -0.26124844493E+02  0.37110209953E+03  0.16500000000E+03 0.  0.
<mgrwt>
<rscale>  0 0.76498415E+03</rscale>
<asrwt>0</asrwt>
<pdfrwt beam="1">  1        1 0.75830572E-01 0.76498415E+03</pdfrwt>
<pdfrwt beam="2">  1       -1 0.39373541E-01 0.76498415E+03</pdfrwt>
<totfact> 0.28632520E+02</totfact>
</mgrwt>
</event>
<event>
 4    1  0.2559694E-005  0.8984500E+03  0.7818608E-02  0.9427521E-01
         -1   -1    0    0    0  501 -0.00000000000E+00  0.00000000000E+00  0.10598714981E+04  0.10598714981E+04  0.50400000000E-02 0.  1.
          1   -1    0    0  501    0  0.00000000000E+00 -0.00000000000E+00 -0.19040335330E+03  0.19040335337E+03  0.50400000000E-02 0. -1.
    5000001    1    1    2    0    0 -0.14800742662E+02 -0.40836434053E+03  0.55603092862E+03  0.70948988025E+03  0.16500000000E+03 0.  0.
   -5000001    1    1    2    0    0  0.14800742662E+02  0.40836434053E+03  0.31343721613E+03  0.54078497118E+03  0.16500000000E+03 0.  0.
<mgrwt>
<rscale>  0 0.89844997E+03</rscale>
<asrwt>0</asrwt>
<pdfrwt beam="1">  1        1 0.27200479E-01 0.89844997E+03</pdfrwt>
<pdfrwt beam="2">  1       -1 0.15141022E+00 0.89844997E+03</pdfrwt>
<totfact> 0.59987482E+01</totfact>
</mgrwt>
</event>
<event>
 4    1  0.2559694E-005  0.3507308E+03  0.7818608E-02  0.1062316E+00
         -1   -1    0    0    0  501 -0.00000000000E+00  0.00000000000E+00  0.40930672134E+03  0.40930672137E+03  0.50400000000E-02 0. -1.
          1   -1    0    0  501    0  0.00000000000E+00 -0.00000000000E+00 -0.75134402207E+02  0.75134402376E+02  0.50400000000E-02 0.  1.
    5000001    1    1    2    0    0  0.56182304801E+02  0.15776532674E+02  0.18238393926E+03  0.25277312289E+03  0.16500000000E+03 0.  0.
   -5000001    1    1    2    0    0 -0.56182304801E+02 -0.15776532674E+02  0.15178837987E+03  0.23166800085E+03  0.16500000000E+03 0.  0.
<mgrwt>
<rscale>  0 0.35073076E+03</rscale>
<asrwt>0</asrwt>
<pdfrwt beam="1">  1        1 0.10733486E-01 0.35073076E+03</pdfrwt>
<pdfrwt beam="2">  1       -1 0.58472388E-01 0.35073076E+03</pdfrwt>
<totfact> 0.17881088E+03</totfact>
</mgrwt>
</event>
<event>
 4    1  0.2559694E-005  0.5310177E+03  0.7818608E-02  0.1005986E+00
         -1   -1    0    0    0  501 -0.00000000000E+00  0.00000000000E+00  0.42540439887E+02  0.42540440186E+02  0.50400000000E-02 0. -1.
          1   -1    0    0  501    0  0.00000000000E+00 -0.00000000000E+00 -0.16571279818E+04  0.16571279818E+04  0.50400000000E-02 0.  1.
    5000001    1    1    2    0    0  0.93374368366E+01 -0.14972879534E+03 -0.12685171010E+04  0.12879699280E+04  0.16500000000E+03 0.  0.
   -5000001    1    1    2    0    0 -0.93374368366E+01  0.14972879534E+03 -0.34607044084E+03  0.41169849393E+03  0.16500000000E+03 0.  0.
<mgrwt>
<rscale>  0 0.53101772E+03</rscale>
<asrwt>0</asrwt>
<pdfrwt beam="1">  1        1 0.23673253E+00 0.53101772E+03</pdfrwt>
<pdfrwt beam="2">  1       -1 0.60772068E-02 0.53101772E+03</pdfrwt>
<totfact> 0.86997211E+02</totfact>
</mgrwt>
</event>
<event>
 4    1  0.2559694E-005  0.7482902E+03  0.7818608E-02  0.9638037E-01
         -1   -1    0    0    0  501 -0.00000000000E+00  0.00000000000E+00  0.90006282492E+02  0.90006282633E+02  0.50400000000E-02 0. -1.
          1   -1    0    0  501    0  0.00000000000E+00 -0.00000000000E+00 -0.15552752715E+04  0.15552752715E+04  0.50400000000E-02 0.  1.
    5000001    1    1    2    0    0  0.24017908027E+03  0.70333348355E+02 -0.24036256767E+03  0.38422901299E+03  0.16500000000E+03 0.  0.
   -5000001    1    1    2    0    0 -0.24017908027E+03 -0.70333348355E+02 -0.12249064213E+04  0.12610525411E+04  0.16500000000E+03 0.  0.
<mgrwt>
<rscale>  0 0.74829017E+03</rscale>
<asrwt>0</asrwt>
<pdfrwt beam="1">  1        1 0.22218216E+00 0.74829017E+03</pdfrwt>
<pdfrwt beam="2">  1       -1 0.12858041E-01 0.74829017E+03</pdfrwt>
<totfact> 0.30723116E+02</totfact>
</mgrwt>
</event>
<event>
 4    1  0.2559694E-005  0.4146187E+03  0.7818608E-02  0.1038832E+00
          1   -1    0    0  501    0  0.00000000000E+00  0.00000000000E+00  0.59648044706E+03  0.59648044708E+03  0.50400000000E-02 0.  1.
         -1   -1    0    0    0  501 -0.00000000000E+00 -0.00000000000E+00 -0.72051266631E+02  0.72051266807E+02  0.50400000000E-02 0. -1.
    5000001    1    1    2    0    0  0.11989587660E+03 -0.24963542646E+02  0.30648879232E+03  0.36899672018E+03  0.16500000000E+03 0.  0.
   -5000001    1    1    2    0    0 -0.11989587660E+03  0.24963542646E+02  0.21794038810E+03  0.29953499370E+03  0.16500000000E+03 0.  0.
<mgrwt>
<rscale>  0 0.41461873E+03</rscale>
<asrwt>0</asrwt>
<pdfrwt beam="1">  1        1 0.85211489E-01 0.41461873E+03</pdfrwt>
<pdfrwt beam="2">  1       -1 0.10293038E-01 0.41461873E+03</pdfrwt>
<totfact> 0.23012992E+03</totfact>
</mgrwt>
</event>
<event>
 4    1  0.2559694E-005  0.5158477E+03  0.7818608E-02  0.1009723E+00
          1   -1    0    0  501    0  0.00000000000E+00  0.00000000000E+00  0.14464829895E+03  0.14464829904E+03  0.50400000000E-02 0.  1.
         -1   -1    0    0    0  501 -0.00000000000E+00 -0.00000000000E+00 -0.45990660431E+03  0.45990660434E+03  0.50400000000E-02 0. -1.
    5000001    1    1    2    0    0  0.57882351128E+02 -0.18288683758E+03 -0.99010493670E+02  0.27170947681E+03  0.16500000000E+03 0.  0.
   -5000001    1    1    2    0    0 -0.57882351128E+02  0.18288683758E+03 -0.21624781169E+03  0.33284542657E+03  0.16500000000E+03 0.  0.
<mgrwt>
<rscale>  0 0.51584768E+03</rscale>
<asrwt>0</asrwt>
<pdfrwt beam="1">  1        1 0.20664043E-01 0.51584768E+03</pdfrwt>
<pdfrwt beam="2">  1       -1 0.65700943E-01 0.51584768E+03</pdfrwt>
<totfact> 0.59560091E+02</totfact>
</mgrwt>
</event>
<event>
 4    1  0.2559694E-005  0.5754155E+03  0.7818608E-02  0.9957766E-01
         -1   -1    0    0    0  501 -0.00000000000E+00  0.00000000000E+00  0.10650585531E+03  0.10650585543E+03  0.50400000000E-02 0. -1.
          1   -1    0    0  501    0  0.00000000000E+00 -0.00000000000E+00 -0.77719426924E+03  0.77719426925E+03  0.50400000000E-02 0.  1.
    5000001    1    1    2    0    0 -0.11863132817E+03 -0.10148995651E+03 -0.60651411898E+03  0.64765575718E+03  0.16500000000E+03 0.  0.
   -5000001    1    1    2    0    0  0.11863132817E+03  0.10148995651E+03 -0.64174294951E+02  0.23604436750E+03  0.16500000000E+03 0.  0.
<mgrwt>
<rscale>  0 0.57541547E+03</rscale>
<asrwt>0</asrwt>
<pdfrwt beam="1">  1        1 0.11102775E+00 0.57541547E+03</pdfrwt>
<pdfrwt beam="2">  1       -1 0.15215123E-01 0.57541547E+03</pdfrwt>
<totfact> 0.84220772E+02</totfact>
</mgrwt>
</event>
<event>
 4    1  0.2559694E-005  0.5560919E+03  0.7818608E-02  0.1000094E+00
         -1   -1    0    0    0  501 -0.00000000000E+00  0.00000000000E+00  0.15402625207E+03  0.15402625216E+03  0.50400000000E-02 0.  1.
          1   -1    0    0  501    0  0.00000000000E+00 -0.00000000000E+00 -0.50192442857E+03  0.50192442859E+03  0.50400000000E-02 0. -1.
    5000001    1    1    2    0    0 -0.10852567164E+03 -0.18349106480E+03 -0.93619018168E+02  0.28537048346E+03  0.16500000000E+03 0.  0.
   -5000001    1    1    2    0    0  0.10852567164E+03  0.18349106480E+03 -0.25427915833E+03  0.37058019729E+03  0.16500000000E+03 0.  0.
<mgrwt>
<rscale>  0 0.55609186E+03</rscale>
<asrwt>0</asrwt>
<pdfrwt beam="1">  1        1 0.71703489E-01 0.55609186E+03</pdfrwt>
<pdfrwt beam="2">  1       -1 0.22003751E-01 0.55609186E+03</pdfrwt>
<totfact> 0.85415161E+02</totfact>
</mgrwt>
</event>
<event>
 4    1  0.2559694E-005  0.4782606E+03  0.7818608E-02  0.1019614E+00
         -1   -1    0    0    0  501 -0.00000000000E+00  0.00000000000E+00  0.76293963412E+02  0.76293963578E+02  0.50400000000E-02 0.  1.
          1   -1    0    0  501    0  0.00000000000E+00 -0.00000000000E+00 -0.74951271660E+03  0.74951271662E+03  0.50400000000E-02 0. -1.
    5000001    1    1    2    0    0 -0.16981929148E+03 -0.33185118182E+02 -0.32919224790E+03  0.40685670685E+03  0.16500000000E+03 0.  0.
   -5000001    1    1    2    0    0  0.16981929148E+03  0.33185118182E+02 -0.34402650528E+03  0.41894997334E+03  0.16500000000E+03 0.  0.
<mgrwt>
<rscale>  0 0.47826058E+03</rscale>
<asrwt>0</asrwt>
<pdfrwt beam="1">  1        1 0.10707324E+00 0.47826058E+03</pdfrwt>
<pdfrwt beam="2">  1       -1 0.10899138E-01 0.47826058E+03</pdfrwt>
<totfact> 0.15177472E+03</totfact>
</mgrwt>
</event>
<event>
 4    1  0.2559694E-005  0.7590923E+03  0.7818608E-02  0.9621193E-01
          1   -1    0    0  501    0  0.00000000000E+00  0.00000000000E+00  0.14405393780E+03  0.14405393789E+03  0.50400000000E-02 0.  1.
         -1   -1    0    0    0  501 -0.00000000000E+00 -0.00000000000E+00 -0.10000092863E+04  0.10000092863E+04  0.50400000000E-02 0. -1.
    5000001    1    1    2    0    0  0.19594962586E+03 -0.48519614466E+02 -0.12267821769E+02  0.26100940273E+03  0.16500000000E+03 0.  0.
   -5000001    1    1    2    0    0 -0.19594962586E+03  0.48519614466E+02 -0.84368752674E+03  0.88305382148E+03  0.16500000000E+03 0.  0.
<mgrwt>
<rscale>  0 0.75909229E+03</rscale>
<asrwt>0</asrwt>
<pdfrwt beam="1">  1        1 0.20579134E-01 0.75909229E+03</pdfrwt>
<pdfrwt beam="2">  1       -1 0.14285847E+00 0.75909229E+03</pdfrwt>
<totfact> 0.10194381E+02</totfact>
</mgrwt>
</event>
<event>
 4    1  0.2559694E-005  0.3999992E+03  0.7818608E-02  0.1043780E+00
         -1   -1    0    0    0  501 -0.00000000000E+00  0.00000000000E+00  0.14964607644E+03  0.14964607652E+03  0.50400000000E-02 0. -1.
          1   -1    0    0  501    0  0.00000000000E+00 -0.00000000000E+00 -0.26729631054E+03  0.26729631059E+03  0.50400000000E-02 0.  1.
    5000001    1    1    2    0    0  0.41836516200E+02 -0.81448510978E+02  0.10243903397E+02  0.18898172289E+03  0.16500000000E+03 0.  0.
   -5000001    1    1    2    0    0 -0.41836516200E+02  0.81448510978E+02 -0.12789413750E+03  0.22796066423E+03  0.16500000000E+03 0.  0.
<mgrwt>
<rscale>  0 0.39999922E+03</rscale>
<asrwt>0</asrwt>
<pdfrwt beam="1">  1        1 0.38185187E-01 0.39999922E+03</pdfrwt>
<pdfrwt beam="2">  1       -1 0.21378011E-01 0.39999922E+03</pdfrwt>
<totfact> 0.20254551E+03</totfact>
</mgrwt>
</event>
<event>
 4    1  0.2559694E-005  0.3657241E+03  0.7818608E-02  0.1056340E+00
         -1   -1    0    0    0  501 -0.00000000000E+00  0.00000000000E+00  0.27934356724E+02  0.27934357178E+02  0.50400000000E-02 0. -1.
          1   -1    0    0  501    0  0.00000000000E+00 -0.00000000000E+00 -0.11970392264E+04  0.11970392264E+04  0.50400000000E-02 0.  1.
    5000001    1    1    2    0    0 -0.48521345318E+02 -0.53551070955E+02 -0.47908562481E+03  0.51183012226E+03  0.16500000000E+03 0.  0.
   -5000001    1    1    2    0    0  0.48521345318E+02  0.53551070955E+02 -0.69001924488E+03  0.71314346134E+03  0.16500000000E+03 0.  0.
<mgrwt>
<rscale>  0 0.36572405E+03</rscale>
<asrwt>0</asrwt>
<pdfrwt beam="1">  1        1 0.17100557E+00 0.36572405E+03</pdfrwt>
<pdfrwt beam="2">  1       -1 0.39906232E-02 0.36572405E+03</pdfrwt>
<totfact> 0.32771109E+03</totfact>
</mgrwt>
</event>
<event>
 4    1  0.2559694E-005  0.4511414E+03  0.7818608E-02  0.1027382E+00
          1   -1    0    0  501    0  0.00000000000E+00  0.00000000000E+00  0.55124251788E+02  0.55124252018E+02  0.50400000000E-02 0.  1.
         -1   -1    0    0    0  501 -0.00000000000E+00 -0.00000000000E+00 -0.92304441047E+03  0.92304441049E+03  0.50400000000E-02 0. -1.
    5000001    1    1    2    0    0  0.14656400343E+03  0.35136090413E+02 -0.50049196954E+03  0.54811747238E+03  0.16500000000E+03 0.  0.
   -5000001    1    1    2    0    0 -0.14656400343E+03 -0.35136090413E+02 -0.36742818914E+03  0.43005119013E+03  0.16500000000E+03 0.  0.
<mgrwt>
<rscale>  0 0.45114136E+03</rscale>
<asrwt>0</asrwt>
<pdfrwt beam="1">  1        1 0.78748937E-02 0.45114136E+03</pdfrwt>
<pdfrwt beam="2">  1       -1 0.13186348E+00 0.45114136E+03</pdfrwt>
<totfact> 0.46623229E+02</totfact>
</mgrwt>
</event>
<event>
 4    1  0.2559694E-005  0.5356936E+03  0.7818608E-02  0.1004861E+00
         -1   -1    0    0    0  501 -0.00000000000E+00  0.00000000000E+00  0.94381128452E+02  0.94381128587E+02  0.50400000000E-02 0. -1.
          1   -1    0    0  501    0  0.00000000000E+00 -0.00000000000E+00 -0.76012984653E+03  0.76012984655E+03  0.50400000000E-02 0.  1.
    5000001    1    1    2    0    0  0.11228649243E+03  0.17016092008E+03 -0.24617809853E+03  0.35971051041E+03  0.16500000000E+03 0.  0.
   -5000001    1    1    2    0    0 -0.11228649243E+03 -0.17016092008E+03 -0.41957061955E+03  0.49480046473E+03  0.16500000000E+03 0.  0.
<mgrwt>
<rscale>  0 0.53569362E+03</rscale>
<asrwt>0</asrwt>
<pdfrwt beam="1">  1        1 0.10858997E+00 0.53569362E+03</pdfrwt>
<pdfrwt beam="2">  1       -1 0.13483019E-01 0.53569362E+03</pdfrwt>
<totfact> 0.10590258E+03</totfact>
</mgrwt>
</event>
<event>
 4    1  0.2559694E-005  0.9115891E+03  0.7818608E-02  0.9411209E-01
          1   -1    0    0  501    0  0.00000000000E+00  0.00000000000E+00  0.24238955327E+04  0.24238955327E+04  0.50400000000E-02 0. -1.
         -1   -1    0    0    0  501 -0.00000000000E+00 -0.00000000000E+00 -0.85708594826E+02  0.85708594974E+02  0.50400000000E-02 0.  1.
    5000001    1    1    2    0    0  0.11497238546E+03  0.39160014214E+03  0.14943013353E+04  0.15577967780E+04  0.16500000000E+03 0.  0.
   -5000001    1    1    2    0    0 -0.11497238546E+03 -0.39160014214E+03  0.84388560256E+03  0.95180734971E+03  0.16500000000E+03 0.  0.
<mgrwt>
<rscale>  0 0.91158912E+03</rscale>
<asrwt>0</asrwt>
<pdfrwt beam="1">  1        1 0.34627073E+00 0.91158912E+03</pdfrwt>
<pdfrwt beam="2">  1       -1 0.12244087E-01 0.91158912E+03</pdfrwt>
<totfact> 0.93759644E+01</totfact>
</mgrwt>
</event>
<event>
 4    1  0.2559694E-005  0.4371560E+03  0.7818608E-02  0.1031623E+00
          1   -1    0    0  501    0  0.00000000000E+00  0.00000000000E+00  0.23778981856E+04  0.23778981856E+04  0.50400000000E-02 0.  1.
         -1   -1    0    0    0  501 -0.00000000000E+00 -0.00000000000E+00 -0.20091833225E+02  0.20091833858E+02  0.50400000000E-02 0. -1.
    5000001    1    1    2    0    0  0.11953003035E+01 -0.12198780552E+03  0.15919122907E+04  0.16050832361E+04  0.16500000000E+03 0.  0.
   -5000001    1    1    2    0    0 -0.11953003035E+01  0.12198780552E+03  0.76589406169E+03  0.79290678341E+03  0.16500000000E+03 0.  0.
<mgrwt>
<rscale>  0 0.43715597E+03</rscale>
<asrwt>0</asrwt>
<pdfrwt beam="1">  1        1 0.33969986E+00 0.43715597E+03</pdfrwt>
<pdfrwt beam="2">  1       -1 0.28702610E-02 0.43715597E+03</pdfrwt>
<totfact> 0.98008873E+02</totfact>
</mgrwt>
</event>
<event>
 4    1  0.2559694E-005  0.4679127E+03  0.7818608E-02  0.1022511E+00
          1   -1    0    0  501    0  0.00000000000E+00  0.00000000000E+00  0.26298831819E+03  0.26298831824E+03  0.50400000000E-02 0.  1.
         -1   -1    0    0    0  501 -0.00000000000E+00 -0.00000000000E+00 -0.20812929222E+03  0.20812929228E+03  0.50400000000E-02 0. -1.
    5000001    1    1    2    0    0 -0.12994485332E+03  0.92240892395E+02  0.73750334680E+02  0.24095260737E+03  0.16500000000E+03 0.  0.
   -5000001    1    1    2    0    0  0.12994485332E+03 -0.92240892395E+02 -0.18891308709E+02  0.23016500316E+03  0.16500000000E+03 0.  0.
<mgrwt>
<rscale>  0 0.46791270E+03</rscale>
<asrwt>0</asrwt>
<pdfrwt beam="1">  1        1 0.37569760E-01 0.46791270E+03</pdfrwt>
<pdfrwt beam="2">  1       -1 0.29732756E-01 0.46791270E+03</pdfrwt>
<totfact> 0.11867162E+03</totfact>
</mgrwt>
</event>
<event>
 4    1  0.2559694E-005  0.3886176E+03  0.7818608E-02  0.1047794E+00
         -1   -1    0    0    0  501 -0.00000000000E+00  0.00000000000E+00  0.21511981312E+02  0.21511981903E+02  0.50400000000E-02 0. -1.
          1   -1    0    0  501    0  0.00000000000E+00 -0.00000000000E+00 -0.17551106646E+04  0.17551106646E+04  0.50400000000E-02 0.  1.
    5000001    1    1    2    0    0 -0.48666651216E+02 -0.79401351493E+02 -0.10638522401E+04  0.10805922480E+04  0.16500000000E+03 0.  0.
   -5000001    1    1    2    0    0  0.48666651216E+02  0.79401351493E+02 -0.66974644316E+03  0.69603039853E+03  0.16500000000E+03 0.  0.
<mgrwt>
<rscale>  0 0.38861759E+03</rscale>
<asrwt>0</asrwt>
<pdfrwt beam="1">  1        1 0.25073000E+00 0.38861759E+03</pdfrwt>
<pdfrwt beam="2">  1       -1 0.30731414E-02 0.38861759E+03</pdfrwt>
<totfact> 0.21344513E+03</totfact>
</mgrwt>
</event>
<event>
 4    1  0.2559694E-005  0.4132907E+03  0.7818608E-02  0.1039272E+00
          1   -1    0    0  501    0  0.00000000000E+00  0.00000000000E+00  0.82947241783E+02  0.82947241936E+02  0.50400000000E-02 0.  1.
         -1   -1    0    0    0  501 -0.00000000000E+00 -0.00000000000E+00 -0.51481274637E+03  0.51481274640E+03  0.50400000000E-02 0. -1.
    5000001    1    1    2    0    0 -0.75903379742E+02 -0.91970080878E+02 -0.16464407237E+03  0.26182530321E+03  0.16500000000E+03 0.  0.
   -5000001    1    1    2    0    0  0.75903379742E+02  0.91970080878E+02 -0.26722143222E+03  0.33593468513E+03  0.16500000000E+03 0.  0.
<mgrwt>
<rscale>  0 0.41329068E+03</rscale>
<asrwt>0</asrwt>
<pdfrwt beam="1">  1        1 0.11849606E-01 0.41329068E+03</pdfrwt>
<pdfrwt beam="2">  1       -1 0.73544676E-01 0.41329068E+03</pdfrwt>
<totfact> 0.99416329E+02</totfact>
</mgrwt>
</event>
<event>
 4    1  0.2559694E-005  0.1047662E+04  0.7818608E-02  0.9257762E-01
          1   -1    0    0  501    0  0.00000000000E+00  0.00000000000E+00  0.12429038745E+04  0.12429038745E+04  0.50400000000E-02 0.  1.
         -1   -1    0    0    0  501 -0.00000000000E+00 -0.00000000000E+00 -0.22077228067E+03  0.22077228073E+03  0.50400000000E-02 0. -1.
    5000001    1    1    2    0    0 -0.22890835298E+03 -0.44073719127E+03  0.54308983691E+03  0.75420148288E+03  0.16500000000E+03 0.  0.
   -5000001    1    1    2    0    0  0.22890835298E+03  0.44073719127E+03  0.47904175690E+03  0.70947467234E+03  0.16500000000E+03 0.  0.
<mgrwt>
<rscale>  0 0.10476616E+04</rscale>
<asrwt>0</asrwt>
<pdfrwt beam="1">  1        1 0.17755769E+00 0.10476616E+04</pdfrwt>
<pdfrwt beam="2">  1       -1 0.31538898E-01 0.10476616E+04</pdfrwt>
<totfact> 0.10773095E+02</totfact>
</mgrwt>
</event>
<event>
 4    1  0.2559694E-005  0.9907202E+03  0.7818608E-02  0.9318782E-01
         -1   -1    0    0    0  501 -0.00000000000E+00  0.00000000000E+00  0.28533637816E+03  0.28533637821E+03  0.50400000000E-02 0. -1.
          1   -1    0    0  501    0  0.00000000000E+00 -0.00000000000E+00 -0.85997320970E+03  0.85997320971E+03  0.50400000000E-02 0.  1.
    5000001    1    1    2    0    0  0.23611356020E+03  0.24680829682E+03  0.80971013784E+02  0.38787272882E+03  0.16500000000E+03 0.  0.
   -5000001    1    1    2    0    0 -0.23611356020E+03 -0.24680829682E+03 -0.65560784532E+03  0.75743685910E+03  0.16500000000E+03 0.  0.
<mgrwt>
<rscale>  0 0.99072022E+03</rscale>
<asrwt>0</asrwt>
<pdfrwt beam="1">  1        1 0.12285331E+00 0.99072022E+03</pdfrwt>
<pdfrwt beam="2">  1       -1 0.40762340E-01 0.99072022E+03</pdfrwt>
<totfact> 0.13072728E+02</totfact>
</mgrwt>
</event>
<event>
 4    1  0.2559694E-005  0.3702983E+03  0.7818608E-02  0.1054579E+00
         -1   -1    0    0    0  501 -0.00000000000E+00  0.00000000000E+00  0.20374217543E+03  0.20374217549E+03  0.50400000000E-02 0. -1.
          1   -1    0    0  501    0  0.00000000000E+00 -0.00000000000E+00 -0.16825285245E+03  0.16825285253E+03  0.50400000000E-02 0.  1.
    5000001    1    1    2    0    0  0.70203810638E+02  0.44436549342E+02  0.30130807268E+02  0.18717918552E+03  0.16500000000E+03 0.  0.
   -5000001    1    1    2    0    0 -0.70203810638E+02 -0.44436549342E+02  0.53585157072E+01  0.18481584249E+03  0.16500000000E+03 0.  0.
<mgrwt>
<rscale>  0 0.37029827E+03</rscale>
<asrwt>0</asrwt>
<pdfrwt beam="1">  1        1 0.24036122E-01 0.37029827E+03</pdfrwt>
<pdfrwt beam="2">  1       -1 0.29106025E-01 0.37029827E+03</pdfrwt>
<totfact> 0.21762658E+03</totfact>
</mgrwt>
</event>
<event>
 4    1  0.2559694E-005  0.4591548E+03  0.7818608E-02  0.1025027E+00
          1   -1    0    0  501    0  0.00000000000E+00  0.00000000000E+00  0.15528699163E+04  0.15528699163E+04  0.50400000000E-02 0.  1.
         -1   -1    0    0    0  501 -0.00000000000E+00 -0.00000000000E+00 -0.33940890262E+02  0.33940890636E+02  0.50400000000E-02 0. -1.
    5000001    1    1    2    0    0  0.14622328190E+03  0.31518166009E+02  0.56685539349E+03  0.60903586108E+03  0.16500000000E+03 0.  0.
   -5000001    1    1    2    0    0 -0.14622328190E+03 -0.31518166009E+02  0.95207363253E+03  0.97777494584E+03  0.16500000000E+03 0.  0.
<mgrwt>
<rscale>  0 0.45915482E+03</rscale>
<asrwt>0</asrwt>
<pdfrwt beam="1">  1        1 0.22183855E+00 0.45915482E+03</pdfrwt>
<pdfrwt beam="2">  1       -1 0.48486989E-02 0.45915482E+03</pdfrwt>
<totfact> 0.14330876E+03</totfact>
</mgrwt>
</event>
<event>
 4    1  0.2559694E-005  0.3483554E+03  0.7818608E-02  0.1063292E+00
         -1   -1    0    0    0  501 -0.00000000000E+00  0.00000000000E+00  0.61856058153E+02  0.61856058359E+02  0.50400000000E-02 0. -1.
          1   -1    0    0  501    0  0.00000000000E+00 -0.00000000000E+00 -0.49045925942E+03  0.49045925944E+03  0.50400000000E-02 0.  1.
    5000001    1    1    2    0    0  0.66866627198E+01 -0.49577738429E+02 -0.17513596263E+03  0.24576466185E+03  0.16500000000E+03 0.  0.
   -5000001    1    1    2    0    0 -0.66866627198E+01  0.49577738429E+02 -0.25346723863E+03  0.30655065595E+03  0.16500000000E+03 0.  0.
<mgrwt>
<rscale>  0 0.34835543E+03</rscale>
<asrwt>0</asrwt>
<pdfrwt beam="1">  1        1 0.70065606E-01 0.34835543E+03</pdfrwt>
<pdfrwt beam="2">  1       -1 0.88365801E-02 0.34835543E+03</pdfrwt>
<totfact> 0.37886126E+03</totfact>
</mgrwt>
</event>
<event>
 4    1  0.2559694E-005  0.4733129E+03  0.7818608E-02  0.1020989E+00
         -1   -1    0    0    0  501 -0.00000000000E+00  0.00000000000E+00  0.12979014927E+03  0.12979014937E+03  0.50400000000E-02 0.  1.
          1   -1    0    0  501    0  0.00000000000E+00 -0.00000000000E+00 -0.43151407828E+03  0.43151407831E+03  0.50400000000E-02 0. -1.
    5000001    1    1    2    0    0  0.12431173409E+03 -0.43488183590E+02 -0.24038582227E+02  0.21247937024E+03  0.16500000000E+03 0.  0.
   -5000001    1    1    2    0    0 -0.12431173409E+03  0.43488183590E+02 -0.27768534679E+03  0.34882485744E+03  0.16500000000E+03 0.  0.
<mgrwt>
<rscale>  0 0.47331291E+03</rscale>
<asrwt>0</asrwt>
<pdfrwt beam="1">  1        1 0.61644868E-01 0.47331291E+03</pdfrwt>
<pdfrwt beam="2">  1       -1 0.18541450E-01 0.47331291E+03</pdfrwt>
<totfact> 0.13861985E+03</totfact>
</mgrwt>
</event>
<event>
 4    1  0.2559694E-005  0.5107233E+03  0.7818608E-02  0.1011017E+00
         -1   -1    0    0    0  501 -0.00000000000E+00  0.00000000000E+00  0.15531906838E+03  0.15531906846E+03  0.50400000000E-02 0. -1.
          1   -1    0    0  501    0  0.00000000000E+00 -0.00000000000E+00 -0.41984259444E+03  0.41984259447E+03  0.50400000000E-02 0.  1.
    5000001    1    1    2    0    0 -0.95720795015E+02  0.16942454320E+03 -0.12005881774E+03  0.28196855526E+03  0.16500000000E+03 0.  0.
   -5000001    1    1    2    0    0  0.95720795015E+02 -0.16942454320E+03 -0.14446470832E+03  0.29319310767E+03  0.16500000000E+03 0.  0.
<mgrwt>
<rscale>  0 0.51072325E+03</rscale>
<asrwt>0</asrwt>
<pdfrwt beam="1">  1        1 0.59977513E-01 0.51072325E+03</pdfrwt>
<pdfrwt beam="2">  1       -1 0.22188439E-01 0.51072325E+03</pdfrwt>
<totfact> 0.10676089E+03</totfact>
</mgrwt>
</event>
<event>
 4    1  0.2559694E-005  0.4874287E+03  0.7818608E-02  0.1017113E+00
          1   -1    0    0  501    0  0.00000000000E+00  0.00000000000E+00  0.90940958996E+02  0.90940959136E+02  0.50400000000E-02 0.  1.
         -1   -1    0    0    0  501 -0.00000000000E+00 -0.00000000000E+00 -0.65313448751E+03  0.65313448753E+03  0.50400000000E-02 0. -1.
    5000001    1    1    2    0    0  0.41820202801E+02 -0.11924737330E+03 -0.47540942201E+03  0.51885256474E+03  0.16500000000E+03 0.  0.
   -5000001    1    1    2    0    0 -0.41820202801E+02  0.11924737330E+03 -0.86784106502E+02  0.22522288192E+03  0.16500000000E+03 0.  0.
<mgrwt>
<rscale>  0 0.48742867E+03</rscale>
<asrwt>0</asrwt>
<pdfrwt beam="1">  1        1 0.12991566E-01 0.48742867E+03</pdfrwt>
<pdfrwt beam="2">  1       -1 0.93304924E-01 0.48742867E+03</pdfrwt>
<totfact> 0.52963052E+02</totfact>
</mgrwt>
</event>
<event>
 4    1  0.2559694E-005  0.3889256E+03  0.7818608E-02  0.1047683E+00
          1   -1    0    0  501    0  0.00000000000E+00  0.00000000000E+00  0.41960750785E+03  0.41960750788E+03  0.50400000000E-02 0.  1.
         -1   -1    0    0    0  501 -0.00000000000E+00 -0.00000000000E+00 -0.90121801864E+02  0.90121802005E+02  0.50400000000E-02 0. -1.
    5000001    1    1    2    0    0  0.76300463907E+01  0.10023737787E+03  0.19360706328E+03  0.27352229248E+03  0.16500000000E+03 0.  0.
   -5000001    1    1    2    0    0 -0.76300463907E+01 -0.10023737787E+03  0.13587864271E+03  0.23620701741E+03  0.16500000000E+03 0.  0.
<mgrwt>
<rscale>  0 0.38892562E+03</rscale>
<asrwt>0</asrwt>
<pdfrwt beam="1">  1        1 0.59943931E-01 0.38892562E+03</pdfrwt>
<pdfrwt beam="2">  1       -1 0.12874543E-01 0.38892562E+03</pdfrwt>
<totfact> 0.25827643E+03</totfact>
</mgrwt>
</event>
<event>
 4    1  0.2559694E-005  0.5135439E+03  0.7818608E-02  0.1010303E+00
         -1   -1    0    0    0  501 -0.00000000000E+00  0.00000000000E+00  0.88857944095E+02  0.88857944238E+02  0.50400000000E-02 0. -1.
          1   -1    0    0  501    0  0.00000000000E+00 -0.00000000000E+00 -0.74199137714E+03  0.74199137716E+03  0.50400000000E-02 0.  1.
    5000001    1    1    2    0    0  0.30002820407E+02  0.19441769749E+03 -0.33126079484E+03  0.41911469137E+03  0.16500000000E+03 0.  0.
   -5000001    1    1    2    0    0 -0.30002820407E+02 -0.19441769749E+03 -0.32187263821E+03  0.41173463002E+03  0.16500000000E+03 0.  0.
<mgrwt>
<rscale>  0 0.51354388E+03</rscale>
<asrwt>0</asrwt>
<pdfrwt beam="1">  1        1 0.10599876E+00 0.51354388E+03</pdfrwt>
<pdfrwt beam="2">  1       -1 0.12693992E-01 0.51354388E+03</pdfrwt>
<totfact> 0.12094722E+03</totfact>
</mgrwt>
</event>
<event>
 4    1  0.2559694E-005  0.4619477E+03  0.7818608E-02  0.1024218E+00
         -1   -1    0    0    0  501 -0.00000000000E+00  0.00000000000E+00  0.43432750030E+02  0.43432750322E+02  0.50400000000E-02 0. -1.
          1   -1    0    0  501    0  0.00000000000E+00 -0.00000000000E+00 -0.12283108437E+04  0.12283108437E+04  0.50400000000E-02 0.  1.
    5000001    1    1    2    0    0  0.15321236132E+02 -0.69591858079E+02 -0.99182528536E+03  0.10079782556E+04  0.16500000000E+03 0.  0.
   -5000001    1    1    2    0    0 -0.15321236132E+02  0.69591858079E+02 -0.19305280832E+03  0.26376533849E+03  0.16500000000E+03 0.  0.
<mgrwt>
<rscale>  0 0.46194769E+03</rscale>
<asrwt>0</asrwt>
<pdfrwt beam="1">  1        1 0.17547296E+00 0.46194769E+03</pdfrwt>
<pdfrwt beam="2">  1       -1 0.62046794E-02 0.46194769E+03</pdfrwt>
<totfact> 0.15982645E+03</totfact>
</mgrwt>
</event>
<event>
 4    1  0.2559694E-005  0.5081673E+03  0.7818608E-02  0.1011669E+00
          1   -1    0    0  501    0  0.00000000000E+00  0.00000000000E+00  0.62100180326E+02  0.62100180530E+02  0.50400000000E-02 0.  1.
         -1   -1    0    0    0  501 -0.00000000000E+00 -0.00000000000E+00 -0.10395863526E+04  0.10395863526E+04  0.50400000000E-02 0. -1.
    5000001    1    1    2    0    0  0.43907099323E+02  0.17772073073E+03 -0.62275405143E+03  0.66974629530E+03  0.16500000000E+03 0.  0.
   -5000001    1    1    2    0    0 -0.43907099323E+02 -0.17772073073E+03 -0.35473212083E+03  0.43194023782E+03  0.16500000000E+03 0.  0.
<mgrwt>
<rscale>  0 0.50816730E+03</rscale>
<asrwt>0</asrwt>
<pdfrwt beam="1">  1        1 0.88714550E-02 0.50816730E+03</pdfrwt>
<pdfrwt beam="2">  1       -1 0.14851232E+00 0.50816730E+03</pdfrwt>
<totfact> 0.29064247E+02</totfact>
</mgrwt>
</event>
<event>
 4    1  0.2559694E-005  0.6566901E+03  0.7818608E-02  0.9794306E-01
          1   -1    0    0  501    0  0.00000000000E+00  0.00000000000E+00  0.57164110267E+03  0.57164110269E+03  0.50400000000E-02 0.  1.
         -1   -1    0    0    0  501 -0.00000000000E+00 -0.00000000000E+00 -0.18859816205E+03  0.18859816211E+03  0.50400000000E-02 0. -1.
    5000001    1    1    2    0    0 -0.22588779615E+03 -0.12983195074E+03  0.32200544458E+03  0.44586336273E+03  0.16500000000E+03 0.  0.
   -5000001    1    1    2    0    0  0.22588779615E+03  0.12983195074E+03  0.61037496038E+02  0.31437590207E+03  0.16500000000E+03 0.  0.
<mgrwt>
<rscale>  0 0.65669007E+03</rscale>
<asrwt>0</asrwt>
<pdfrwt beam="1">  1        1 0.81663014E-01 0.65669007E+03</pdfrwt>
<pdfrwt beam="2">  1       -1 0.26942595E-01 0.65669007E+03</pdfrwt>
<totfact> 0.50641974E+02</totfact>
</mgrwt>
</event>
<event>
 4    1  0.2559694E-005  0.4220275E+03  0.7818608E-02  0.1036408E+00
         -1   -1    0    0    0  501 -0.00000000000E+00  0.00000000000E+00  0.20039112779E+03  0.20039112785E+03  0.50400000000E-02 0. -1.
          1   -1    0    0  501    0  0.00000000000E+00 -0.00000000000E+00 -0.22219942898E+03  0.22219942903E+03  0.50400000000E-02 0.  1.
    5000001    1    1    2    0    0  0.11887646467E+03 -0.55302922759E+02 -0.31804995558E+00  0.21074896981E+03  0.16500000000E+03 0.  0.
   -5000001    1    1    2    0    0 -0.11887646467E+03  0.55302922759E+02 -0.21490251232E+02  0.21184158708E+03  0.16500000000E+03 0.  0.
<mgrwt>
<rscale>  0 0.42202746E+03</rscale>
<asrwt>0</asrwt>
<pdfrwt beam="1">  1        1 0.31742776E-01 0.42202746E+03</pdfrwt>
<pdfrwt beam="2">  1       -1 0.28627304E-01 0.42202746E+03</pdfrwt>
<totfact> 0.15699048E+03</totfact>
</mgrwt>
</event>
<event>
 4    1  0.2559694E-005  0.4384896E+03  0.7818608E-02  0.1031211E+00
         -1   -1    0    0    0  501 -0.00000000000E+00  0.00000000000E+00  0.78921615470E+02  0.78921615631E+02  0.50400000000E-02 0.  1.
          1   -1    0    0  501    0  0.00000000000E+00 -0.00000000000E+00 -0.60906351130E+03  0.60906351132E+03  0.50400000000E-02 0. -1.
    5000001    1    1    2    0    0 -0.19229403503E+02 -0.65532601307E+02 -0.46464101765E+03  0.49777561921E+03  0.16500000000E+03 0.  0.
   -5000001    1    1    2    0    0  0.19229403503E+02  0.65532601307E+02 -0.65500878176E+02  0.19020950774E+03  0.16500000000E+03 0.  0.
<mgrwt>
<rscale>  0 0.43848957E+03</rscale>
<asrwt>0</asrwt>
<pdfrwt beam="1">  1        1 0.87009070E-01 0.43848957E+03</pdfrwt>
<pdfrwt beam="2">  1       -1 0.11274517E-01 0.43848957E+03</pdfrwt>
<totfact> 0.19382459E+03</totfact>
</mgrwt>
</event>
<event>
 4    1  0.2559694E-005  0.4652884E+03  0.7818608E-02  0.1023258E+00
         -1   -1    0    0    0  501 -0.00000000000E+00  0.00000000000E+00  0.66052537728E+02  0.66052537920E+02  0.50400000000E-02 0. -1.
          1   -1    0    0  501    0  0.00000000000E+00 -0.00000000000E+00 -0.81939825845E+03  0.81939825846E+03  0.50400000000E-02 0.  1.
    5000001    1    1    2    0    0 -0.98090572847E+02 -0.10020518413E+03 -0.21479916155E+03  0.30500249050E+03  0.16500000000E+03 0.  0.
   -5000001    1    1    2    0    0  0.98090572847E+02  0.10020518413E+03 -0.53854655917E+03  0.58044830588E+03  0.16500000000E+03 0.  0.
<mgrwt>
<rscale>  0 0.46528845E+03</rscale>
<asrwt>0</asrwt>
<pdfrwt beam="1">  1        1 0.11705689E+00 0.46528845E+03</pdfrwt>
<pdfrwt beam="2">  1       -1 0.94360773E-02 0.46528845E+03</pdfrwt>
<totfact> 0.16633403E+03</totfact>
</mgrwt>
</event>
<event>
 4    1  0.2559694E-005  0.5242891E+03  0.7818608E-02  0.1007627E+00
          1   -1    0    0  501    0  0.00000000000E+00  0.00000000000E+00  0.22464520543E+03  0.22464520549E+03  0.50400000000E-02 0.  1.
         -1   -1    0    0    0  501 -0.00000000000E+00 -0.00000000000E+00 -0.30590349215E+03  0.30590349219E+03  0.50400000000E-02 0. -1.
    5000001    1    1    2    0    0  0.12996692398E+03 -0.12263363980E+02 -0.19887057162E+03  0.28951044140E+03  0.16500000000E+03 0.  0.
   -5000001    1    1    2    0    0 -0.12996692398E+03  0.12263363980E+02  0.11761228491E+03  0.24103825627E+03  0.16500000000E+03 0.  0.
<mgrwt>
<rscale>  0 0.52428905E+03</rscale>
<asrwt>0</asrwt>
<pdfrwt beam="1">  1        1 0.32092172E-01 0.52428905E+03</pdfrwt>
<pdfrwt beam="2">  1       -1 0.43700499E-01 0.52428905E+03</pdfrwt>
<totfact> 0.73298542E+02</totfact>
</mgrwt>
</event>
<event>
 4    1  0.2559694E-005  0.7207766E+03  0.7818608E-02  0.9682347E-01
          1   -1    0    0  501    0  0.00000000000E+00  0.00000000000E+00  0.16945012163E+04  0.16945012163E+04  0.50400000000E-02 0.  1.
         -1   -1    0    0    0  501 -0.00000000000E+00 -0.00000000000E+00 -0.76647752538E+02  0.76647752704E+02  0.50400000000E-02 0. -1.
    5000001    1    1    2    0    0 -0.23660235367E+02  0.31539408079E+03  0.93474029893E+03  0.10004987053E+04  0.16500000000E+03 0.  0.
   -5000001    1    1    2    0    0  0.23660235367E+02 -0.31539408079E+03  0.68311316482E+03  0.77065026366E+03  0.16500000000E+03 0.  0.
<mgrwt>
<rscale>  0 0.72077655E+03</rscale>
<asrwt>0</asrwt>
<pdfrwt beam="1">  1        1 0.24207156E+00 0.72077655E+03</pdfrwt>
<pdfrwt beam="2">  1       -1 0.10949681E-01 0.72077655E+03</pdfrwt>
<totfact> 0.32467858E+02</totfact>
</mgrwt>
</event>
<event>
 4    1  0.2559694E-005  0.8683417E+03  0.7818608E-02  0.9466045E-01
          1   -1    0    0  501    0  0.00000000000E+00  0.00000000000E+00  0.41358592992E+03  0.41358592995E+03  0.50400000000E-02 0.  1.
         -1   -1    0    0    0  501 -0.00000000000E+00 -0.00000000000E+00 -0.45578034328E+03  0.45578034330E+03  0.50400000000E-02 0. -1.
    5000001    1    1    2    0    0  0.26962450848E+03 -0.91946429780E+02  0.26230535432E+03  0.42092828419E+03  0.16500000000E+03 0.  0.
   -5000001    1    1    2    0    0 -0.26962450848E+03  0.91946429780E+02 -0.30449976768E+03  0.44843798907E+03  0.16500000000E+03 0.  0.
<mgrwt>
<rscale>  0 0.86834172E+03</rscale>
<asrwt>0</asrwt>
<pdfrwt beam="1">  1        1 0.59083704E-01 0.86834172E+03</pdfrwt>
<pdfrwt beam="2">  1       -1 0.65111478E-01 0.86834172E+03</pdfrwt>
<totfact> 0.15284836E+02</totfact>
</mgrwt>
</event>
<event>
 4    1  0.2559694E-005  0.3659149E+03  0.7818608E-02  0.1056266E+00
         -1   -1    0    0    0  501 -0.00000000000E+00  0.00000000000E+00  0.83073710298E+02  0.83073710451E+02  0.50400000000E-02 0.  1.
          1   -1    0    0  501    0  0.00000000000E+00 -0.00000000000E+00 -0.40293646405E+03  0.40293646408E+03  0.50400000000E-02 0. -1.
    5000001    1    1    2    0    0  0.77181625357E+02 -0.10447554305E+02 -0.14199949852E+03  0.23120340020E+03  0.16500000000E+03 0.  0.
   -5000001    1    1    2    0    0 -0.77181625357E+02  0.10447554305E+02 -0.17786325523E+03  0.25480677433E+03  0.16500000000E+03 0.  0.
<mgrwt>
<rscale>  0 0.36591489E+03</rscale>
<asrwt>0</asrwt>
<pdfrwt beam="1">  1        1 0.57562351E-01 0.36591489E+03</pdfrwt>
<pdfrwt beam="2">  1       -1 0.11867673E-01 0.36591489E+03</pdfrwt>
<totfact> 0.30920233E+03</totfact>
</mgrwt>
</event>
<event>
 4    1  0.2559694E-005  0.5004208E+03  0.7818608E-02  0.1013669E+00
         -1   -1    0    0    0  501 -0.00000000000E+00  0.00000000000E+00  0.47538140659E+02  0.47538140926E+02  0.50400000000E-02 0. -1.
          1   -1    0    0  501    0  0.00000000000E+00 -0.00000000000E+00 -0.13169478720E+04  0.13169478720E+04  0.50400000000E-02 0.  1.
    5000001    1    1    2    0    0  0.62337268574E+02 -0.13225853224E+03 -0.95735267773E+03  0.98240897998E+03  0.16500000000E+03 0.  0.
   -5000001    1    1    2    0    0 -0.62337268574E+02  0.13225853224E+03 -0.31205705364E+03  0.38207703298E+03  0.16500000000E+03 0.  0.
<mgrwt>
<rscale>  0 0.50042084E+03</rscale>
<asrwt>0</asrwt>
<pdfrwt beam="1">  1        1 0.18813539E+00 0.50042084E+03</pdfrwt>
<pdfrwt beam="2">  1       -1 0.67911638E-02 0.50042084E+03</pdfrwt>
<totfact> 0.12128808E+03</totfact>
</mgrwt>
</event>
<event>
 4    1  0.2559694E-005  0.6840335E+03  0.7818608E-02  0.9744933E-01
          1   -1    0    0  501    0  0.00000000000E+00  0.00000000000E+00  0.64802400319E+02  0.64802400515E+02  0.50400000000E-02 0.  1.
         -1   -1    0    0    0  501 -0.00000000000E+00 -0.00000000000E+00 -0.18051099933E+04  0.18051099933E+04  0.50400000000E-02 0. -1.
    5000001    1    1    2    0    0  0.15866961238E+03  0.20615169954E+03 -0.46398831855E+03  0.55694230299E+03  0.16500000000E+03 0.  0.
   -5000001    1    1    2    0    0 -0.15866961238E+03 -0.20615169954E+03 -0.12763192744E+04  0.13129700908E+04  0.16500000000E+03 0.  0.
<mgrwt>
<rscale>  0 0.68403351E+03</rscale>
<asrwt>0</asrwt>
<pdfrwt beam="1">  1        1 0.92574868E-02 0.68403351E+03</pdfrwt>
<pdfrwt beam="2">  1       -1 0.25787283E+00 0.68403351E+03</pdfrwt>
<totfact> 0.48030115E+01</totfact>
</mgrwt>
</event>
<event>
 4    1  0.2559694E-005  0.3967103E+03  0.7818608E-02  0.1044925E+00
         -1   -1    0    0    0  501 -0.00000000000E+00  0.00000000000E+00  0.33881982219E+03  0.33881982223E+03  0.50400000000E-02 0.  1.
          1   -1    0    0  501    0  0.00000000000E+00 -0.00000000000E+00 -0.11612299157E+03  0.11612299168E+03  0.50400000000E-02 0. -1.
    5000001    1    1    2    0    0  0.49997371671E+02 -0.92905895991E+02  0.14740444836E+03  0.24512101925E+03  0.16500000000E+03 0.  0.
   -5000001    1    1    2    0    0 -0.49997371671E+02  0.92905895991E+02  0.75292382265E+02  0.20982179465E+03  0.16500000000E+03 0.  0.
<mgrwt>
<rscale>  0 0.39671033E+03</rscale>
<asrwt>0</asrwt>
<pdfrwt beam="1">  1        1 0.16588999E-01 0.39671033E+03</pdfrwt>
<pdfrwt beam="2">  1       -1 0.48402832E-01 0.39671033E+03</pdfrwt>
<totfact> 0.14310888E+03</totfact>
</mgrwt>
</event>
<event>
 4    1  0.2559694E-005  0.4496639E+03  0.7818608E-02  0.1027822E+00
         -1   -1    0    0    0  501 -0.00000000000E+00  0.00000000000E+00  0.63232563698E+02  0.63232563899E+02  0.50400000000E-02 0. -1.
          1   -1    0    0  501    0  0.00000000000E+00 -0.00000000000E+00 -0.79942031264E+03  0.79942031266E+03  0.50400000000E-02 0.  1.
    5000001    1    1    2    0    0 -0.10333197544E+03 -0.36342053759E+01 -0.15246186746E+03  0.24730613746E+03  0.16500000000E+03 0.  0.
   -5000001    1    1    2    0    0  0.10333197544E+03  0.36342053759E+01 -0.58372588148E+03  0.61534673909E+03  0.16500000000E+03 0.  0.
<mgrwt>
<rscale>  0 0.44966386E+03</rscale>
<asrwt>0</asrwt>
<pdfrwt beam="1">  1        1 0.11420290E+00 0.44966386E+03</pdfrwt>
<pdfrwt beam="2">  1       -1 0.90332239E-02 0.44966386E+03</pdfrwt>
<totfact> 0.18490564E+03</totfact>
</mgrwt>
</event>
<event>
 4    1  0.2559694E-005  0.3804321E+03  0.7818608E-02  0.1050774E+00
          1   -1    0    0  501    0  0.00000000000E+00  0.00000000000E+00  0.23109503750E+03  0.23109503756E+03  0.50400000000E-02 0.  1.
         -1   -1    0    0    0  501 -0.00000000000E+00 -0.00000000000E+00 -0.15656822101E+03  0.15656822109E+03  0.50400000000E-02 0. -1.
    5000001    1    1    2    0    0 -0.27974203885E+02 -0.88740369868E+02  0.19621630434E+02  0.19044006330E+03  0.16500000000E+03 0.  0.
   -5000001    1    1    2    0    0  0.27974203885E+02  0.88740369868E+02  0.54905186059E+02  0.19722319535E+03  0.16500000000E+03 0.  0.
<mgrwt>
<rscale>  0 0.38043206E+03</rscale>
<asrwt>0</asrwt>
<pdfrwt beam="1">  1        1 0.33013577E-01 0.38043206E+03</pdfrwt>
<pdfrwt beam="2">  1       -1 0.22366889E-01 0.38043206E+03</pdfrwt>
<totfact> 0.22597263E+03</totfact>
</mgrwt>
</event>
<event>
 4    1  0.2559694E-005  0.4894398E+03  0.7818608E-02  0.1016573E+00
         -1   -1    0    0    0  501 -0.00000000000E+00  0.00000000000E+00  0.46528755644E+02  0.46528755917E+02  0.50400000000E-02 0. -1.
          1   -1    0    0  501    0  0.00000000000E+00 -0.00000000000E+00 -0.12871145023E+04  0.12871145024E+04  0.50400000000E-02 0.  1.
    5000001    1    1    2    0    0 -0.24673716626E+02  0.17899505780E+03 -0.60980549492E+03  0.65706602761E+03  0.16500000000E+03 0.  0.
   -5000001    1    1    2    0    0  0.24673716626E+02 -0.17899505780E+03 -0.63078025178E+03  0.67657723066E+03  0.16500000000E+03 0.  0.
<mgrwt>
<rscale>  0 0.48943983E+03</rscale>
<asrwt>0</asrwt>
<pdfrwt beam="1">  1        1 0.18387348E+00 0.48943983E+03</pdfrwt>
<pdfrwt beam="2">  1       -1 0.66469659E-02 0.48943983E+03</pdfrwt>
<totfact> 0.13124457E+03</totfact>
</mgrwt>
</event>
<event>
 4    1  0.2559694E-005  0.6440752E+03  0.7818608E-02  0.9817961E-01
          1   -1    0    0  501    0  0.00000000000E+00  0.00000000000E+00  0.14164087226E+04  0.14164087226E+04  0.50400000000E-02 0.  1.
         -1   -1    0    0    0  501 -0.00000000000E+00 -0.00000000000E+00 -0.73219131198E+02  0.73219131372E+02  0.50400000000E-02 0. -1.
    5000001    1    1    2    0    0  0.14889498323E+03  0.19790152047E+03  0.38693518196E+03  0.48813785233E+03  0.16500000000E+03 0.  0.
   -5000001    1    1    2    0    0 -0.14889498323E+03 -0.19790152047E+03  0.95625440946E+03  0.10014900017E+04  0.16500000000E+03 0.  0.
<mgrwt>
<rscale>  0 0.64407520E+03</rscale>
<asrwt>0</asrwt>
<pdfrwt beam="1">  1        1 0.20234410E+00 0.64407520E+03</pdfrwt>
<pdfrwt beam="2">  1       -1 0.10459876E-01 0.64407520E+03</pdfrwt>
<totfact> 0.52825969E+02</totfact>
</mgrwt>
</event>
<event>
 4    1  0.2559694E-005  0.6484683E+03  0.7818608E-02  0.9809658E-01
         -1   -1    0    0    0  501 -0.00000000000E+00  0.00000000000E+00  0.27892757400E+02  0.27892757856E+02  0.50400000000E-02 0. -1.
          1   -1    0    0  501    0  0.00000000000E+00 -0.00000000000E+00 -0.37689988874E+04  0.37689988874E+04  0.50400000000E-02 0.  1.
    5000001    1    1    2    0    0  0.18708287666E+03  0.61911654021E+02 -0.30278894542E+04  0.30387781430E+04  0.16500000000E+03 0.  0.
   -5000001    1    1    2    0    0 -0.18708287666E+03 -0.61911654021E+02 -0.71321667588E+03  0.75811350232E+03  0.16500000000E+03 0.  0.
<mgrwt>
<rscale>  0 0.64846826E+03</rscale>
<asrwt>0</asrwt>
<pdfrwt beam="1">  1        1 0.53842809E+00 0.64846826E+03</pdfrwt>
<pdfrwt beam="2">  1       -1 0.39846820E-02 0.64846826E+03</pdfrwt>
<totfact> 0.71628901E+01</totfact>
</mgrwt>
</event>
<event>
 4    1  0.2559694E-005  0.5973953E+03  0.7818608E-02  0.9910825E-01
         -1   -1    0    0    0  501 -0.00000000000E+00  0.00000000000E+00  0.11077770092E+03  0.11077770104E+03  0.50400000000E-02 0. -1.
          1   -1    0    0  501    0  0.00000000000E+00 -0.00000000000E+00 -0.80539941413E+03  0.80539941415E+03  0.50400000000E-02 0.  1.
    5000001    1    1    2    0    0  0.10425849680E+03  0.21514376061E+02 -0.21183798300E+01  0.19637257972E+03  0.16500000000E+03 0.  0.
   -5000001    1    1    2    0    0 -0.10425849680E+03 -0.21514376061E+02 -0.69250333338E+03  0.71980453547E+03  0.16500000000E+03 0.  0.
<mgrwt>
<rscale>  0 0.59739533E+03</rscale>
<asrwt>0</asrwt>
<pdfrwt beam="1">  1        1 0.11505706E+00 0.59739533E+03</pdfrwt>
<pdfrwt beam="2">  1       -1 0.15825386E-01 0.59739533E+03</pdfrwt>
<totfact> 0.74782341E+02</totfact>
</mgrwt>
</event>
<event>
 4    1  0.2559694E-005  0.6092711E+03  0.7818608E-02  0.9886356E-01
         -1   -1    0    0    0  501 -0.00000000000E+00  0.00000000000E+00  0.11929404103E+03  0.11929404114E+03  0.50400000000E-02 0. -1.
          1   -1    0    0  501    0  0.00000000000E+00 -0.00000000000E+00 -0.77793345294E+03  0.77793345296E+03  0.50400000000E-02 0.  1.
    5000001    1    1    2    0    0  0.44644826923E+02  0.20025554111E+03 -0.55498411136E+03  0.61427014104E+03  0.16500000000E+03 0.  0.
   -5000001    1    1    2    0    0 -0.44644826923E+02 -0.20025554111E+03 -0.10365530056E+03  0.28295735306E+03  0.16500000000E+03 0.  0.
<mgrwt>
<rscale>  0 0.60927112E+03</rscale>
<asrwt>0</asrwt>
<pdfrwt beam="1">  1        1 0.11113335E+00 0.60927112E+03</pdfrwt>
<pdfrwt beam="2">  1       -1 0.17042006E-01 0.60927112E+03</pdfrwt>
<totfact> 0.69860450E+02</totfact>
</mgrwt>
</event>
<event>
 4    1  0.2559694E-005  0.6487627E+03  0.7818608E-02  0.9809104E-01
         -1   -1    0    0    0  501 -0.00000000000E+00  0.00000000000E+00  0.93318956756E+03  0.93318956758E+03  0.50400000000E-02 0. -1.
          1   -1    0    0  501    0  0.00000000000E+00 -0.00000000000E+00 -0.11275656593E+03  0.11275656604E+03  0.50400000000E-02 0.  1.
    5000001    1    1    2    0    0  0.22495155308E+03 -0.12261769310E+03  0.23097777715E+03  0.38237943646E+03  0.16500000000E+03 0.  0.
   -5000001    1    1    2    0    0 -0.22495155308E+03  0.12261769310E+03  0.58945522449E+03  0.66356669715E+03  0.16500000000E+03 0.  0.
<mgrwt>
<rscale>  0 0.64876267E+03</rscale>
<asrwt>0</asrwt>
<pdfrwt beam="1">  1        1 0.16108082E-01 0.64876267E+03</pdfrwt>
<pdfrwt beam="2">  1       -1 0.13331279E+00 0.64876267E+03</pdfrwt>
<totfact> 0.16985250E+02</totfact>
</mgrwt>
</event>
<event>
 4    1  0.2559694E-005  0.1360531E+04  0.7818608E-02  0.8982894E-01
          1   -1    0    0  501    0  0.00000000000E+00  0.00000000000E+00  0.42174518842E+03  0.42174518846E+03  0.50400000000E-02 0.  1.
         -1   -1    0    0    0  501 -0.00000000000E+00 -0.00000000000E+00 -0.10972527964E+04  0.10972527964E+04  0.50400000000E-02 0. -1.
    5000001    1    1    2    0    0 -0.32795147027E+03 -0.56547863059E+03 -0.43896477618E+03  0.80450812503E+03  0.16500000000E+03 0.  0.
   -5000001    1    1    2    0    0  0.32795147027E+03  0.56547863059E+03 -0.23654283177E+03  0.71448985981E+03  0.16500000000E+03 0.  0.
<mgrwt>
<rscale>  0 0.13605309E+04</rscale>
<asrwt>0</asrwt>
<pdfrwt beam="1">  1        1 0.60249313E-01 0.13605309E+04</pdfrwt>
<pdfrwt beam="2">  1       -1 0.15675040E+00 0.13605309E+04</pdfrwt>
<totfact> 0.18704827E+01</totfact>
</mgrwt>
</event>
<event>
 4    1  0.2559694E-005  0.4144191E+03  0.7818608E-02  0.1038898E+00
          1   -1    0    0  501    0  0.00000000000E+00  0.00000000000E+00  0.12736474660E+03  0.12736474670E+03  0.50400000000E-02 0.  1.
         -1   -1    0    0    0  501 -0.00000000000E+00 -0.00000000000E+00 -0.33710889974E+03  0.33710889978E+03  0.50400000000E-02 0. -1.
    5000001    1    1    2    0    0 -0.54570685888E+01  0.10208893274E+03 -0.23595172415E+02  0.19553429865E+03  0.16500000000E+03 0.  0.
   -5000001    1    1    2    0    0  0.54570685888E+01 -0.10208893274E+03 -0.18614898072E+03  0.26893934783E+03  0.16500000000E+03 0.  0.
<mgrwt>
<rscale>  0 0.41441906E+03</rscale>
<asrwt>0</asrwt>
<pdfrwt beam="1">  1        1 0.18194964E-01 0.41441906E+03</pdfrwt>
<pdfrwt beam="2">  1       -1 0.48158414E-01 0.41441906E+03</pdfrwt>
<totfact> 0.12795496E+03</totfact>
</mgrwt>
</event>
<event>
 4    1  0.2559694E-005  0.3604186E+03  0.7818608E-02  0.1058418E+00
         -1   -1    0    0    0  501 -0.00000000000E+00  0.00000000000E+00  0.19543078536E+02  0.19543079186E+02  0.50400000000E-02 0. -1.
          1   -1    0    0  501    0  0.00000000000E+00 -0.00000000000E+00 -0.16617340107E+04  0.16617340107E+04  0.50400000000E-02 0.  1.
    5000001    1    1    2    0    0 -0.68042850076E+02 -0.24850906442E+02 -0.81301334595E+03  0.83274431711E+03  0.16500000000E+03 0.  0.
   -5000001    1    1    2    0    0  0.68042850076E+02  0.24850906442E+02 -0.82917758621E+03  0.84853277278E+03  0.16500000000E+03 0.  0.
<mgrwt>
<rscale>  0 0.36041864E+03</rscale>
<asrwt>0</asrwt>
<pdfrwt beam="1">  1        1 0.23739048E+00 0.36041864E+03</pdfrwt>
<pdfrwt beam="2">  1       -1 0.27918695E-02 0.36041864E+03</pdfrwt>
<totfact> 0.28131668E+03</totfact>
</mgrwt>
</event>
<event>
 4    1  0.2559694E-005  0.3972310E+03  0.7818608E-02  0.1044743E+00
          1   -1    0    0  501    0  0.00000000000E+00  0.00000000000E+00  0.11081857175E+04  0.11081857175E+04  0.50400000000E-02 0. -1.
         -1   -1    0    0    0  501 -0.00000000000E+00 -0.00000000000E+00 -0.35597035232E+02  0.35597035589E+02  0.50400000000E-02 0.  1.
    5000001    1    1    2    0    0 -0.73539891870E+02 -0.68119701946E+02  0.40201731692E+03  0.44597234510E+03  0.16500000000E+03 0.  0.
   -5000001    1    1    2    0    0  0.73539891870E+02  0.68119701946E+02  0.67057136533E+03  0.69781040798E+03  0.16500000000E+03 0.  0.
<mgrwt>
<rscale>  0 0.39723105E+03</rscale>
<asrwt>0</asrwt>
<pdfrwt beam="1">  1        1 0.15831222E+00 0.39723105E+03</pdfrwt>
<pdfrwt beam="2">  1       -1 0.50852916E-02 0.39723105E+03</pdfrwt>
<totfact> 0.26168975E+03</totfact>
</mgrwt>
</event>
<event>
 4    1  0.2559694E-005  0.7190801E+03  0.7818608E-02  0.9685148E-01
         -1   -1    0    0    0  501 -0.00000000000E+00  0.00000000000E+00  0.24239628179E+03  0.24239628184E+03  0.50400000000E-02 0.  1.
          1   -1    0    0  501    0  0.00000000000E+00 -0.00000000000E+00 -0.53329631691E+03  0.53329631693E+03  0.50400000000E-02 0. -1.
    5000001    1    1    2    0    0 -0.27094351376E+03  0.13077680265E+03 -0.26128706031E+03  0.43128747680E+03  0.16500000000E+03 0.  0.
   -5000001    1    1    2    0    0  0.27094351376E+03 -0.13077680265E+03 -0.29612974810E+02  0.34440512197E+03  0.16500000000E+03 0.  0.
<mgrwt>
<rscale>  0 0.71908009E+03</rscale>
<asrwt>0</asrwt>
<pdfrwt beam="1">  1        1 0.76185188E-01 0.71908009E+03</pdfrwt>
<pdfrwt beam="2">  1       -1 0.34628040E-01 0.71908009E+03</pdfrwt>
<totfact> 0.35889816E+02</totfact>
</mgrwt>
</event>
<event>
 4    1  0.2559694E-005  0.8527876E+03  0.7818608E-02  0.9486603E-01
          1   -1    0    0  501    0  0.00000000000E+00  0.00000000000E+00  0.13401749989E+04  0.13401749989E+04  0.50400000000E-02 0.  1.
         -1   -1    0    0    0  501 -0.00000000000E+00 -0.00000000000E+00 -0.13566264491E+03  0.13566264500E+03  0.50400000000E-02 0. -1.
    5000001    1    1    2    0    0  0.20161107073E+03  0.20786713062E+03  0.10625152273E+04  0.11135615726E+04  0.16500000000E+03 0.  0.
   -5000001    1    1    2    0    0 -0.20161107073E+03 -0.20786713062E+03  0.14199712672E+03  0.36227607130E+03  0.16500000000E+03 0.  0.
<mgrwt>
<rscale>  0 0.85278763E+03</rscale>
<asrwt>0</asrwt>
<pdfrwt beam="1">  1        1 0.19145358E+00 0.85278763E+03</pdfrwt>
<pdfrwt beam="2">  1       -1 0.19380377E-01 0.85278763E+03</pdfrwt>
<totfact> 0.21558206E+02</totfact>
</mgrwt>
</event>
<event>
 4    1  0.2559694E-005  0.1021558E+04  0.7818608E-02  0.9285211E-01
         -1   -1    0    0    0  501 -0.00000000000E+00  0.00000000000E+00  0.46707523079E+03  0.46707523081E+03  0.50400000000E-02 0. -1.
          1   -1    0    0  501    0  0.00000000000E+00 -0.00000000000E+00 -0.55857247864E+03  0.55857247866E+03  0.50400000000E-02 0.  1.
    5000001    1    1    2    0    0 -0.25253438559E+03  0.40459268318E+03 -0.12481355647E+03  0.51987717691E+03  0.16500000000E+03 0.  0.
   -5000001    1    1    2    0    0  0.25253438559E+03 -0.40459268318E+03  0.33316308622E+02  0.50577053257E+03  0.16500000000E+03 0.  0.
<mgrwt>
<rscale>  0 0.10215584E+04</rscale>
<asrwt>0</asrwt>
<pdfrwt beam="1">  1        1 0.79796068E-01 0.10215584E+04</pdfrwt>
<pdfrwt beam="2">  1       -1 0.66725033E-01 0.10215584E+04</pdfrwt>
<totfact> 0.96049489E+01</totfact>
</mgrwt>
</event>
<event>
 4    1  0.2559694E-005  0.4811482E+03  0.7818608E-02  0.1018820E+00
          1   -1    0    0  501    0  0.00000000000E+00  0.00000000000E+00  0.30084887281E+04  0.30084887281E+04  0.50400000000E-02 0.  1.
         -1   -1    0    0    0  501 -0.00000000000E+00 -0.00000000000E+00 -0.19237530958E+02  0.19237531619E+02  0.50400000000E-02 0. -1.
    5000001    1    1    2    0    0  0.12538261707E+03  0.34895041598E+02  0.75774862976E+03  0.78635008139E+03  0.16500000000E+03 0.  0.
   -5000001    1    1    2    0    0 -0.12538261707E+03 -0.34895041598E+02  0.22315025674E+04  0.22413761783E+04  0.16500000000E+03 0.  0.
<mgrwt>
<rscale>  0 0.48114819E+03</rscale>
<asrwt>0</asrwt>
<pdfrwt beam="1">  1        1 0.42978431E+00 0.48114819E+03</pdfrwt>
<pdfrwt beam="2">  1       -1 0.27482174E-02 0.48114819E+03</pdfrwt>
<totfact> 0.41883152E+02</totfact>
</mgrwt>
</event>
<event>
 4    1  0.2559694E-005  0.4421701E+03  0.7818608E-02  0.1030083E+00
          1   -1    0    0  501    0  0.00000000000E+00  0.00000000000E+00  0.99824663735E+03  0.99824663736E+03  0.50400000000E-02 0.  1.
         -1   -1    0    0    0  501 -0.00000000000E+00 -0.00000000000E+00 -0.48964441923E+02  0.48964442182E+02  0.50400000000E-02 0. -1.
    5000001    1    1    2    0    0 -0.74241070830E+01 -0.14617195518E+03  0.51073266473E+03  0.55632204043E+03  0.16500000000E+03 0.  0.
   -5000001    1    1    2    0    0  0.74241070830E+01  0.14617195518E+03  0.43854953070E+03  0.49088903911E+03  0.16500000000E+03 0.  0.
<mgrwt>
<rscale>  0 0.44217006E+03</rscale>
<asrwt>0</asrwt>
<pdfrwt beam="1">  1        1 0.14260667E+00 0.44217006E+03</pdfrwt>
<pdfrwt beam="2">  1       -1 0.69949200E-02 0.44217006E+03</pdfrwt>
<totfact> 0.19268420E+03</totfact>
</mgrwt>
</event>
<event>
 4    1  0.2559694E-005  0.5697291E+03  0.7818608E-02  0.9970278E-01
         -1   -1    0    0    0  501 -0.00000000000E+00  0.00000000000E+00  0.66183907346E+03  0.66183907348E+03  0.50400000000E-02 0. -1.
          1   -1    0    0  501    0  0.00000000000E+00 -0.00000000000E+00 -0.12260958547E+03  0.12260958557E+03  0.50400000000E-02 0.  1.
    5000001    1    1    2    0    0 -0.11216055728E+03 -0.16053108972E+03  0.44143587903E+03  0.51033406380E+03  0.16500000000E+03 0.  0.
   -5000001    1    1    2    0    0  0.11216055728E+03  0.16053108972E+03  0.97793608964E+02  0.27411459525E+03  0.16500000000E+03 0.  0.
<mgrwt>
<rscale>  0 0.56972911E+03</rscale>
<asrwt>0</asrwt>
<pdfrwt beam="1">  1        1 0.17515655E-01 0.56972911E+03</pdfrwt>
<pdfrwt beam="2">  1       -1 0.94548438E-01 0.56972911E+03</pdfrwt>
<totfact> 0.34409059E+02</totfact>
</mgrwt>
</event>
<event>
 4    1  0.2559694E-005  0.6038068E+03  0.7818608E-02  0.9897539E-01
         -1   -1    0    0    0  501 -0.00000000000E+00  0.00000000000E+00  0.21192093864E+03  0.21192093870E+03  0.50400000000E-02 0. -1.
          1   -1    0    0  501    0  0.00000000000E+00 -0.00000000000E+00 -0.43009283588E+03  0.43009283591E+03  0.50400000000E-02 0.  1.
    5000001    1    1    2    0    0 -0.21531984693E+03  0.72667639668E+02  0.87290249933E+01  0.28097049349E+03  0.16500000000E+03 0.  0.
   -5000001    1    1    2    0    0  0.21531984693E+03 -0.72667639668E+02 -0.22690092223E+03  0.36104328113E+03  0.16500000000E+03 0.  0.
<mgrwt>
<rscale>  0 0.60380685E+03</rscale>
<asrwt>0</asrwt>
<pdfrwt beam="1">  1        1 0.61441833E-01 0.60380685E+03</pdfrwt>
<pdfrwt beam="2">  1       -1 0.30274420E-01 0.60380685E+03</pdfrwt>
<totfact> 0.60861694E+02</totfact>
</mgrwt>
</event>
<event>
 4    1  0.2559694E-005  0.5175386E+03  0.7818608E-02  0.1009300E+00
         -1   -1    0    0    0  501 -0.00000000000E+00  0.00000000000E+00  0.25177277265E+02  0.25177277770E+02  0.50400000000E-02 0. -1.
          1   -1    0    0  501    0  0.00000000000E+00 -0.00000000000E+00 -0.26596024928E+04  0.26596024928E+04  0.50400000000E-02 0.  1.
    5000001    1    1    2    0    0  0.27924376536E+02 -0.12586953449E+03 -0.21058912681E+04  0.21162764336E+04  0.16500000000E+03 0.  0.
   -5000001    1    1    2    0    0 -0.27924376536E+02  0.12586953449E+03 -0.52853394747E+03  0.56850333697E+03  0.16500000000E+03 0.  0.
<mgrwt>
<rscale>  0 0.51753860E+03</rscale>
<asrwt>0</asrwt>
<pdfrwt beam="1">  1        1 0.37994303E+00 0.51753860E+03</pdfrwt>
<pdfrwt beam="2">  1       -1 0.35967556E-02 0.51753860E+03</pdfrwt>
<totfact> 0.46382895E+02</totfact>
</mgrwt>
</event>
<event>
 4    1  0.2559694E-005  0.4137484E+03  0.7818608E-02  0.1039120E+00
         -1   -1    0    0    0  501 -0.00000000000E+00  0.00000000000E+00  0.19666636218E+02  0.19666636863E+02  0.50400000000E-02 0. -1.
          1   -1    0    0  501    0  0.00000000000E+00 -0.00000000000E+00 -0.21761181549E+04  0.21761181549E+04  0.50400000000E-02 0.  1.
    5000001    1    1    2    0    0  0.69857538148E+02  0.46350343242E+02 -0.15687622015E+04  0.15796418186E+04  0.16500000000E+03 0.  0.
   -5000001    1    1    2    0    0 -0.69857538148E+02 -0.46350343242E+02 -0.58768931714E+03  0.61614297321E+03  0.16500000000E+03 0.  0.
<mgrwt>
<rscale>  0 0.41374835E+03</rscale>
<asrwt>0</asrwt>
<pdfrwt beam="1">  1        1 0.31087387E+00 0.41374835E+03</pdfrwt>
<pdfrwt beam="2">  1       -1 0.28095209E-02 0.41374835E+03</pdfrwt>
<totfact> 0.13471072E+03</totfact>
</mgrwt>
</event>
<event>
 4    1  0.2559694E-005  0.3887936E+03  0.7818608E-02  0.1047731E+00
          1   -1    0    0  501    0  0.00000000000E+00  0.00000000000E+00  0.12737730560E+04  0.12737730560E+04  0.50400000000E-02 0.  1.
         -1   -1    0    0    0  501 -0.00000000000E+00 -0.00000000000E+00 -0.29667855521E+02  0.29667855949E+02  0.50400000000E-02 0. -1.
    5000001    1    1    2    0    0  0.10530518646E+02  0.10187170169E+03  0.65135219718E+03  0.67968626601E+03  0.16500000000E+03 0.  0.
   -5000001    1    1    2    0    0 -0.10530518646E+02 -0.10187170169E+03  0.59275300331E+03  0.62375464597E+03  0.16500000000E+03 0.  0.
<mgrwt>
<rscale>  0 0.38879360E+03</rscale>
<asrwt>0</asrwt>
<pdfrwt beam="1">  1        1 0.18196759E+00 0.38879360E+03</pdfrwt>
<pdfrwt beam="2">  1       -1 0.42382650E-02 0.38879360E+03</pdfrwt>
<totfact> 0.26610789E+03</totfact>
</mgrwt>
</event>
<event>
 4    1  0.2559694E-005  0.5002027E+03  0.7818608E-02  0.1013726E+00
         -1   -1    0    0    0  501 -0.00000000000E+00  0.00000000000E+00  0.94950272471E+02  0.94950272605E+02  0.50400000000E-02 0. -1.
          1   -1    0    0  501    0  0.00000000000E+00 -0.00000000000E+00 -0.65877302392E+03  0.65877302394E+03  0.50400000000E-02 0.  1.
    5000001    1    1    2    0    0 -0.17053686503E+03 -0.28682252109E+02 -0.17097525961E+03  0.29387588081E+03  0.16500000000E+03 0.  0.
   -5000001    1    1    2    0    0  0.17053686503E+03  0.28682252109E+02 -0.39284749183E+03  0.45984741574E+03  0.16500000000E+03 0.  0.
<mgrwt>
<rscale>  0 0.50020267E+03</rscale>
<asrwt>0</asrwt>
<pdfrwt beam="1">  1        1 0.94110430E-01 0.50020267E+03</pdfrwt>
<pdfrwt beam="2">  1       -1 0.13564325E-01 0.50020267E+03</pdfrwt>
<totfact> 0.12938128E+03</totfact>
</mgrwt>
</event>
<event>
 4    1  0.2559694E-005  0.4058078E+03  0.7818608E-02  0.1041787E+00
          1   -1    0    0  501    0  0.00000000000E+00  0.00000000000E+00  0.60026690937E+03  0.60026690939E+03  0.50400000000E-02 0.  1.
         -1   -1    0    0    0  501 -0.00000000000E+00 -0.00000000000E+00 -0.68586160273E+02  0.68586160458E+02  0.50400000000E-02 0. -1.
    5000001    1    1    2    0    0  0.26527145986E+02  0.29650913521E+02  0.44909588699E+03  0.48009892924E+03  0.16500000000E+03 0.  0.
   -5000001    1    1    2    0    0 -0.26527145986E+02 -0.29650913521E+02  0.82584862104E+02  0.18875414061E+03  0.16500000000E+03 0.  0.
<mgrwt>
<rscale>  0 0.40580785E+03</rscale>
<asrwt>0</asrwt>
<pdfrwt beam="1">  1        1 0.85752421E-01 0.40580785E+03</pdfrwt>
<pdfrwt beam="2">  1       -1 0.97980223E-02 0.40580785E+03</pdfrwt>
<totfact> 0.24635074E+03</totfact>
</mgrwt>
</event>
<event>
 4    1  0.2559694E-005  0.3456763E+03  0.7818608E-02  0.1064404E+00
          1   -1    0    0  501    0  0.00000000000E+00  0.00000000000E+00  0.34978421267E+03  0.34978421270E+03  0.50400000000E-02 0.  1.
         -1   -1    0    0    0  501 -0.00000000000E+00 -0.00000000000E+00 -0.85404161628E+02  0.85404161777E+02  0.50400000000E-02 0. -1.
    5000001    1    1    2    0    0 -0.13809532539E+02  0.42650864081E+02  0.10038500913E+03  0.19827241224E+03  0.16500000000E+03 0.  0.
   -5000001    1    1    2    0    0  0.13809532539E+02 -0.42650864081E+02  0.16399504191E+03  0.23691596224E+03  0.16500000000E+03 0.  0.
<mgrwt>
<rscale>  0 0.34567631E+03</rscale>
<asrwt>0</asrwt>
<pdfrwt beam="1">  1        1 0.49969175E-01 0.34567631E+03</pdfrwt>
<pdfrwt beam="2">  1       -1 0.12200594E-01 0.34567631E+03</pdfrwt>
<totfact> 0.35439389E+03</totfact>
</mgrwt>
</event>
<event>
 4    1  0.2559694E-005  0.1073106E+04  0.7818608E-02  0.9231808E-01
         -1   -1    0    0    0  501 -0.00000000000E+00  0.00000000000E+00  0.45634674310E+03  0.45634674313E+03  0.50400000000E-02 0. -1.
          1   -1    0    0  501    0  0.00000000000E+00 -0.00000000000E+00 -0.63085616397E+03  0.63085616399E+03  0.50400000000E-02 0.  1.
    5000001    1    1    2    0    0  0.50889793590E+03 -0.40886090462E+02 -0.91227221301E+02  0.54423909035E+03  0.16500000000E+03 0.  0.
   -5000001    1    1    2    0    0 -0.50889793590E+03  0.40886090462E+02 -0.83282199572E+02  0.54296381677E+03  0.16500000000E+03 0.  0.
<mgrwt>
<rscale>  0 0.10731061E+04</rscale>
<asrwt>0</asrwt>
<pdfrwt beam="1">  1        1 0.90122309E-01 0.10731061E+04</pdfrwt>
<pdfrwt beam="2">  1       -1 0.65192392E-01 0.10731061E+04</pdfrwt>
<totfact> 0.84494081E+01</totfact>
</mgrwt>
</event>
<event>
 4    1  0.2559694E-005  0.4283842E+03  0.7818608E-02  0.1034372E+00
          1   -1    0    0  501    0  0.00000000000E+00  0.00000000000E+00  0.57326328480E+02  0.57326328702E+02  0.50400000000E-02 0.  1.
         -1   -1    0    0    0  501 -0.00000000000E+00 -0.00000000000E+00 -0.80029991889E+03  0.80029991891E+03  0.50400000000E-02 0. -1.
    5000001    1    1    2    0    0 -0.14200516462E+02  0.84355841435E+02 -0.58463842841E+03  0.61346935916E+03  0.16500000000E+03 0.  0.
   -5000001    1    1    2    0    0  0.14200516462E+02 -0.84355841435E+02 -0.15833516200E+03  0.24415688845E+03  0.16500000000E+03 0.  0.
<mgrwt>
<rscale>  0 0.42838420E+03</rscale>
<asrwt>0</asrwt>
<pdfrwt beam="1">  1        1 0.81894760E-02 0.42838420E+03</pdfrwt>
<pdfrwt beam="2">  1       -1 0.11432855E+00 0.42838420E+03</pdfrwt>
<totfact> 0.62524755E+02</totfact>
</mgrwt>
</event>
<event>
 4    1  0.2559694E-005  0.3918399E+03  0.7818608E-02  0.1046642E+00
          1   -1    0    0  501    0  0.00000000000E+00  0.00000000000E+00  0.96286172034E+03  0.96286172035E+03  0.50400000000E-02 0. -1.
         -1   -1    0    0    0  501 -0.00000000000E+00 -0.00000000000E+00 -0.39865158614E+02  0.39865158932E+02  0.50400000000E-02 0.  1.
    5000001    1    1    2    0    0  0.96601481373E+01  0.10349274723E+03  0.41324405024E+03  0.45694607149E+03  0.16500000000E+03 0.  0.
   -5000001    1    1    2    0    0 -0.96601481373E+01 -0.10349274723E+03  0.50975251148E+03  0.54578080779E+03  0.16500000000E+03 0.  0.
<mgrwt>
<rscale>  0 0.39183994E+03</rscale>
<asrwt>0</asrwt>
<pdfrwt beam="1">  1        1 0.13755167E+00 0.39183994E+03</pdfrwt>
<pdfrwt beam="2">  1       -1 0.56950227E-02 0.39183994E+03</pdfrwt>
<totfact> 0.28017624E+03</totfact>
</mgrwt>
</event>
<event>
 4    1  0.2559694E-005  0.5833096E+03  0.7818608E-02  0.9940651E-01
          1   -1    0    0  501    0  0.00000000000E+00  0.00000000000E+00  0.26921480773E+04  0.26921480774E+04  0.50400000000E-02 0.  1.
         -1   -1    0    0    0  501 -0.00000000000E+00 -0.00000000000E+00 -0.31596528553E+02  0.31596528955E+02  0.50400000000E-02 0. -1.
    5000001    1    1    2    0    0 -0.87603245226E+02  0.22174967198E+03  0.14772185058E+04  0.15054058455E+04  0.16500000000E+03 0.  0.
   -5000001    1    1    2    0    0  0.87603245226E+02 -0.22174967198E+03  0.11833330430E+04  0.12183387609E+04  0.16500000000E+03 0.  0.
<mgrwt>
<rscale>  0 0.58330964E+03</rscale>
<asrwt>0</asrwt>
<pdfrwt beam="1">  1        1 0.38459252E+00 0.58330964E+03</pdfrwt>
<pdfrwt beam="2">  1       -1 0.45137905E-02 0.58330964E+03</pdfrwt>
<totfact> 0.31160495E+02</totfact>
</mgrwt>
</event>
<event>
 4    1  0.2559694E-005  0.4697129E+03  0.7818608E-02  0.1022001E+00
          1   -1    0    0  501    0  0.00000000000E+00  0.00000000000E+00  0.60356171020E+03  0.60356171022E+03  0.50400000000E-02 0. -1.
         -1   -1    0    0    0  501 -0.00000000000E+00 -0.00000000000E+00 -0.91386746497E+02  0.91386746636E+02  0.50400000000E-02 0.  1.
    5000001    1    1    2    0    0 -0.18597867920E+02  0.16299162445E+03  0.30334853582E+03  0.38230548586E+03  0.16500000000E+03 0.  0.
   -5000001    1    1    2    0    0  0.18597867920E+02 -0.16299162445E+03  0.20882642788E+03  0.31264297100E+03  0.16500000000E+03 0.  0.
<mgrwt>
<rscale>  0 0.46971285E+03</rscale>
<asrwt>0</asrwt>
<pdfrwt beam="1">  1        1 0.86223101E-01 0.46971285E+03</pdfrwt>
<pdfrwt beam="2">  1       -1 0.13055250E-01 0.46971285E+03</pdfrwt>
<totfact> 0.15560646E+03</totfact>
</mgrwt>
</event>
<event>
 4    1  0.2559694E-005  0.3660066E+03  0.7818608E-02  0.1056231E+00
          1   -1    0    0  501    0  0.00000000000E+00  0.00000000000E+00  0.10583113307E+03  0.10583113319E+03  0.50400000000E-02 0.  1.
         -1   -1    0    0    0  501 -0.00000000000E+00 -0.00000000000E+00 -0.31644943109E+03  0.31644943113E+03  0.50400000000E-02 0. -1.
    5000001    1    1    2    0    0  0.15953084192E+02 -0.74235165052E+02 -0.79514580548E+02  0.19827488279E+03  0.16500000000E+03 0.  0.
   -5000001    1    1    2    0    0 -0.15953084192E+02  0.74235165052E+02 -0.13110371747E+03  0.22400568154E+03  0.16500000000E+03 0.  0.
<mgrwt>
<rscale>  0 0.36600657E+03</rscale>
<asrwt>0</asrwt>
<pdfrwt beam="1">  1        1 0.15118733E-01 0.36600657E+03</pdfrwt>
<pdfrwt beam="2">  1       -1 0.45207061E-01 0.36600657E+03</pdfrwt>
<totfact> 0.18330216E+03</totfact>
</mgrwt>
</event>
<event>
 4    1  0.2559694E-005  0.6426428E+03  0.7818608E-02  0.9820683E-01
         -1   -1    0    0    0  501 -0.00000000000E+00  0.00000000000E+00  0.48061648199E+02  0.48061648463E+02  0.50400000000E-02 0. -1.
          1   -1    0    0  501    0  0.00000000000E+00 -0.00000000000E+00 -0.21482291789E+04  0.21482291789E+04  0.50400000000E-02 0.  1.
    5000001    1    1    2    0    0 -0.27220800931E+03  0.35648926293E+01 -0.90062411841E+03  0.95522704707E+03  0.16500000000E+03 0.  0.
   -5000001    1    1    2    0    0  0.27220800931E+03 -0.35648926293E+01 -0.11995434122E+04  0.12410637803E+04  0.16500000000E+03 0.  0.
<mgrwt>
<rscale>  0 0.64264278E+03</rscale>
<asrwt>0</asrwt>
<pdfrwt beam="1">  1        1 0.30688982E+00 0.64264278E+03</pdfrwt>
<pdfrwt beam="2">  1       -1 0.68659511E-02 0.64264278E+03</pdfrwt>
<totfact> 0.35478528E+02</totfact>
</mgrwt>
</event>
<event>
 4    1  0.2559694E-005  0.4187664E+03  0.7818608E-02  0.1037469E+00
          1   -1    0    0  501    0  0.00000000000E+00  0.00000000000E+00  0.70749897669E+03  0.70749897671E+03  0.50400000000E-02 0.  1.
         -1   -1    0    0    0  501 -0.00000000000E+00 -0.00000000000E+00 -0.61966624405E+02  0.61966624610E+02  0.50400000000E-02 0. -1.
    5000001    1    1    2    0    0 -0.84940974454E+02  0.35088246366E+01  0.50081046092E+03  0.53410055117E+03  0.16500000000E+03 0.  0.
   -5000001    1    1    2    0    0  0.84940974454E+02 -0.35088246366E+01  0.14472189137E+03  0.23536505015E+03  0.16500000000E+03 0.  0.
<mgrwt>
<rscale>  0 0.41876640E+03</rscale>
<asrwt>0</asrwt>
<pdfrwt beam="1">  1        1 0.10107128E+00 0.41876640E+03</pdfrwt>
<pdfrwt beam="2">  1       -1 0.88523750E-02 0.41876640E+03</pdfrwt>
<totfact> 0.22871161E+03</totfact>
</mgrwt>
</event>
<event>
 4    1  0.2559694E-005  0.4556440E+03  0.7818608E-02  0.1026052E+00
         -1   -1    0    0    0  501 -0.00000000000E+00  0.00000000000E+00  0.94221517700E+03  0.94221517701E+03  0.50400000000E-02 0.  1.
          1   -1    0    0  501    0  0.00000000000E+00 -0.00000000000E+00 -0.55085988237E+02  0.55085988467E+02  0.50400000000E-02 0. -1.
    5000001    1    1    2    0    0 -0.10399711721E+03  0.10908900552E+03  0.54051618637E+03  0.58489192099E+03  0.16500000000E+03 0.  0.
   -5000001    1    1    2    0    0  0.10399711721E+03 -0.10908900552E+03  0.34661300239E+03  0.41240924448E+03  0.16500000000E+03 0.  0.
<mgrwt>
<rscale>  0 0.45564396E+03</rscale>
<asrwt>0</asrwt>
<pdfrwt beam="1">  1        1 0.78694275E-02 0.45564396E+03</pdfrwt>
<pdfrwt beam="2">  1       -1 0.13460216E+00 0.45564396E+03</pdfrwt>
<totfact> 0.44312930E+02</totfact>
</mgrwt>
</event>
<event>
 4    1  0.2559694E-005  0.3965722E+03  0.7818608E-02  0.1044973E+00
         -1   -1    0    0    0  501 -0.00000000000E+00  0.00000000000E+00  0.17023806587E+03  0.17023806594E+03  0.50400000000E-02 0.  1.
          1   -1    0    0  501    0  0.00000000000E+00 -0.00000000000E+00 -0.23095530548E+03  0.23095530554E+03  0.50400000000E-02 0. -1.
    5000001    1    1    2    0    0  0.17241964713E+02  0.10675887876E+03 -0.10185316512E+02  0.19754362610E+03  0.16500000000E+03 0.  0.
   -5000001    1    1    2    0    0 -0.17241964713E+02 -0.10675887876E+03 -0.50531923104E+02  0.20364974538E+03  0.16500000000E+03 0.  0.
<mgrwt>
<rscale>  0 0.39657224E+03</rscale>
<asrwt>0</asrwt>
<pdfrwt beam="1">  1        1 0.32993615E-01 0.39657224E+03</pdfrwt>
<pdfrwt beam="2">  1       -1 0.24319724E-01 0.39657224E+03</pdfrwt>
<totfact> 0.19681169E+03</totfact>
</mgrwt>
</event>
<event>
 4    1  0.2559694E-005  0.4082988E+03  0.7818608E-02  0.1040943E+00
          1   -1    0    0  501    0  0.00000000000E+00  0.00000000000E+00  0.97819751546E+03  0.97819751548E+03  0.50400000000E-02 0.  1.
         -1   -1    0    0    0  501 -0.00000000000E+00 -0.00000000000E+00 -0.42605886575E+02  0.42605886873E+02  0.50400000000E-02 0. -1.
    5000001    1    1    2    0    0  0.66667364351E+02  0.67962265369E+02  0.65132308978E+03  0.67860899955E+03  0.16500000000E+03 0.  0.
   -5000001    1    1    2    0    0 -0.66667364351E+02 -0.67962265369E+02  0.28426853911E+03  0.34219440280E+03  0.16500000000E+03 0.  0.
<mgrwt>
<rscale>  0 0.40829878E+03</rscale>
<asrwt>0</asrwt>
<pdfrwt beam="1">  1        1 0.13974250E+00 0.40829878E+03</pdfrwt>
<pdfrwt beam="2">  1       -1 0.60865555E-02 0.40829878E+03</pdfrwt>
<totfact> 0.24670131E+03</totfact>
</mgrwt>
</event>
<event>
 4    1  0.2559694E-005  0.4940827E+03  0.7818608E-02  0.1015335E+00
          1   -1    0    0  501    0  0.00000000000E+00  0.00000000000E+00  0.82882725661E+03  0.82882725663E+03  0.50400000000E-02 0.  1.
         -1   -1    0    0    0  501 -0.00000000000E+00 -0.00000000000E+00 -0.73633459629E+02  0.73633459801E+02  0.50400000000E-02 0. -1.
    5000001    1    1    2    0    0  0.23001376691E+02  0.17478283519E+03  0.28222580530E+03  0.37142227717E+03  0.16500000000E+03 0.  0.
   -5000001    1    1    2    0    0 -0.23001376691E+02 -0.17478283519E+03  0.47296799169E+03  0.53103843925E+03  0.16500000000E+03 0.  0.
<mgrwt>
<rscale>  0 0.49408266E+03</rscale>
<asrwt>0</asrwt>
<pdfrwt beam="1">  1        1 0.11840389E+00 0.49408266E+03</pdfrwt>
<pdfrwt beam="2">  1       -1 0.10519066E-01 0.49408266E+03</pdfrwt>
<totfact> 0.13778140E+03</totfact>
</mgrwt>
</event>
<event>
 4    1  0.2559694E-005  0.3752184E+03  0.7818608E-02  0.1052715E+00
          1   -1    0    0  501    0  0.00000000000E+00  0.00000000000E+00  0.15154646712E+03  0.15154646721E+03  0.50400000000E-02 0.  1.
         -1   -1    0    0    0  501 -0.00000000000E+00 -0.00000000000E+00 -0.23225354587E+03  0.23225354593E+03  0.50400000000E-02 0. -1.
    5000001    1    1    2    0    0 -0.62779653965E+00 -0.72120847106E+02 -0.94191877700E+02  0.20322135847E+03  0.16500000000E+03 0.  0.
   -5000001    1    1    2    0    0  0.62779653965E+00  0.72120847106E+02  0.13484798950E+02  0.18057865466E+03  0.16500000000E+03 0.  0.
<mgrwt>
<rscale>  0 0.37521836E+03</rscale>
<asrwt>0</asrwt>
<pdfrwt beam="1">  1        1 0.21649495E-01 0.37521836E+03</pdfrwt>
<pdfrwt beam="2">  1       -1 0.33179078E-01 0.37521836E+03</pdfrwt>
<totfact> 0.19880170E+03</totfact>
</mgrwt>
</event>
<event>
 4    1  0.2559694E-005  0.6942756E+03  0.7818608E-02  0.9727072E-01
          1   -1    0    0  501    0  0.00000000000E+00  0.00000000000E+00  0.15594621002E+04  0.15594621002E+04  0.50400000000E-02 0.  1.
         -1   -1    0    0    0  501 -0.00000000000E+00 -0.00000000000E+00 -0.77273225532E+02  0.77273225696E+02  0.50400000000E-02 0. -1.
    5000001    1    1    2    0    0 -0.93116932696E+02  0.23031929934E+03  0.11599152562E+04  0.11976419099E+04  0.16500000000E+03 0.  0.
   -5000001    1    1    2    0    0  0.93116932696E+02 -0.23031929934E+03  0.32227361843E+03  0.43909341596E+03  0.16500000000E+03 0.  0.
<mgrwt>
<rscale>  0 0.69427564E+03</rscale>
<asrwt>0</asrwt>
<pdfrwt beam="1">  1        1 0.22278027E+00 0.69427564E+03</pdfrwt>
<pdfrwt beam="2">  1       -1 0.11039034E-01 0.69427564E+03</pdfrwt>
<totfact> 0.39103062E+02</totfact>
</mgrwt>
</event>
<event>
 4    1  0.2559694E-005  0.4882125E+03  0.7818608E-02  0.1016902E+00
         -1   -1    0    0    0  501 -0.00000000000E+00  0.00000000000E+00  0.22513664148E+03  0.22513664154E+03  0.50400000000E-02 0.  1.
          1   -1    0    0  501    0  0.00000000000E+00 -0.00000000000E+00 -0.26467424757E+03  0.26467424761E+03  0.50400000000E-02 0. -1.
    5000001    1    1    2    0    0  0.13834151936E+03 -0.49416786548E+02 -0.12394746229E+03  0.25331476107E+03  0.16500000000E+03 0.  0.
   -5000001    1    1    2    0    0 -0.13834151936E+03  0.49416786548E+02  0.84409856203E+02  0.23649612808E+03  0.16500000000E+03 0.  0.
<mgrwt>
<rscale>  0 0.48821254E+03</rscale>
<asrwt>0</asrwt>
<pdfrwt beam="1">  1        1 0.37810607E-01 0.48821254E+03</pdfrwt>
<pdfrwt beam="2">  1       -1 0.32162377E-01 0.48821254E+03</pdfrwt>
<totfact> 0.10272766E+03</totfact>
</mgrwt>
</event>
<event>
 4    1  0.2559694E-005  0.5883461E+03  0.7818608E-02  0.9929884E-01
          1   -1    0    0  501    0  0.00000000000E+00  0.00000000000E+00  0.98094422239E+02  0.98094422369E+02  0.50400000000E-02 0.  1.
         -1   -1    0    0    0  501 -0.00000000000E+00 -0.00000000000E+00 -0.88218865990E+03  0.88218865991E+03  0.50400000000E-02 0. -1.
    5000001    1    1    2    0    0 -0.12691962583E+03  0.17676028811E+03 -0.20983211331E+03  0.34439411530E+03  0.16500000000E+03 0.  0.
   -5000001    1    1    2    0    0  0.12691962583E+03 -0.17676028811E+03 -0.57426212435E+03  0.63588896698E+03  0.16500000000E+03 0.  0.
<mgrwt>
<rscale>  0 0.58834611E+03</rscale>
<asrwt>0</asrwt>
<pdfrwt beam="1">  1        1 0.14013489E-01 0.58834611E+03</pdfrwt>
<pdfrwt beam="2">  1       -1 0.12602695E+00 0.58834611E+03</pdfrwt>
<totfact> 0.23641609E+02</totfact>
</mgrwt>
</event>
<event>
 4    1  0.2559694E-005  0.6058403E+03  0.7818608E-02  0.9893363E-01
         -1   -1    0    0    0  501 -0.00000000000E+00  0.00000000000E+00  0.35001713346E+02  0.35001713709E+02  0.50400000000E-02 0. -1.
          1   -1    0    0  501    0  0.00000000000E+00 -0.00000000000E+00 -0.26216035195E+04  0.26216035195E+04  0.50400000000E-02 0.  1.
    5000001    1    1    2    0    0 -0.39353418400E+02 -0.24833826709E+03 -0.14523153290E+04  0.14831268999E+04  0.16500000000E+03 0.  0.
   -5000001    1    1    2    0    0  0.39353418400E+02  0.24833826709E+03 -0.11342864772E+04  0.11734783333E+04  0.16500000000E+03 0.  0.
<mgrwt>
<rscale>  0 0.60584029E+03</rscale>
<asrwt>0</asrwt>
<pdfrwt beam="1">  1        1 0.37451466E+00 0.60584029E+03</pdfrwt>
<pdfrwt beam="2">  1       -1 0.50002464E-02 0.60584029E+03</pdfrwt>
<totfact> 0.29455061E+02</totfact>
</mgrwt>
</event>
<event>
 4    1  0.2559694E-005  0.5272077E+03  0.7818608E-02  0.1006912E+00
          1   -1    0    0  501    0  0.00000000000E+00  0.00000000000E+00  0.27248581571E+03  0.27248581576E+03  0.50400000000E-02 0.  1.
         -1   -1    0    0    0  501 -0.00000000000E+00 -0.00000000000E+00 -0.25501137035E+03  0.25501137040E+03  0.50400000000E-02 0. -1.
    5000001    1    1    2    0    0  0.12441875286E+03  0.10955087422E+03  0.13037931758E+03  0.26777824138E+03  0.16500000000E+03 0.  0.
   -5000001    1    1    2    0    0 -0.12441875286E+03 -0.10955087422E+03 -0.11290487222E+03  0.25971894478E+03  0.16500000000E+03 0.  0.
<mgrwt>
<rscale>  0 0.52720767E+03</rscale>
<asrwt>0</asrwt>
<pdfrwt beam="1">  1        1 0.38926545E-01 0.52720767E+03</pdfrwt>
<pdfrwt beam="2">  1       -1 0.36430196E-01 0.52720767E+03</pdfrwt>
<totfact> 0.79454446E+02</totfact>
</mgrwt>
</event>
<event>
 4    1  0.2559694E-005  0.4057381E+03  0.7818608E-02  0.1041811E+00
          1   -1    0    0  501    0  0.00000000000E+00  0.00000000000E+00  0.73626383657E+03  0.73626383659E+03  0.50400000000E-02 0.  1.
         -1   -1    0    0    0  501 -0.00000000000E+00 -0.00000000000E+00 -0.55898251400E+02  0.55898251627E+02  0.50400000000E-02 0. -1.
    5000001    1    1    2    0    0 -0.51255005923E+02 -0.44990192583E+02  0.15210633660E+03  0.23454750200E+03  0.16500000000E+03 0.  0.
   -5000001    1    1    2    0    0  0.51255005923E+02  0.44990192583E+02  0.52825924857E+03  0.55761458622E+03  0.16500000000E+03 0.  0.
<mgrwt>
<rscale>  0 0.40573815E+03</rscale>
<asrwt>0</asrwt>
<pdfrwt beam="1">  1        1 0.10518055E+00 0.40573815E+03</pdfrwt>
<pdfrwt beam="2">  1       -1 0.79854642E-02 0.40573815E+03</pdfrwt>
<totfact> 0.25306942E+03</totfact>
</mgrwt>
</event>
<event>
 4    1  0.2559694E-005  0.6632249E+03  0.7818608E-02  0.9782275E-01
          1   -1    0    0  501    0  0.00000000000E+00  0.00000000000E+00  0.64853199786E+02  0.64853199982E+02  0.50400000000E-02 0.  1.
         -1   -1    0    0    0  501 -0.00000000000E+00 -0.00000000000E+00 -0.16956265748E+04  0.16956265748E+04  0.50400000000E-02 0. -1.
    5000001    1    1    2    0    0  0.14139538008E+03 -0.14196719584E+03 -0.13632179941E+04  0.13877087726E+04  0.16500000000E+03 0.  0.
   -5000001    1    1    2    0    0 -0.14139538008E+03  0.14196719584E+03 -0.26755538095E+03  0.37277100220E+03  0.16500000000E+03 0.  0.
<mgrwt>
<rscale>  0 0.66322488E+03</rscale>
<asrwt>0</asrwt>
<pdfrwt beam="1">  1        1 0.92647439E-02 0.66322488E+03</pdfrwt>
<pdfrwt beam="2">  1       -1 0.24223234E+00 0.66322488E+03</pdfrwt>
<totfact> 0.60599533E+01</totfact>
</mgrwt>
</event>
<event>
 4    1  0.2559694E-005  0.4311045E+03  0.7818608E-02  0.1033512E+00
          1   -1    0    0  501    0  0.00000000000E+00  0.00000000000E+00  0.36658393490E+03  0.36658393493E+03  0.50400000000E-02 0.  1.
         -1   -1    0    0    0  501 -0.00000000000E+00 -0.00000000000E+00 -0.12674525372E+03  0.12674525382E+03  0.50400000000E-02 0. -1.
    5000001    1    1    2    0    0  0.14966501711E+02  0.12597527012E+03  0.55754644627E+02  0.21547005651E+03  0.16500000000E+03 0.  0.
   -5000001    1    1    2    0    0 -0.14966501711E+02 -0.12597527012E+03  0.18408403655E+03  0.27785913224E+03  0.16500000000E+03 0.  0.
<mgrwt>
<rscale>  0 0.43110451E+03</rscale>
<asrwt>0</asrwt>
<pdfrwt beam="1">  1        1 0.52369134E-01 0.43110451E+03</pdfrwt>
<pdfrwt beam="2">  1       -1 0.18106465E-01 0.43110451E+03</pdfrwt>
<totfact> 0.17794110E+03</totfact>
</mgrwt>
</event>
<event>
 4    1  0.2559694E-005  0.7500039E+03  0.7818608E-02  0.9635344E-01
          1   -1    0    0  501    0  0.00000000000E+00  0.00000000000E+00  0.21326105173E+04  0.21326105173E+04  0.50400000000E-02 0.  1.
         -1   -1    0    0    0  501 -0.00000000000E+00 -0.00000000000E+00 -0.65940991094E+02  0.65940991287E+02  0.50400000000E-02 0. -1.
    5000001    1    1    2    0    0 -0.14451022496E+03 -0.30119828913E+03  0.90904130263E+03  0.98243814278E+03  0.16500000000E+03 0.  0.
   -5000001    1    1    2    0    0  0.14451022496E+03  0.30119828913E+03  0.11576282236E+04  0.12161133658E+04  0.16500000000E+03 0.  0.
<mgrwt>
<rscale>  0 0.75000387E+03</rscale>
<asrwt>0</asrwt>
<pdfrwt beam="1">  1        1 0.30465860E+00 0.75000387E+03</pdfrwt>
<pdfrwt beam="2">  1       -1 0.94201430E-02 0.75000387E+03</pdfrwt>
<totfact> 0.21928838E+02</totfact>
</mgrwt>
</event>
<event>
 4    1  0.2559694E-005  0.3556123E+03  0.7818608E-02  0.1060335E+00
         -1   -1    0    0    0  501 -0.00000000000E+00  0.00000000000E+00  0.39584202914E+02  0.39584203235E+02  0.50400000000E-02 0.  1.
          1   -1    0    0  501    0  0.00000000000E+00 -0.00000000000E+00 -0.79867792288E+03  0.79867792289E+03  0.50400000000E-02 0. -1.
    5000001    1    1    2    0    0 -0.54502039110E+02 -0.26477973749E+02 -0.31636265778E+03  0.36191419784E+03  0.16500000000E+03 0.  0.
   -5000001    1    1    2    0    0  0.54502039110E+02  0.26477973749E+02 -0.44273106218E+03  0.47634792829E+03  0.16500000000E+03 0.  0.
<mgrwt>
<rscale>  0 0.35561231E+03</rscale>
<asrwt>0</asrwt>
<pdfrwt beam="1">  1        1 0.11409684E+00 0.35561231E+03</pdfrwt>
<pdfrwt beam="2">  1       -1 0.56548866E-02 0.35561231E+03</pdfrwt>
<totfact> 0.37960355E+03</totfact>
</mgrwt>
</event>
<event>
 4    1  0.2559694E-005  0.5248670E+03  0.7818608E-02  0.1007485E+00
          1   -1    0    0  501    0  0.00000000000E+00  0.00000000000E+00  0.12272920671E+04  0.12272920671E+04  0.50400000000E-02 0.  1.
         -1   -1    0    0    0  501 -0.00000000000E+00 -0.00000000000E+00 -0.56116499341E+02  0.56116499567E+02  0.50400000000E-02 0. -1.
    5000001    1    1    2    0    0  0.18595844962E+03  0.73394081817E+02  0.48539100459E+03  0.55026962807E+03  0.16500000000E+03 0.  0.
   -5000001    1    1    2    0    0 -0.18595844962E+03 -0.73394081817E+02  0.68578456313E+03  0.73313893858E+03  0.16500000000E+03 0.  0.
<mgrwt>
<rscale>  0 0.52486697E+03</rscale>
<asrwt>0</asrwt>
<pdfrwt beam="1">  1        1 0.17532742E+00 0.52486697E+03</pdfrwt>
<pdfrwt beam="2">  1       -1 0.80166437E-02 0.52486697E+03</pdfrwt>
<totfact> 0.10760163E+03</totfact>
</mgrwt>
</event>
<event>
 4    1  0.2559694E-005  0.2011959E+04  0.7818608E-02  0.8601050E-01
          1   -1    0    0  501    0  0.00000000000E+00  0.00000000000E+00  0.14860420386E+04  0.14860420386E+04  0.50400000000E-02 0.  1.
         -1   -1    0    0    0  501 -0.00000000000E+00 -0.00000000000E+00 -0.68099990732E+03  0.68099990734E+03  0.50400000000E-02 0. -1.
    5000001    1    1    2    0    0  0.60136447772E+03  0.68641920468E+03  0.82238769897E+03  0.12394987241E+04  0.16500000000E+03 0.  0.
   -5000001    1    1    2    0    0 -0.60136447772E+03 -0.68641920468E+03 -0.17345567725E+02  0.92754322182E+03  0.16500000000E+03 0.  0.
<mgrwt>
<rscale>  0 0.20119587E+04</rscale>
<asrwt>0</asrwt>
<pdfrwt beam="1">  1        1 0.21229172E+00 0.20119587E+04</pdfrwt>
<pdfrwt beam="2">  1       -1 0.97285700E-01 0.20119587E+04</pdfrwt>
<totfact> 0.74970628E+00</totfact>
</mgrwt>
</event>
<event>
 4    1  0.2559694E-005  0.5661519E+03  0.7818608E-02  0.9978230E-01
          1   -1    0    0  501    0  0.00000000000E+00  0.00000000000E+00  0.29383180434E+03  0.29383180439E+03  0.50400000000E-02 0.  1.
         -1   -1    0    0    0  501 -0.00000000000E+00 -0.00000000000E+00 -0.27271385624E+03  0.27271385629E+03  0.50400000000E-02 0. -1.
    5000001    1    1    2    0    0 -0.19077629733E+03  0.10183744956E+03  0.88975084527E+02  0.28619578513E+03  0.16500000000E+03 0.  0.
   -5000001    1    1    2    0    0  0.19077629733E+03 -0.10183744956E+03 -0.67857136426E+02  0.28034987555E+03  0.16500000000E+03 0.  0.
<mgrwt>
<rscale>  0 0.56615194E+03</rscale>
<asrwt>0</asrwt>
<pdfrwt beam="1">  1        1 0.41975972E-01 0.56615194E+03</pdfrwt>
<pdfrwt beam="2">  1       -1 0.38959122E-01 0.56615194E+03</pdfrwt>
<totfact> 0.63929700E+02</totfact>
</mgrwt>
</event>
<event>
 4    1  0.2559694E-005  0.5730207E+03  0.7818608E-02  0.9963016E-01
          1   -1    0    0  501    0  0.00000000000E+00  0.00000000000E+00  0.60475407430E+03  0.60475407432E+03  0.50400000000E-02 0. -1.
         -1   -1    0    0    0  501 -0.00000000000E+00 -0.00000000000E+00 -0.13573810434E+03  0.13573810443E+03  0.50400000000E-02 0.  1.
    5000001    1    1    2    0    0 -0.14008456232E+03 -0.18733776193E+03  0.21899816101E+03  0.36042241352E+03  0.16500000000E+03 0.  0.
   -5000001    1    1    2    0    0  0.14008456232E+03  0.18733776193E+03  0.25001780895E+03  0.38006976522E+03  0.16500000000E+03 0.  0.
<mgrwt>
<rscale>  0 0.57302067E+03</rscale>
<asrwt>0</asrwt>
<pdfrwt beam="1">  1        1 0.86393440E-01 0.57302067E+03</pdfrwt>
<pdfrwt beam="2">  1       -1 0.19391158E-01 0.57302067E+03</pdfrwt>
<totfact> 0.81597658E+02</totfact>
</mgrwt>
</event>
<event>
 4    1  0.2559694E-005  0.1281164E+04  0.7818608E-02  0.9044637E-01
          1   -1    0    0  501    0  0.00000000000E+00  0.00000000000E+00  0.39548748154E+04  0.39548748154E+04  0.50400000000E-02 0.  1.
         -1   -1    0    0    0  501 -0.00000000000E+00 -0.00000000000E+00 -0.10375684124E+03  0.10375684136E+03  0.50400000000E-02 0. -1.
    5000001    1    1    2    0    0  0.33760223921E+03 -0.79837743959E+02  0.30164283045E+03  0.48842884276E+03  0.16500000000E+03 0.  0.
   -5000001    1    1    2    0    0 -0.33760223921E+03  0.79837743959E+02  0.35494751437E+04  0.35702028140E+04  0.16500000000E+03 0.  0.
<mgrwt>
<rscale>  0 0.12811640E+04</rscale>
<asrwt>0</asrwt>
<pdfrwt beam="1">  1        1 0.56498214E+00 0.12811640E+04</pdfrwt>
<pdfrwt beam="2">  1       -1 0.14822405E-01 0.12811640E+04</pdfrwt>
<totfact> 0.61428082E+00</totfact>
</mgrwt>
</event>
<event>
 4    1  0.2559694E-005  0.6809933E+03  0.7818608E-02  0.9750300E-01
         -1   -1    0    0    0  501 -0.00000000000E+00  0.00000000000E+00  0.10758931937E+03  0.10758931948E+03  0.50400000000E-02 0. -1.
          1   -1    0    0  501    0  0.00000000000E+00 -0.00000000000E+00 -0.10775972443E+04  0.10775972443E+04  0.50400000000E-02 0.  1.
    5000001    1    1    2    0    0 -0.10224225123E+03  0.27835366374E+03 -0.43643789683E+03  0.55284471404E+03  0.16500000000E+03 0.  0.
   -5000001    1    1    2    0    0  0.10224225123E+03 -0.27835366374E+03 -0.53357002811E+03  0.63234184976E+03  0.16500000000E+03 0.  0.
<mgrwt>
<rscale>  0 0.68099326E+03</rscale>
<asrwt>0</asrwt>
<pdfrwt beam="1">  1        1 0.15394246E+00 0.68099326E+03</pdfrwt>
<pdfrwt beam="2">  1       -1 0.15369903E-01 0.68099326E+03</pdfrwt>
<totfact> 0.48344536E+02</totfact>
</mgrwt>
</event>
<event>
 4    1  0.2559694E-005  0.4251039E+03  0.7818608E-02  0.1035418E+00
         -1   -1    0    0    0  501 -0.00000000000E+00  0.00000000000E+00  0.59890239114E+02  0.59890239326E+02  0.50400000000E-02 0. -1.
          1   -1    0    0  501    0  0.00000000000E+00 -0.00000000000E+00 -0.75435210076E+03  0.75435210078E+03  0.50400000000E-02 0.  1.
    5000001    1    1    2    0    0  0.48204017252E+02  0.81331061399E+02 -0.16536954889E+03  0.25201281025E+03  0.16500000000E+03 0.  0.
   -5000001    1    1    2    0    0 -0.48204017252E+02 -0.81331061399E+02 -0.52909231276E+03  0.56222952986E+03  0.16500000000E+03 0.  0.
<mgrwt>
<rscale>  0 0.42510388E+03</rscale>
<asrwt>0</asrwt>
<pdfrwt beam="1">  1        1 0.10776458E+00 0.42510388E+03</pdfrwt>
<pdfrwt beam="2">  1       -1 0.85557489E-02 0.42510388E+03</pdfrwt>
<totfact> 0.21949106E+03</totfact>
</mgrwt>
</event>
<event>
 4    1  0.2559694E-005  0.5557963E+03  0.7818608E-02  0.1000161E+00
          1   -1    0    0  501    0  0.00000000000E+00  0.00000000000E+00  0.23002806434E+04  0.23002806434E+04  0.50400000000E-02 0.  1.
         -1   -1    0    0    0  501 -0.00000000000E+00 -0.00000000000E+00 -0.33573023322E+02  0.33573023700E+02  0.50400000000E-02 0. -1.
    5000001    1    1    2    0    0  0.53948295552E+02 -0.16848095892E+03  0.55903916425E+03  0.60913548515E+03  0.16500000000E+03 0.  0.
   -5000001    1    1    2    0    0 -0.53948295552E+02  0.16848095892E+03  0.17076684558E+04  0.17247181819E+04  0.16500000000E+03 0.  0.
<mgrwt>
<rscale>  0 0.55579628E+03</rscale>
<asrwt>0</asrwt>
<pdfrwt beam="1">  1        1 0.32861160E+00 0.55579628E+03</pdfrwt>
<pdfrwt beam="2">  1       -1 0.47961450E-02 0.55579628E+03</pdfrwt>
<totfact> 0.49960984E+02</totfact>
</mgrwt>
</event>
<event>
 4    1  0.2559694E-005  0.3528969E+03  0.7818608E-02  0.1061432E+00
         -1   -1    0    0    0  501 -0.00000000000E+00  0.00000000000E+00  0.49437302446E+03  0.49437302449E+03  0.50400000000E-02 0. -1.
          1   -1    0    0  501    0  0.00000000000E+00 -0.00000000000E+00 -0.62976854415E+02  0.62976854617E+02  0.50400000000E-02 0.  1.
    5000001    1    1    2    0    0 -0.52498598095E+02 -0.33870099799E+02  0.21949235096E+03  0.28161175151E+03  0.16500000000E+03 0.  0.
   -5000001    1    1    2    0    0  0.52498598095E+02  0.33870099799E+02  0.21190381909E+03  0.27573812759E+03  0.16500000000E+03 0.  0.
<mgrwt>
<rscale>  0 0.35289691E+03</rscale>
<asrwt>0</asrwt>
<pdfrwt beam="1">  1        1 0.89966934E-02 0.35289691E+03</pdfrwt>
<pdfrwt beam="2">  1       -1 0.70624718E-01 0.35289691E+03</pdfrwt>
<totfact> 0.15662450E+03</totfact>
</mgrwt>
</event>
<event>
 4    1  0.2559694E-005  0.7859022E+03  0.7818608E-02  0.9580650E-01
          1   -1    0    0  501    0  0.00000000000E+00  0.00000000000E+00  0.11826997050E+04  0.11826997050E+04  0.50400000000E-02 0.  1.
         -1   -1    0    0    0  501 -0.00000000000E+00 -0.00000000000E+00 -0.13055769952E+03  0.13055769962E+03  0.50400000000E-02 0. -1.
    5000001    1    1    2    0    0  0.14334934940E+03 -0.22163830352E+03  0.12532951499E+03  0.33556677560E+03  0.16500000000E+03 0.  0.
   -5000001    1    1    2    0    0 -0.14334934940E+03  0.22163830352E+03  0.92681249045E+03  0.97769062899E+03  0.16500000000E+03 0.  0.
<mgrwt>
<rscale>  0 0.78590216E+03</rscale>
<asrwt>0</asrwt>
<pdfrwt beam="1">  1        1 0.16895709E+00 0.78590216E+03</pdfrwt>
<pdfrwt beam="2">  1       -1 0.18651101E-01 0.78590216E+03</pdfrwt>
<totfact> 0.29511920E+02</totfact>
</mgrwt>
</event>
<event>
 4    1  0.2559694E-005  0.3948676E+03  0.7818608E-02  0.1045571E+00
          1   -1    0    0  501    0  0.00000000000E+00  0.00000000000E+00  0.18630298079E+04  0.18630298079E+04  0.50400000000E-02 0.  1.
         -1   -1    0    0    0  501 -0.00000000000E+00 -0.00000000000E+00 -0.20922958522E+02  0.20922959129E+02  0.50400000000E-02 0. -1.
    5000001    1    1    2    0    0 -0.96537096642E+02  0.33600244349E+02  0.74858566379E+03  0.77333943614E+03  0.16500000000E+03 0.  0.
   -5000001    1    1    2    0    0  0.96537096642E+02 -0.33600244349E+02  0.10935211856E+04  0.11106133309E+04  0.16500000000E+03 0.  0.
<mgrwt>
<rscale>  0 0.39486755E+03</rscale>
<asrwt>0</asrwt>
<pdfrwt beam="1">  1        1 0.26614714E+00 0.39486755E+03</pdfrwt>
<pdfrwt beam="2">  1       -1 0.29889938E-02 0.39486755E+03</pdfrwt>
<totfact> 0.19095247E+03</totfact>
</mgrwt>
</event>
<event>
 4    1  0.2559694E-005  0.6955872E+03  0.7818608E-02  0.9724809E-01
         -1   -1    0    0    0  501 -0.00000000000E+00  0.00000000000E+00  0.15734306388E+03  0.15734306396E+03  0.50400000000E-02 0.  1.
          1   -1    0    0  501    0  0.00000000000E+00 -0.00000000000E+00 -0.76876846369E+03  0.76876846371E+03  0.50400000000E-02 0. -1.
    5000001    1    1    2    0    0  0.25529147972E+03 -0.79033020332E+02 -0.10682207154E+03  0.33174676018E+03  0.16500000000E+03 0.  0.
   -5000001    1    1    2    0    0 -0.25529147972E+03  0.79033020332E+02 -0.50460332828E+03  0.59436476749E+03  0.16500000000E+03 0.  0.
<mgrwt>
<rscale>  0 0.69558719E+03</rscale>
<asrwt>0</asrwt>
<pdfrwt beam="1">  1        1 0.10982406E+00 0.69558719E+03</pdfrwt>
<pdfrwt beam="2">  1       -1 0.22477581E-01 0.69558719E+03</pdfrwt>
<totfact> 0.44803435E+02</totfact>
</mgrwt>
</event>
<event>
 4    1  0.2559694E-005  0.5103811E+03  0.7818608E-02  0.1011104E+00
         -1   -1    0    0    0  501 -0.00000000000E+00  0.00000000000E+00  0.34783211370E+03  0.34783211374E+03  0.50400000000E-02 0. -1.
          1   -1    0    0  501    0  0.00000000000E+00 -0.00000000000E+00 -0.18722315798E+03  0.18722315804E+03  0.50400000000E-02 0.  1.
    5000001    1    1    2    0    0  0.13897149128E+03 -0.11966734501E+03  0.14875967302E+03  0.28807601283E+03  0.16500000000E+03 0.  0.
   -5000001    1    1    2    0    0 -0.13897149128E+03  0.11966734501E+03  0.11849282707E+02  0.24697925895E+03  0.16500000000E+03 0.  0.
<mgrwt>
<rscale>  0 0.51038114E+03</rscale>
<asrwt>0</asrwt>
<pdfrwt beam="1">  1        1 0.26746165E-01 0.51038114E+03</pdfrwt>
<pdfrwt beam="2">  1       -1 0.49690302E-01 0.51038114E+03</pdfrwt>
<totfact> 0.73065913E+02</totfact>
</mgrwt>
</event>
<event>
 4    1  0.2559694E-005  0.4201080E+03  0.7818608E-02  0.1037031E+00
         -1   -1    0    0    0  501 -0.00000000000E+00  0.00000000000E+00  0.54133355209E+03  0.54133355211E+03  0.50400000000E-02 0.  1.
          1   -1    0    0  501    0  0.00000000000E+00 -0.00000000000E+00 -0.81507379534E+02  0.81507379690E+02  0.50400000000E-02 0. -1.
    5000001    1    1    2    0    0  0.10047339699E+03  0.39992312920E+02  0.12296834560E+03  0.23246613219E+03  0.16500000000E+03 0.  0.
   -5000001    1    1    2    0    0 -0.10047339699E+03 -0.39992312920E+02  0.33685782695E+03  0.39037479961E+03  0.16500000000E+03 0.  0.
<mgrwt>
<rscale>  0 0.42010798E+03</rscale>
<asrwt>0</asrwt>
<pdfrwt beam="1">  1        1 0.11643911E-01 0.42010798E+03</pdfrwt>
<pdfrwt beam="2">  1       -1 0.77333367E-01 0.42010798E+03</pdfrwt>
<totfact> 0.91784416E+02</totfact>
</mgrwt>
</event>
<event>
 4    1  0.2559694E-005  0.3799743E+03  0.7818608E-02  0.1050943E+00
         -1   -1    0    0    0  501 -0.00000000000E+00  0.00000000000E+00  0.20934264184E+02  0.20934264790E+02  0.50400000000E-02 0. -1.
          1   -1    0    0  501    0  0.00000000000E+00 -0.00000000000E+00 -0.17242122754E+04  0.17242122754E+04  0.50400000000E-02 0.  1.
    5000001    1    1    2    0    0 -0.89510693756E+02  0.28599945990E+02 -0.82259353523E+03  0.84422464156E+03  0.16500000000E+03 0.  0.
   -5000001    1    1    2    0    0  0.89510693756E+02 -0.28599945990E+02 -0.88068447594E+03  0.90092189859E+03  0.16500000000E+03 0.  0.
<mgrwt>
<rscale>  0 0.37997429E+03</rscale>
<asrwt>0</asrwt>
<pdfrwt beam="1">  1        1 0.24631595E+00 0.37997429E+03</pdfrwt>
<pdfrwt beam="2">  1       -1 0.29906103E-02 0.37997429E+03</pdfrwt>
<totfact> 0.23229788E+03</totfact>
</mgrwt>
</event>
<event>
 4    1  0.2559694E-005  0.4604866E+03  0.7818608E-02  0.1024640E+00
         -1   -1    0    0    0  501 -0.00000000000E+00  0.00000000000E+00  0.22889944087E+04  0.22889944087E+04  0.50400000000E-02 0. -1.
          1   -1    0    0  501    0  0.00000000000E+00 -0.00000000000E+00 -0.23159502140E+02  0.23159502688E+02  0.50400000000E-02 0.  1.
    5000001    1    1    2    0    0  0.15313872656E+03  0.44535584985E+02  0.12271330255E+04  0.12484051226E+04  0.16500000000E+03 0.  0.
   -5000001    1    1    2    0    0 -0.15313872656E+03 -0.44535584985E+02  0.10387018810E+04  0.10637487887E+04  0.16500000000E+03 0.  0.
<mgrwt>
<rscale>  0 0.46048658E+03</rscale>
<asrwt>0</asrwt>
<pdfrwt beam="1">  1        1 0.33084993E-02 0.46048658E+03</pdfrwt>
<pdfrwt beam="2">  1       -1 0.32699930E+00 0.46048658E+03</pdfrwt>
<totfact> 0.75801078E+01</totfact>
</mgrwt>
</event>
<event>
 4    1  0.2559694E-005  0.6166313E+03  0.7818608E-02  0.9871490E-01
         -1   -1    0    0    0  501 -0.00000000000E+00  0.00000000000E+00  0.45774739612E+02  0.45774739889E+02  0.50400000000E-02 0. -1.
          1   -1    0    0  501    0  0.00000000000E+00 -0.00000000000E+00 -0.20766594296E+04  0.20766594296E+04  0.50400000000E-02 0.  1.
    5000001    1    1    2    0    0  0.47818908338E+02  0.25602117942E+03 -0.10146525845E+04  0.10604613899E+04  0.16500000000E+03 0.  0.
   -5000001    1    1    2    0    0 -0.47818908338E+02 -0.25602117942E+03 -0.10162321055E+04  0.10619727796E+04  0.16500000000E+03 0.  0.
<mgrwt>
<rscale>  0 0.61663132E+03</rscale>
<asrwt>0</asrwt>
<pdfrwt beam="1">  1        1 0.29666557E+00 0.61663132E+03</pdfrwt>
<pdfrwt beam="2">  1       -1 0.65392499E-02 0.61663132E+03</pdfrwt>
<totfact> 0.42445801E+02</totfact>
</mgrwt>
</event>
<event>
 4    1  0.2559694E-005  0.4378929E+03  0.7818608E-02  0.1031395E+00
          1   -1    0    0  501    0  0.00000000000E+00  0.00000000000E+00  0.18012055604E+03  0.18012055611E+03  0.50400000000E-02 0.  1.
         -1   -1    0    0    0  501 -0.00000000000E+00 -0.00000000000E+00 -0.26614142666E+03  0.26614142670E+03  0.50400000000E-02 0. -1.
    5000001    1    1    2    0    0  0.69011672470E+02  0.11916401908E+03 -0.85641343584E+02  0.23134846900E+03  0.16500000000E+03 0.  0.
   -5000001    1    1    2    0    0 -0.69011672470E+02 -0.11916401908E+03 -0.37952702909E+00  0.21491351382E+03  0.16500000000E+03 0.  0.
<mgrwt>
<rscale>  0 0.43789287E+03</rscale>
<asrwt>0</asrwt>
<pdfrwt beam="1">  1        1 0.25731508E-01 0.43789287E+03</pdfrwt>
<pdfrwt beam="2">  1       -1 0.38020204E-01 0.43789287E+03</pdfrwt>
<totfact> 0.12529598E+03</totfact>
</mgrwt>
</event>
<event>
 4    1  0.2559694E-005  0.3872243E+03  0.7818608E-02  0.1048295E+00
          1   -1    0    0  501    0  0.00000000000E+00  0.00000000000E+00  0.27119902188E+02  0.27119902657E+02  0.50400000000E-02 0.  1.
         -1   -1    0    0    0  501 -0.00000000000E+00 -0.00000000000E+00 -0.13822196105E+04  0.13822196106E+04  0.50400000000E-02 0. -1.
    5000001    1    1    2    0    0 -0.43248599543E+02 -0.32913503659E+02 -0.36643535687E+03  0.40552880397E+03  0.16500000000E+03 0.  0.
   -5000001    1    1    2    0    0  0.43248599543E+02  0.32913503659E+02 -0.98866435148E+03  0.10038107092E+04  0.16500000000E+03 0.  0.
<mgrwt>
<rscale>  0 0.38722428E+03</rscale>
<asrwt>0</asrwt>
<pdfrwt beam="1">  1        1 0.38742726E-02 0.38722428E+03</pdfrwt>
<pdfrwt beam="2">  1       -1 0.19745990E+00 0.38722428E+03</pdfrwt>
<totfact> 0.41243867E+02</totfact>
</mgrwt>
</event>
<event>
 4    1  0.2559694E-005  0.4819668E+03  0.7818608E-02  0.1018596E+00
         -1   -1    0    0    0  501 -0.00000000000E+00  0.00000000000E+00  0.20369878740E+02  0.20369879363E+02  0.50400000000E-02 0. -1.
          1   -1    0    0  501    0  0.00000000000E+00 -0.00000000000E+00 -0.28509256083E+04  0.28509256083E+04  0.50400000000E-02 0.  1.
    5000001    1    1    2    0    0  0.99942461684E+02  0.20484521316E+02 -0.22670042344E+04  0.22752892805E+04  0.16500000000E+03 0.  0.
   -5000001    1    1    2    0    0 -0.99942461684E+02 -0.20484521316E+02 -0.56355149517E+03  0.59600620715E+03  0.16500000000E+03 0.  0.
<mgrwt>
<rscale>  0 0.48196684E+03</rscale>
<asrwt>0</asrwt>
<pdfrwt beam="1">  1        1 0.40727483E+00 0.48196684E+03</pdfrwt>
<pdfrwt beam="2">  1       -1 0.29099845E-02 0.48196684E+03</pdfrwt>
<totfact> 0.48478304E+02</totfact>
</mgrwt>
</event>
<event>
 4    1  0.2559694E-005  0.7192693E+03  0.7818608E-02  0.9684835E-01
          1   -1    0    0  501    0  0.00000000000E+00  0.00000000000E+00  0.16850570393E+03  0.16850570401E+03  0.50400000000E-02 0.  1.
         -1   -1    0    0    0  501 -0.00000000000E+00 -0.00000000000E+00 -0.76755319273E+03  0.76755319275E+03  0.50400000000E-02 0. -1.
    5000001    1    1    2    0    0  0.25771005372E+03 -0.89659521669E+02 -0.51595910675E+03  0.60654109626E+03  0.16500000000E+03 0.  0.
   -5000001    1    1    2    0    0 -0.25771005372E+03  0.89659521669E+02 -0.83088382053E+02  0.32951780050E+03  0.16500000000E+03 0.  0.
<mgrwt>
<rscale>  0 0.71926933E+03</rscale>
<asrwt>0</asrwt>
<pdfrwt beam="1">  1        1 0.24072244E-01 0.71926933E+03</pdfrwt>
<pdfrwt beam="2">  1       -1 0.10965045E+00 0.71926933E+03</pdfrwt>
<totfact> 0.16016223E+02</totfact>
</mgrwt>
</event>
<event>
 4    1  0.2559694E-005  0.3865152E+03  0.7818608E-02  0.1048552E+00
         -1   -1    0    0    0  501 -0.00000000000E+00  0.00000000000E+00  0.97849796451E+01  0.97849809431E+01  0.50400000000E-02 0. -1.
          1   -1    0    0  501    0  0.00000000000E+00 -0.00000000000E+00 -0.38169218134E+04  0.38169218135E+04  0.50400000000E-02 0.  1.
    5000001    1    1    2    0    0 -0.99282350088E+02 -0.16317292848E+02 -0.18984654962E+04  0.19082765731E+04  0.16500000000E+03 0.  0.
   -5000001    1    1    2    0    0  0.99282350088E+02  0.16317292848E+02 -0.19086713376E+04  0.19184302213E+04  0.16500000000E+03 0.  0.
<mgrwt>
<rscale>  0 0.38651522E+03</rscale>
<asrwt>0</asrwt>
<pdfrwt beam="1">  1        1 0.54527359E+00 0.38651522E+03</pdfrwt>
<pdfrwt beam="2">  1       -1 0.13978568E-02 0.38651522E+03</pdfrwt>
<totfact> 0.32876000E+02</totfact>
</mgrwt>
</event>
<event>
 4    1  0.2559694E-005  0.4338659E+03  0.7818608E-02  0.1032646E+00
          1   -1    0    0  501    0  0.00000000000E+00  0.00000000000E+00  0.20176040514E+04  0.20176040514E+04  0.50400000000E-02 0.  1.
         -1   -1    0    0    0  501 -0.00000000000E+00 -0.00000000000E+00 -0.23324647552E+02  0.23324648096E+02  0.50400000000E-02 0. -1.
    5000001    1    1    2    0    0 -0.29273028195E+02 -0.12677045782E+03  0.12507770013E+04  0.12683042877E+04  0.16500000000E+03 0.  0.
   -5000001    1    1    2    0    0  0.29273028195E+02  0.12677045782E+03  0.74350240253E+03  0.77262441181E+03  0.16500000000E+03 0.  0.
<mgrwt>
<rscale>  0 0.43386590E+03</rscale>
<asrwt>0</asrwt>
<pdfrwt beam="1">  1        1 0.28822921E+00 0.43386590E+03</pdfrwt>
<pdfrwt beam="2">  1       -1 0.33320919E-02 0.43386590E+03</pdfrwt>
<totfact> 0.13032204E+03</totfact>
</mgrwt>
</event>
<event>
 4    1  0.2559694E-005  0.3698392E+03  0.7818608E-02  0.1054754E+00
         -1   -1    0    0    0  501 -0.00000000000E+00  0.00000000000E+00  0.97245168221E+02  0.97245168352E+02  0.50400000000E-02 0.  1.
          1   -1    0    0  501    0  0.00000000000E+00 -0.00000000000E+00 -0.35163966411E+03  0.35163966415E+03  0.50400000000E-02 0. -1.
    5000001    1    1    2    0    0  0.56023894018E+02  0.59163854211E+02 -0.14928646156E+03  0.23696093761E+03  0.16500000000E+03 0.  0.
   -5000001    1    1    2    0    0 -0.56023894018E+02 -0.59163854211E+02 -0.10510803433E+03  0.21192389489E+03  0.16500000000E+03 0.  0.
<mgrwt>
<rscale>  0 0.36983920E+03</rscale>
<asrwt>0</asrwt>
<pdfrwt beam="1">  1        1 0.50234237E-01 0.36983920E+03</pdfrwt>
<pdfrwt beam="2">  1       -1 0.13892167E-01 0.36983920E+03</pdfrwt>
<totfact> 0.28700056E+03</totfact>
</mgrwt>
</event>
<event>
 4    1  0.2559694E-005  0.5077123E+03  0.7818608E-02  0.1011785E+00
         -1   -1    0    0    0  501 -0.00000000000E+00  0.00000000000E+00  0.47838252629E+02  0.47838252894E+02  0.50400000000E-02 0.  1.
          1   -1    0    0  501    0  0.00000000000E+00 -0.00000000000E+00 -0.13471008093E+04  0.13471008094E+04  0.50400000000E-02 0. -1.
    5000001    1    1    2    0    0  0.15445025467E+03  0.94713197341E+02 -0.83172389633E+03  0.86707272512E+03  0.16500000000E+03 0.  0.
   -5000001    1    1    2    0    0 -0.15445025467E+03 -0.94713197341E+02 -0.46753866038E+03  0.52786633712E+03  0.16500000000E+03 0.  0.
<mgrwt>
<rscale>  0 0.50771232E+03</rscale>
<asrwt>0</asrwt>
<pdfrwt beam="1">  1        1 0.19244295E+00 0.50771232E+03</pdfrwt>
<pdfrwt beam="2">  1       -1 0.68340369E-02 0.50771232E+03</pdfrwt>
<totfact> 0.11472428E+03</totfact>
</mgrwt>
</event>
<event>
 4    1  0.2559694E-005  0.5139534E+03  0.7818608E-02  0.1010200E+00
          1   -1    0    0  501    0  0.00000000000E+00  0.00000000000E+00  0.11498157197E+04  0.11498157197E+04  0.50400000000E-02 0.  1.
         -1   -1    0    0    0  501 -0.00000000000E+00 -0.00000000000E+00 -0.57432698013E+02  0.57432698235E+02  0.50400000000E-02 0. -1.
    5000001    1    1    2    0    0  0.17266424129E+03  0.82980476635E+02  0.65417453600E+03  0.70133303307E+03  0.16500000000E+03 0.  0.
   -5000001    1    1    2    0    0 -0.17266424129E+03 -0.82980476635E+02  0.43820848566E+03  0.50591538485E+03  0.16500000000E+03 0.  0.
<mgrwt>
<rscale>  0 0.51395338E+03</rscale>
<asrwt>0</asrwt>
<pdfrwt beam="1">  1        1 0.16425937E+00 0.51395338E+03</pdfrwt>
<pdfrwt beam="2">  1       -1 0.82046723E-02 0.51395338E+03</pdfrwt>
<totfact> 0.11730718E+03</totfact>
</mgrwt>
</event>
<event>
 4    1  0.2559694E-005  0.4413642E+03  0.7818608E-02  0.1030329E+00
         -1   -1    0    0    0  501 -0.00000000000E+00  0.00000000000E+00  0.28581265611E+03  0.28581265616E+03  0.50400000000E-02 0. -1.
          1   -1    0    0  501    0  0.00000000000E+00 -0.00000000000E+00 -0.17039336202E+03  0.17039336209E+03  0.50400000000E-02 0.  1.
    5000001    1    1    2    0    0  0.11534995844E+03  0.72131520125E+02  0.14076917778E+01  0.21385871669E+03  0.16500000000E+03 0.  0.
   -5000001    1    1    2    0    0 -0.11534995844E+03 -0.72131520125E+02  0.11401160232E+03  0.24234730156E+03  0.16500000000E+03 0.  0.
<mgrwt>
<rscale>  0 0.44136416E+03</rscale>
<asrwt>0</asrwt>
<pdfrwt beam="1">  1        1 0.24341909E-01 0.44136416E+03</pdfrwt>
<pdfrwt beam="2">  1       -1 0.40830379E-01 0.44136416E+03</pdfrwt>
<totfact> 0.11846093E+03</totfact>
</mgrwt>
</event>
<event>
 4    1  0.2559694E-005  0.4886443E+03  0.7818608E-02  0.1016786E+00
          1   -1    0    0  501    0  0.00000000000E+00  0.00000000000E+00  0.97310601792E+02  0.97310601922E+02  0.50400000000E-02 0.  1.
         -1   -1    0    0    0  501 -0.00000000000E+00 -0.00000000000E+00 -0.61343072683E+03  0.61343072685E+03  0.50400000000E-02 0. -1.
    5000001    1    1    2    0    0  0.50869742924E+02  0.16660853443E+03 -0.19105467668E+03  0.30671326018E+03  0.16500000000E+03 0.  0.
   -5000001    1    1    2    0    0 -0.50869742924E+02 -0.16660853443E+03 -0.32506544836E+03  0.40402806859E+03  0.16500000000E+03 0.  0.
<mgrwt>
<rscale>  0 0.48864430E+03</rscale>
<asrwt>0</asrwt>
<pdfrwt beam="1">  1        1 0.13901515E-01 0.48864430E+03</pdfrwt>
<pdfrwt beam="2">  1       -1 0.87632959E-01 0.48864430E+03</pdfrwt>
<totfact> 0.55449875E+02</totfact>
</mgrwt>
</event>
<event>
 4    1  0.2559694E-005  0.4783344E+03  0.7818608E-02  0.1019594E+00
         -1   -1    0    0    0  501 -0.00000000000E+00  0.00000000000E+00  0.58774601907E+02  0.58774602123E+02  0.50400000000E-02 0. -1.
          1   -1    0    0  501    0  0.00000000000E+00 -0.00000000000E+00 -0.97322546888E+03  0.97322546889E+03  0.50400000000E-02 0.  1.
    5000001    1    1    2    0    0 -0.92200766595E+00  0.16363979641E+03 -0.57921612840E+03  0.62409547063E+03  0.16500000000E+03 0.  0.
   -5000001    1    1    2    0    0  0.92200766595E+00 -0.16363979641E+03 -0.33523473857E+03  0.40790460038E+03  0.16500000000E+03 0.  0.
<mgrwt>
<rscale>  0 0.47833436E+03</rscale>
<asrwt>0</asrwt>
<pdfrwt beam="1">  1        1 0.13903220E+00 0.47833436E+03</pdfrwt>
<pdfrwt beam="2">  1       -1 0.83963723E-02 0.47833436E+03</pdfrwt>
<totfact> 0.15153170E+03</totfact>
</mgrwt>
</event>
<event>
 4    1  0.2559694E-005  0.6408695E+03  0.7818608E-02  0.9824064E-01
          1   -1    0    0  501    0  0.00000000000E+00  0.00000000000E+00  0.34108285691E+03  0.34108285695E+03  0.50400000000E-02 0.  1.
         -1   -1    0    0    0  501 -0.00000000000E+00 -0.00000000000E+00 -0.30103664307E+03  0.30103664312E+03  0.50400000000E-02 0. -1.
    5000001    1    1    2    0    0 -0.27141140969E+03 -0.16189866575E+02  0.59178391201E+02  0.32350169563E+03  0.16500000000E+03 0.  0.
   -5000001    1    1    2    0    0  0.27141140969E+03  0.16189866575E+02 -0.19132177363E+02  0.31861780443E+03  0.16500000000E+03 0.  0.
<mgrwt>
<rscale>  0 0.64086953E+03</rscale>
<asrwt>0</asrwt>
<pdfrwt beam="1">  1        1 0.48726122E-01 0.64086953E+03</pdfrwt>
<pdfrwt beam="2">  1       -1 0.43005235E-01 0.64086953E+03</pdfrwt>
<totfact> 0.43994040E+02</totfact>
</mgrwt>
</event>
<event>
 4    1  0.2559694E-005  0.5910410E+03  0.7818608E-02  0.9924169E-01
          1   -1    0    0  501    0  0.00000000000E+00  0.00000000000E+00  0.25717859501E+03  0.25717859506E+03  0.50400000000E-02 0.  1.
         -1   -1    0    0    0  501 -0.00000000000E+00 -0.00000000000E+00 -0.33957863793E+03  0.33957863797E+03  0.50400000000E-02 0. -1.
    5000001    1    1    2    0    0  0.20523677073E+03 -0.41523909463E+02  0.87551863322E+02  0.28060059851E+03  0.16500000000E+03 0.  0.
   -5000001    1    1    2    0    0 -0.20523677073E+03  0.41523909463E+02 -0.16995190624E+03  0.31615663452E+03  0.16500000000E+03 0.  0.
<mgrwt>
<rscale>  0 0.59104097E+03</rscale>
<asrwt>0</asrwt>
<pdfrwt beam="1">  1        1 0.36739799E-01 0.59104097E+03</pdfrwt>
<pdfrwt beam="2">  1       -1 0.48511234E-01 0.59104097E+03</pdfrwt>
<totfact> 0.50698689E+02</totfact>
</mgrwt>
</event>
<event>
 4    1  0.2559694E-005  0.4673522E+03  0.7818608E-02  0.1022670E+00
         -1   -1    0    0    0  501 -0.00000000000E+00  0.00000000000E+00  0.37070073566E+02  0.37070073908E+02  0.50400000000E-02 0. -1.
          1   -1    0    0  501    0  0.00000000000E+00 -0.00000000000E+00 -0.14730079269E+04  0.14730079269E+04  0.50400000000E-02 0.  1.
    5000001    1    1    2    0    0 -0.52528299023E+02  0.11879423143E+02 -0.12235065223E+04  0.12357562676E+04  0.16500000000E+03 0.  0.
   -5000001    1    1    2    0    0  0.52528299023E+02 -0.11879423143E+02 -0.21243133105E+03  0.27432173320E+03  0.16500000000E+03 0.  0.
<mgrwt>
<rscale>  0 0.46735217E+03</rscale>
<asrwt>0</asrwt>
<pdfrwt beam="1">  1        1 0.21042967E+00 0.46735217E+03</pdfrwt>
<pdfrwt beam="2">  1       -1 0.52957257E-02 0.46735217E+03</pdfrwt>
<totfact> 0.14079573E+03</totfact>
</mgrwt>
</event>
<event>
 4    1  0.2559694E-005  0.3493442E+03  0.7818608E-02  0.1062885E+00
          1   -1    0    0  501    0  0.00000000000E+00  0.00000000000E+00  0.11969324677E+04  0.11969324678E+04  0.50400000000E-02 0.  1.
         -1   -1    0    0    0  501 -0.00000000000E+00 -0.00000000000E+00 -0.25490450123E+02  0.25490450621E+02  0.50400000000E-02 0. -1.
    5000001    1    1    2    0    0  0.41175792272E+02  0.22221078543E+02  0.70157154447E+03  0.72223047167E+03  0.16500000000E+03 0.  0.
   -5000001    1    1    2    0    0 -0.41175792272E+02 -0.22221078543E+02  0.46987047315E+03  0.50019244670E+03  0.16500000000E+03 0.  0.
<mgrwt>
<rscale>  0 0.34934423E+03</rscale>
<asrwt>0</asrwt>
<pdfrwt beam="1">  1        1 0.17099038E+00 0.34934423E+03</pdfrwt>
<pdfrwt beam="2">  1       -1 0.36414924E-02 0.34934423E+03</pdfrwt>
<totfact> 0.37579093E+03</totfact>
</mgrwt>
</event>
<event>
 4    1  0.2559694E-005  0.4270198E+03  0.7818608E-02  0.1034806E+00
         -1   -1    0    0    0  501 -0.00000000000E+00  0.00000000000E+00  0.46110190886E+03  0.46110190888E+03  0.50400000000E-02 0. -1.
          1   -1    0    0  501    0  0.00000000000E+00 -0.00000000000E+00 -0.98864208366E+02  0.98864208495E+02  0.50400000000E-02 0.  1.
    5000001    1    1    2    0    0 -0.10256435910E+02 -0.13384801158E+03  0.20533387532E+03  0.29564756897E+03  0.16500000000E+03 0.  0.
   -5000001    1    1    2    0    0  0.10256435910E+02  0.13384801158E+03  0.15690382517E+03  0.26431854841E+03  0.16500000000E+03 0.  0.
<mgrwt>
<rscale>  0 0.42701979E+03</rscale>
<asrwt>0</asrwt>
<pdfrwt beam="1">  1        1 0.14123459E-01 0.42701979E+03</pdfrwt>
<pdfrwt beam="2">  1       -1 0.65871700E-01 0.42701979E+03</pdfrwt>
<totfact> 0.98113950E+02</totfact>
</mgrwt>
</event>
<event>
 4    1  0.2559694E-005  0.7252849E+03  0.7818608E-02  0.9674943E-01
         -1   -1    0    0    0  501 -0.00000000000E+00  0.00000000000E+00  0.13715365374E+03  0.13715365383E+03  0.50400000000E-02 0. -1.
          1   -1    0    0  501    0  0.00000000000E+00 -0.00000000000E+00 -0.95884825872E+03  0.95884825873E+03  0.50400000000E-02 0.  1.
    5000001    1    1    2    0    0  0.20158388789E+02 -0.31536157585E+03 -0.31032278908E+03  0.47263571340E+03  0.16500000000E+03 0.  0.
   -5000001    1    1    2    0    0 -0.20158388789E+02  0.31536157585E+03 -0.51137181591E+03  0.62336619916E+03  0.16500000000E+03 0.  0.
<mgrwt>
<rscale>  0 0.72528489E+03</rscale>
<asrwt>0</asrwt>
<pdfrwt beam="1">  1        1 0.13697832E+00 0.72528489E+03</pdfrwt>
<pdfrwt beam="2">  1       -1 0.19593380E-01 0.72528489E+03</pdfrwt>
<totfact> 0.39602358E+02</totfact>
</mgrwt>
</event>
<event>
 4    1  0.2559694E-005  0.4252513E+03  0.7818608E-02  0.1035371E+00
         -1   -1    0    0    0  501 -0.00000000000E+00  0.00000000000E+00  0.26009306092E+03  0.26009306096E+03  0.50400000000E-02 0. -1.
          1   -1    0    0  501    0  0.00000000000E+00 -0.00000000000E+00 -0.17382112278E+03  0.17382112285E+03  0.50400000000E-02 0.  1.
    5000001    1    1    2    0    0 -0.83935271414E+02 -0.10455941372E+03  0.40462067390E+02  0.21642545988E+03  0.16500000000E+03 0.  0.
   -5000001    1    1    2    0    0  0.83935271414E+02  0.10455941372E+03  0.45809870744E+02  0.21748872394E+03  0.16500000000E+03 0.  0.
<mgrwt>
<rscale>  0 0.42525130E+03</rscale>
<asrwt>0</asrwt>
<pdfrwt beam="1">  1        1 0.24831589E-01 0.42525130E+03</pdfrwt>
<pdfrwt beam="2">  1       -1 0.37156152E-01 0.42525130E+03</pdfrwt>
<totfact> 0.13664139E+03</totfact>
</mgrwt>
</event>
<event>
 4    1  0.2559694E-005  0.4232617E+03  0.7818608E-02  0.1036010E+00
          1   -1    0    0  501    0  0.00000000000E+00  0.00000000000E+00  0.16772793678E+04  0.16772793678E+04  0.50400000000E-02 0.  1.
         -1   -1    0    0    0  501 -0.00000000000E+00 -0.00000000000E+00 -0.26702531928E+02  0.26702532404E+02  0.50400000000E-02 0. -1.
    5000001    1    1    2    0    0 -0.47000254053E+02  0.10210017752E+03  0.11079335193E+04  0.11257775772E+04  0.16500000000E+03 0.  0.
   -5000001    1    1    2    0    0  0.47000254053E+02 -0.10210017752E+03  0.54264331656E+03  0.57820432300E+03  0.16500000000E+03 0.  0.
<mgrwt>
<rscale>  0 0.42326165E+03</rscale>
<asrwt>0</asrwt>
<pdfrwt beam="1">  1        1 0.23961133E+00 0.42326165E+03</pdfrwt>
<pdfrwt beam="2">  1       -1 0.38146476E-02 0.42326165E+03</pdfrwt>
<totfact> 0.17232810E+03</totfact>
</mgrwt>
</event>
<event>
 4    1  0.2559694E-005  0.5411855E+03  0.7818608E-02  0.1003555E+00
         -1   -1    0    0    0  501 -0.00000000000E+00  0.00000000000E+00  0.77780309150E+02  0.77780309313E+02  0.50400000000E-02 0. -1.
          1   -1    0    0  501    0  0.00000000000E+00 -0.00000000000E+00 -0.94137509761E+03  0.94137509762E+03  0.50400000000E-02 0.  1.
    5000001    1    1    2    0    0 -0.11222276091E+03 -0.18263461152E+03 -0.41901154121E+03  0.49874344212E+03  0.16500000000E+03 0.  0.
   -5000001    1    1    2    0    0  0.11222276091E+03  0.18263461152E+03 -0.44458324725E+03  0.52041196482E+03  0.16500000000E+03 0.  0.
<mgrwt>
<rscale>  0 0.54118554E+03</rscale>
<asrwt>0</asrwt>
<pdfrwt beam="1">  1        1 0.13448215E+00 0.54118554E+03</pdfrwt>
<pdfrwt beam="2">  1       -1 0.11111473E-01 0.54118554E+03</pdfrwt>
<totfact> 0.10303946E+03</totfact>
</mgrwt>
</event>
<event>
 4    1  0.2559694E-005  0.5595266E+03  0.7818608E-02  0.9993126E-01
         -1   -1    0    0    0  501 -0.00000000000E+00  0.00000000000E+00  0.10734901123E+03  0.10734901135E+03  0.50400000000E-02 0. -1.
          1   -1    0    0  501    0  0.00000000000E+00 -0.00000000000E+00 -0.72909379677E+03  0.72909379679E+03  0.50400000000E-02 0.  1.
    5000001    1    1    2    0    0 -0.22169101193E+03 -0.36163870563E+02 -0.27462986568E+03  0.39128160374E+03  0.16500000000E+03 0.  0.
   -5000001    1    1    2    0    0  0.22169101193E+03  0.36163870563E+02 -0.34711491986E+03  0.44516120439E+03  0.16500000000E+03 0.  0.
<mgrwt>
<rscale>  0 0.55952658E+03</rscale>
<asrwt>0</asrwt>
<pdfrwt beam="1">  1        1 0.10415625E+00 0.55952658E+03</pdfrwt>
<pdfrwt beam="2">  1       -1 0.15335573E-01 0.55952658E+03</pdfrwt>
<totfact> 0.91539841E+02</totfact>
</mgrwt>
</event>
<event>
 4    1  0.2559694E-005  0.3367504E+03  0.7818608E-02  0.1068188E+00
          1   -1    0    0  501    0  0.00000000000E+00  0.00000000000E+00  0.83747640352E+03  0.83747640353E+03  0.50400000000E-02 0. -1.
         -1   -1    0    0    0  501 -0.00000000000E+00 -0.00000000000E+00 -0.33851949932E+02  0.33851950307E+02  0.50400000000E-02 0.  1.
    5000001    1    1    2    0    0 -0.26437700111E+02  0.12770047620E+02  0.44378840725E+03  0.47437872687E+03  0.16500000000E+03 0.  0.
   -5000001    1    1    2    0    0  0.26437700111E+02 -0.12770047620E+02  0.35983604634E+03  0.39694962697E+03  0.16500000000E+03 0.  0.
<mgrwt>
<rscale>  0 0.33675041E+03</rscale>
<asrwt>0</asrwt>
<pdfrwt beam="1">  1        1 0.11963948E+00 0.33675041E+03</pdfrwt>
<pdfrwt beam="2">  1       -1 0.48359930E-02 0.33675041E+03</pdfrwt>
<totfact> 0.44699288E+03</totfact>
</mgrwt>
</event>
<event>
 4    1  0.2559694E-005  0.5426300E+03  0.7818608E-02  0.1003214E+00
          1   -1    0    0  501    0  0.00000000000E+00  0.00000000000E+00  0.60538903294E+03  0.60538903296E+03  0.50400000000E-02 0.  1.
         -1   -1    0    0    0  501 -0.00000000000E+00 -0.00000000000E+00 -0.12159427127E+03  0.12159427137E+03  0.50400000000E-02 0. -1.
    5000001    1    1    2    0    0  0.18032369951E+03 -0.11777084221E+03  0.24125422024E+03  0.36306363996E+03  0.16500000000E+03 0.  0.
   -5000001    1    1    2    0    0 -0.18032369951E+03  0.11777084221E+03  0.24254054143E+03  0.36391966437E+03  0.16500000000E+03 0.  0.
<mgrwt>
<rscale>  0 0.54263003E+03</rscale>
<asrwt>0</asrwt>
<pdfrwt beam="1">  1        1 0.86484148E-01 0.54263003E+03</pdfrwt>
<pdfrwt beam="2">  1       -1 0.17370610E-01 0.54263003E+03</pdfrwt>
<totfact> 0.97679806E+02</totfact>
</mgrwt>
</event>
<event>
 4    1  0.2559694E-005  0.4877040E+03  0.7818608E-02  0.1017039E+00
         -1   -1    0    0    0  501 -0.00000000000E+00  0.00000000000E+00  0.42034045382E+03  0.42034045385E+03  0.50400000000E-02 0. -1.
          1   -1    0    0  501    0  0.00000000000E+00 -0.00000000000E+00 -0.14146578554E+03  0.14146578563E+03  0.50400000000E-02 0.  1.
    5000001    1    1    2    0    0  0.17829746475E+03 -0.19956745024E+02  0.13124842506E+03  0.27683823199E+03  0.16500000000E+03 0.  0.
   -5000001    1    1    2    0    0 -0.17829746475E+03  0.19956745024E+02  0.14762624322E+03  0.28496800749E+03  0.16500000000E+03 0.  0.
<mgrwt>
<rscale>  0 0.48770398E+03</rscale>
<asrwt>0</asrwt>
<pdfrwt beam="1">  1        1 0.20209398E-01 0.48770398E+03</pdfrwt>
<pdfrwt beam="2">  1       -1 0.60048636E-01 0.48770398E+03</pdfrwt>
<totfact> 0.73277631E+02</totfact>
</mgrwt>
</event>
<event>
 4    1  0.2559694E-005  0.5745726E+03  0.7818608E-02  0.9959611E-01
         -1   -1    0    0    0  501 -0.00000000000E+00  0.00000000000E+00  0.78382683676E+03  0.78382683677E+03  0.50400000000E-02 0. -1.
          1   -1    0    0  501    0  0.00000000000E+00 -0.00000000000E+00 -0.10529548287E+03  0.10529548299E+03  0.50400000000E-02 0.  1.
    5000001    1    1    2    0    0  0.17350226702E+03  0.55908729489E+01  0.58478960536E+03  0.63193209845E+03  0.16500000000E+03 0.  0.
   -5000001    1    1    2    0    0 -0.17350226702E+03 -0.55908729489E+01  0.93741748534E+02  0.25719022131E+03  0.16500000000E+03 0.  0.
<mgrwt>
<rscale>  0 0.57457262E+03</rscale>
<asrwt>0</asrwt>
<pdfrwt beam="1">  1        1 0.15042212E-01 0.57457262E+03</pdfrwt>
<pdfrwt beam="2">  1       -1 0.11197526E+00 0.57457262E+03</pdfrwt>
<totfact> 0.28610838E+02</totfact>
</mgrwt>
</event>
<event>
 4    1  0.2559694E-005  0.1256662E+04  0.7818608E-02  0.9064657E-01
         -1   -1    0    0    0  501 -0.00000000000E+00  0.00000000000E+00  0.21105591008E+03  0.21105591014E+03  0.50400000000E-02 0. -1.
          1   -1    0    0  501    0  0.00000000000E+00 -0.00000000000E+00 -0.18705933165E+04  0.18705933165E+04  0.50400000000E-02 0.  1.
    5000001    1    1    2    0    0 -0.37639375476E+03 -0.47406860728E+03 -0.88622253800E+03  0.10858308754E+04  0.16500000000E+03 0.  0.
   -5000001    1    1    2    0    0  0.37639375476E+03  0.47406860728E+03 -0.77331486842E+03  0.99581835128E+03  0.16500000000E+03 0.  0.
<mgrwt>
<rscale>  0 0.12566619E+04</rscale>
<asrwt>0</asrwt>
<pdfrwt beam="1">  1        1 0.26722761E+00 0.12566619E+04</pdfrwt>
<pdfrwt beam="2">  1       -1 0.30150845E-01 0.12566619E+04</pdfrwt>
<totfact> 0.44863734E+01</totfact>
</mgrwt>
</event>
<event>
 4    1  0.2559694E-005  0.4093084E+03  0.7818608E-02  0.1040603E+00
          1   -1    0    0  501    0  0.00000000000E+00  0.00000000000E+00  0.22245111612E+03  0.22245111618E+03  0.50400000000E-02 0.  1.
         -1   -1    0    0    0  501 -0.00000000000E+00 -0.00000000000E+00 -0.18828105831E+03  0.18828105838E+03  0.50400000000E-02 0. -1.
    5000001    1    1    2    0    0  0.11736002202E+03  0.58293176246E+01 -0.12187938139E+02  0.20293078019E+03  0.16500000000E+03 0.  0.
   -5000001    1    1    2    0    0 -0.11736002202E+03 -0.58293176246E+01  0.46357995952E+02  0.20780139437E+03  0.16500000000E+03 0.  0.
<mgrwt>
<rscale>  0 0.40930835E+03</rscale>
<asrwt>0</asrwt>
<pdfrwt beam="1">  1        1 0.31778731E-01 0.40930835E+03</pdfrwt>
<pdfrwt beam="2">  1       -1 0.26897294E-01 0.40930835E+03</pdfrwt>
<totfact> 0.17428319E+03</totfact>
</mgrwt>
</event>
<event>
 4    1  0.2559694E-005  0.7751174E+03  0.7818608E-02  0.9596749E-01
          1   -1    0    0  501    0  0.00000000000E+00  0.00000000000E+00  0.44617911030E+03  0.44617911033E+03  0.50400000000E-02 0. -1.
         -1   -1    0    0    0  501 -0.00000000000E+00 -0.00000000000E+00 -0.33664006587E+03  0.33664006591E+03  0.50400000000E-02 0.  1.
    5000001    1    1    2    0    0 -0.24014873331E+03  0.13231634935E+03  0.27556877487E+03  0.42230578980E+03  0.16500000000E+03 0.  0.
   -5000001    1    1    2    0    0  0.24014873331E+03 -0.13231634935E+03 -0.16602973044E+03  0.36051338644E+03  0.16500000000E+03 0.  0.
<mgrwt>
<rscale>  0 0.77511745E+03</rscale>
<asrwt>0</asrwt>
<pdfrwt beam="1">  1        1 0.63739873E-01 0.77511745E+03</pdfrwt>
<pdfrwt beam="2">  1       -1 0.48091438E-01 0.77511745E+03</pdfrwt>
<totfact> 0.25009766E+02</totfact>
</mgrwt>
</event>
<event>
 4    1  0.2559694E-005  0.4175715E+03  0.7818608E-02  0.1037860E+00
          1   -1    0    0  501    0  0.00000000000E+00  0.00000000000E+00  0.25762741940E+03  0.25762741945E+03  0.50400000000E-02 0.  1.
         -1   -1    0    0    0  501 -0.00000000000E+00 -0.00000000000E+00 -0.16920357618E+03  0.16920357626E+03  0.50400000000E-02 0. -1.
    5000001    1    1    2    0    0  0.98197513269E+02  0.77631563188E+02  0.71199454356E+02  0.21900633214E+03  0.16500000000E+03 0.  0.
   -5000001    1    1    2    0    0 -0.98197513269E+02 -0.77631563188E+02  0.17224388861E+02  0.20782466357E+03  0.16500000000E+03 0.  0.
<mgrwt>
<rscale>  0 0.41757146E+03</rscale>
<asrwt>0</asrwt>
<pdfrwt beam="1">  1        1 0.36803917E-01 0.41757146E+03</pdfrwt>
<pdfrwt beam="2">  1       -1 0.24171939E-01 0.41757146E+03</pdfrwt>
<totfact> 0.17309634E+03</totfact>
</mgrwt>
</event>
<event>
 4    1  0.2559694E-005  0.6119728E+03  0.7818608E-02  0.9880873E-01
         -1   -1    0    0    0  501 -0.00000000000E+00  0.00000000000E+00  0.46032241851E+03  0.46032241854E+03  0.50400000000E-02 0. -1.
          1   -1    0    0  501    0  0.00000000000E+00 -0.00000000000E+00 -0.20339585433E+03  0.20339585439E+03  0.50400000000E-02 0.  1.
    5000001    1    1    2    0    0 -0.14085681923E+03  0.17776562723E+03  0.26112265112E+03  0.38321182220E+03  0.16500000000E+03 0.  0.
   -5000001    1    1    2    0    0  0.14085681923E+03 -0.17776562723E+03 -0.41960869347E+01  0.28050645072E+03  0.16500000000E+03 0.  0.
<mgrwt>
<rscale>  0 0.61197278E+03</rscale>
<asrwt>0</asrwt>
<pdfrwt beam="1">  1        1 0.29056551E-01 0.61197278E+03</pdfrwt>
<pdfrwt beam="2">  1       -1 0.65760345E-01 0.61197278E+03</pdfrwt>
<totfact> 0.38048971E+02</totfact>
</mgrwt>
</event>
<event>
 4    1  0.2559694E-005  0.4045546E+03  0.7818608E-02  0.1042214E+00
         -1   -1    0    0    0  501 -0.00000000000E+00  0.00000000000E+00  0.87026634835E+02  0.87026634981E+02  0.50400000000E-02 0. -1.
          1   -1    0    0  501    0  0.00000000000E+00 -0.00000000000E+00 -0.47015621385E+03  0.47015621388E+03  0.50400000000E-02 0.  1.
    5000001    1    1    2    0    0 -0.42944583474E+02  0.55170538230E+02 -0.32078726938E+03  0.36744727205E+03  0.16500000000E+03 0.  0.
   -5000001    1    1    2    0    0  0.42944583474E+02 -0.55170538230E+02 -0.62342309640E+02  0.18973557682E+03  0.16500000000E+03 0.  0.
<mgrwt>
<rscale>  0 0.40455464E+03</rscale>
<asrwt>0</asrwt>
<pdfrwt beam="1">  1        1 0.67165172E-01 0.40455464E+03</pdfrwt>
<pdfrwt beam="2">  1       -1 0.12432377E-01 0.40455464E+03</pdfrwt>
<totfact> 0.23543193E+03</totfact>
</mgrwt>
</event>
<event>
 4    1  0.2559694E-005  0.3735972E+03  0.7818608E-02  0.1053326E+00
          1   -1    0    0  501    0  0.00000000000E+00  0.00000000000E+00  0.53268435171E+03  0.53268435173E+03  0.50400000000E-02 0.  1.
         -1   -1    0    0    0  501 -0.00000000000E+00 -0.00000000000E+00 -0.65505433504E+02  0.65505433698E+02  0.50400000000E-02 0. -1.
    5000001    1    1    2    0    0 -0.85187920603E+02  0.19524306075E+02  0.24243783339E+03  0.30600536499E+03  0.16500000000E+03 0.  0.
   -5000001    1    1    2    0    0  0.85187920603E+02 -0.19524306075E+02  0.22474108481E+03  0.29218442044E+03  0.16500000000E+03 0.  0.
<mgrwt>
<rscale>  0 0.37359721E+03</rscale>
<asrwt>0</asrwt>
<pdfrwt beam="1">  1        1 0.76097763E-01 0.37359721E+03</pdfrwt>
<pdfrwt beam="2">  1       -1 0.93579193E-02 0.37359721E+03</pdfrwt>
<totfact> 0.31100112E+03</totfact>
</mgrwt>
</event>
<event>
 4    1  0.2559694E-005  0.1137293E+04  0.7818608E-02  0.9169587E-01
          1   -1    0    0  501    0  0.00000000000E+00  0.00000000000E+00  0.25306727002E+03  0.25306727007E+03  0.50400000000E-02 0.  1.
         -1   -1    0    0    0  501 -0.00000000000E+00 -0.00000000000E+00 -0.12777590449E+04  0.12777590449E+04  0.50400000000E-02 0. -1.
    5000001    1    1    2    0    0 -0.82978476681E+01  0.44392239271E+03 -0.88832866063E+02  0.48192553690E+03  0.16500000000E+03 0.  0.
   -5000001    1    1    2    0    0  0.82978476681E+01 -0.44392239271E+03 -0.93585890878E+03  0.10489007780E+04  0.16500000000E+03 0.  0.
<mgrwt>
<rscale>  0 0.11372933E+04</rscale>
<asrwt>0</asrwt>
<pdfrwt beam="1">  1        1 0.36152468E-01 0.11372933E+04</pdfrwt>
<pdfrwt beam="2">  1       -1 0.18253700E+00 0.11372933E+04</pdfrwt>
<totfact> 0.23931638E+01</totfact>
</mgrwt>
</event>
<event>
 4    1  0.2559694E-005  0.6800752E+03  0.7818608E-02  0.9751926E-01
          1   -1    0    0  501    0  0.00000000000E+00  0.00000000000E+00  0.34011406116E+02  0.34011406489E+02  0.50400000000E-02 0.  1.
         -1   -1    0    0    0  501 -0.00000000000E+00 -0.00000000000E+00 -0.33996118773E+04  0.33996118773E+04  0.50400000000E-02 0. -1.
    5000001    1    1    2    0    0 -0.14195748168E+03 -0.17349089582E+03 -0.26689445415E+04  0.26834196435E+04  0.16500000000E+03 0.  0.
   -5000001    1    1    2    0    0  0.14195748168E+03  0.17349089582E+03 -0.69665592965E+03  0.75020364025E+03  0.16500000000E+03 0.  0.
<mgrwt>
<rscale>  0 0.68007523E+03</rscale>
<asrwt>0</asrwt>
<pdfrwt beam="1">  1        1 0.48587745E-02 0.68007523E+03</pdfrwt>
<pdfrwt beam="2">  1       -1 0.48565862E+00 0.68007523E+03</pdfrwt>
<totfact> 0.36648847E+00</totfact>
</mgrwt>
</event>
<event>
 4    1  0.2559694E-005  0.6970509E+03  0.7818608E-02  0.9722289E-01
         -1   -1    0    0    0  501 -0.00000000000E+00  0.00000000000E+00  0.34685584329E+02  0.34685584695E+02  0.50400000000E-02 0. -1.
          1   -1    0    0  501    0  0.00000000000E+00 -0.00000000000E+00 -0.35020305504E+04  0.35020305504E+04  0.50400000000E-02 0.  1.
    5000001    1    1    2    0    0 -0.30509731075E+03  0.30917396960E+02 -0.16610755671E+04  0.16971851090E+04  0.16500000000E+03 0.  0.
   -5000001    1    1    2    0    0  0.30509731075E+03 -0.30917396960E+02 -0.18062693989E+04  0.18395310261E+04  0.16500000000E+03 0.  0.
<mgrwt>
<rscale>  0 0.69705086E+03</rscale>
<asrwt>0</asrwt>
<pdfrwt beam="1">  1        1 0.50028985E+00 0.69705086E+03</pdfrwt>
<pdfrwt beam="2">  1       -1 0.49550857E-02 0.69705086E+03</pdfrwt>
<totfact> 0.78532285E+01</totfact>
</mgrwt>
</event>
<event>
 4    1  0.2559694E-005  0.4060942E+03  0.7818608E-02  0.1041690E+00
          1   -1    0    0  501    0  0.00000000000E+00  0.00000000000E+00  0.65869289953E+03  0.65869289955E+03  0.50400000000E-02 0.  1.
         -1   -1    0    0    0  501 -0.00000000000E+00 -0.00000000000E+00 -0.62590806084E+02  0.62590806287E+02  0.50400000000E-02 0. -1.
    5000001    1    1    2    0    0 -0.83386470895E+02  0.29786402789E+01  0.44708828723E+03  0.48381309656E+03  0.16500000000E+03 0.  0.
   -5000001    1    1    2    0    0  0.83386470895E+02 -0.29786402789E+01  0.14901380621E+03  0.23747060927E+03  0.16500000000E+03 0.  0.
<mgrwt>
<rscale>  0 0.40609417E+03</rscale>
<asrwt>0</asrwt>
<pdfrwt beam="1">  1        1 0.94098988E-01 0.40609417E+03</pdfrwt>
<pdfrwt beam="2">  1       -1 0.89415436E-02 0.40609417E+03</pdfrwt>
<totfact> 0.24943127E+03</totfact>
</mgrwt>
</event>
<event>
 4    1  0.2559694E-005  0.7729130E+03  0.7818608E-02  0.9600074E-01
         -1   -1    0    0    0  501 -0.00000000000E+00  0.00000000000E+00  0.41389281759E+03  0.41389281762E+03  0.50400000000E-02 0.  1.
          1   -1    0    0  501    0  0.00000000000E+00 -0.00000000000E+00 -0.36083892851E+03  0.36083892855E+03  0.50400000000E-02 0. -1.
    5000001    1    1    2    0    0  0.27827719204E+03 -0.10182021922E+03 -0.15916038156E+03  0.37464994289E+03  0.16500000000E+03 0.  0.
   -5000001    1    1    2    0    0 -0.27827719204E+03  0.10182021922E+03  0.21221427064E+03  0.40008180327E+03  0.16500000000E+03 0.  0.
<mgrwt>
<rscale>  0 0.77291304E+03</rscale>
<asrwt>0</asrwt>
<pdfrwt beam="1">  1        1 0.51548418E-01 0.77291304E+03</pdfrwt>
<pdfrwt beam="2">  1       -1 0.59127546E-01 0.77291304E+03</pdfrwt>
<totfact> 0.22248185E+02</totfact>
</mgrwt>
</event>
<event>
 4    1  0.2559694E-005  0.4352997E+03  0.7818608E-02  0.1032199E+00
          1   -1    0    0  501    0  0.00000000000E+00  0.00000000000E+00  0.12317224058E+03  0.12317224069E+03  0.50400000000E-02 0.  1.
         -1   -1    0    0    0  501 -0.00000000000E+00 -0.00000000000E+00 -0.38459524357E+03  0.38459524360E+03  0.50400000000E-02 0. -1.
    5000001    1    1    2    0    0  0.31647435822E+02  0.13785502419E+03 -0.11686574719E+03  0.24675528516E+03  0.16500000000E+03 0.  0.
   -5000001    1    1    2    0    0 -0.31647435822E+02 -0.13785502419E+03 -0.14455725580E+03  0.26101219913E+03  0.16500000000E+03 0.  0.
<mgrwt>
<rscale>  0 0.43529970E+03</rscale>
<asrwt>0</asrwt>
<pdfrwt beam="1">  1        1 0.17596035E-01 0.43529970E+03</pdfrwt>
<pdfrwt beam="2">  1       -1 0.54942177E-01 0.43529970E+03</pdfrwt>
<totfact> 0.10437397E+03</totfact>
</mgrwt>
</event>
<event>
 4    1  0.2559694E-005  0.4684364E+03  0.7818608E-02  0.1022362E+00
          1   -1    0    0  501    0  0.00000000000E+00  0.00000000000E+00  0.22265294165E+04  0.22265294165E+04  0.50400000000E-02 0.  1.
         -1   -1    0    0    0  501 -0.00000000000E+00 -0.00000000000E+00 -0.24638422691E+02  0.24638423207E+02  0.50400000000E-02 0. -1.
    5000001    1    1    2    0    0 -0.11154274427E+03 -0.69840997270E+02  0.61289712076E+03  0.64821865858E+03  0.16500000000E+03 0.  0.
   -5000001    1    1    2    0    0  0.11154274427E+03  0.69840997270E+02  0.15889938730E+04  0.16029491811E+04  0.16500000000E+03 0.  0.
<mgrwt>
<rscale>  0 0.46843644E+03</rscale>
<asrwt>0</asrwt>
<pdfrwt beam="1">  1        1 0.31807539E+00 0.46843644E+03</pdfrwt>
<pdfrwt beam="2">  1       -1 0.35197774E-02 0.46843644E+03</pdfrwt>
<totfact> 0.89212581E+02</totfact>
</mgrwt>
</event>
<event>
 4    1  0.2559694E-005  0.1238707E+04  0.7818608E-02  0.9079635E-01
          1   -1    0    0  501    0  0.00000000000E+00  0.00000000000E+00  0.25994453492E+04  0.25994453492E+04  0.50400000000E-02 0.  1.
         -1   -1    0    0    0  501 -0.00000000000E+00 -0.00000000000E+00 -0.14756939482E+03  0.14756939491E+03  0.50400000000E-02 0. -1.
    5000001    1    1    2    0    0  0.27457043556E+03 -0.44795369331E+03  0.59743094533E+03  0.81252702716E+03  0.16500000000E+03 0.  0.
   -5000001    1    1    2    0    0 -0.27457043556E+03  0.44795369331E+03  0.18544450090E+04  0.19344877169E+04  0.16500000000E+03 0.  0.
<mgrwt>
<rscale>  0 0.12387067E+04</rscale>
<asrwt>0</asrwt>
<pdfrwt beam="1">  1        1 0.37134932E+00 0.12387067E+04</pdfrwt>
<pdfrwt beam="2">  1       -1 0.21081343E-01 0.12387067E+04</pdfrwt>
<totfact> 0.28873313E+01</totfact>
</mgrwt>
</event>
<event>
 4    1  0.2559694E-005  0.4204922E+03  0.7818608E-02  0.1036906E+00
         -1   -1    0    0    0  501 -0.00000000000E+00  0.00000000000E+00  0.75067663308E+02  0.75067663478E+02  0.50400000000E-02 0. -1.
          1   -1    0    0  501    0  0.00000000000E+00 -0.00000000000E+00 -0.58884768318E+03  0.58884768321E+03  0.50400000000E-02 0.  1.
    5000001    1    1    2    0    0  0.13028278780E+03 -0.10266068936E+01 -0.25995200503E+03  0.33432724034E+03  0.16500000000E+03 0.  0.
   -5000001    1    1    2    0    0 -0.13028278780E+03  0.10266068936E+01 -0.25382801485E+03  0.32958810634E+03  0.16500000000E+03 0.  0.
<mgrwt>
<rscale>  0 0.42049219E+03</rscale>
<asrwt>0</asrwt>
<pdfrwt beam="1">  1        1 0.84121095E-01 0.42049219E+03</pdfrwt>
<pdfrwt beam="2">  1       -1 0.10723952E-01 0.42049219E+03</pdfrwt>
<totfact> 0.21968832E+03</totfact>
</mgrwt>
</event>
<event>
 4    1  0.2559694E-005  0.8060785E+03  0.7818608E-02  0.9551260E-01
          1   -1    0    0  501    0  0.00000000000E+00  0.00000000000E+00  0.47219925871E+03  0.47219925873E+03  0.50400000000E-02 0.  1.
         -1   -1    0    0    0  501 -0.00000000000E+00 -0.00000000000E+00 -0.34400869216E+03  0.34400869220E+03  0.50400000000E-02 0. -1.
    5000001    1    1    2    0    0  0.21296562750E+03 -0.22126712036E+03 -0.14068896493E+03  0.37594132774E+03  0.16500000000E+03 0.  0.
   -5000001    1    1    2    0    0 -0.21296562750E+03  0.22126712036E+03  0.26887953147E+03  0.44026662319E+03  0.16500000000E+03 0.  0.
<mgrwt>
<rscale>  0 0.80607853E+03</rscale>
<asrwt>0</asrwt>
<pdfrwt beam="1">  1        1 0.67457037E-01 0.80607853E+03</pdfrwt>
<pdfrwt beam="2">  1       -1 0.49144099E-01 0.80607853E+03</pdfrwt>
<totfact> 0.22226130E+02</totfact>
</mgrwt>
</event>
<event>
 4    1  0.2559694E-005  0.3786984E+03  0.7818608E-02  0.1051416E+00
          1   -1    0    0  501    0  0.00000000000E+00  0.00000000000E+00  0.20383274867E+04  0.20383274867E+04  0.50400000000E-02 0. -1.
         -1   -1    0    0    0  501 -0.00000000000E+00 -0.00000000000E+00 -0.17589482031E+02  0.17589482753E+02  0.50400000000E-02 0.  1.
    5000001    1    1    2    0    0  0.87272780352E+02  0.31600505266E+01  0.83855462055E+03  0.85908403300E+03  0.16500000000E+03 0.  0.
   -5000001    1    1    2    0    0 -0.87272780352E+02 -0.31600505266E+01  0.11821833842E+04  0.11968329365E+04  0.16500000000E+03 0.  0.
<mgrwt>
<rscale>  0 0.37869843E+03</rscale>
<asrwt>0</asrwt>
<pdfrwt beam="1">  1        1 0.29118960E+00 0.37869843E+03</pdfrwt>
<pdfrwt beam="2">  1       -1 0.25127836E-02 0.37869843E+03</pdfrwt>
<totfact> 0.19332529E+03</totfact>
</mgrwt>
</event>
<event>
 4    1  0.2559694E-005  0.3743101E+03  0.7818608E-02  0.1053057E+00
          1   -1    0    0  501    0  0.00000000000E+00  0.00000000000E+00  0.29167862654E+03  0.29167862659E+03  0.50400000000E-02 0.  1.
         -1   -1    0    0    0  501 -0.00000000000E+00 -0.00000000000E+00 -0.12008769303E+03  0.12008769314E+03  0.50400000000E-02 0. -1.
    5000001    1    1    2    0    0 -0.30838080772E+02  0.81328205317E+02  0.10272182487E+03  0.21293669836E+03  0.16500000000E+03 0.  0.
   -5000001    1    1    2    0    0  0.30838080772E+02 -0.81328205317E+02  0.68869108637E+02  0.19882962136E+03  0.16500000000E+03 0.  0.
<mgrwt>
<rscale>  0 0.37431010E+03</rscale>
<asrwt>0</asrwt>
<pdfrwt beam="1">  1        1 0.41668375E-01 0.37431010E+03</pdfrwt>
<pdfrwt beam="2">  1       -1 0.17155385E-01 0.37431010E+03</pdfrwt>
<totfact> 0.25954249E+03</totfact>
</mgrwt>
</event>
<event>
 4    1  0.2559694E-005  0.5295474E+03  0.7818608E-02  0.1006342E+00
          1   -1    0    0  501    0  0.00000000000E+00  0.00000000000E+00  0.19063786245E+03  0.19063786252E+03  0.50400000000E-02 0.  1.
         -1   -1    0    0    0  501 -0.00000000000E+00 -0.00000000000E+00 -0.36773968372E+03  0.36773968375E+03  0.50400000000E-02 0. -1.
    5000001    1    1    2    0    0 -0.18200680576E+03 -0.19899535808E+02 -0.19055233838E+03  0.31154078791E+03  0.16500000000E+03 0.  0.
   -5000001    1    1    2    0    0  0.18200680576E+03  0.19899535808E+02  0.13450517120E+02  0.24683675836E+03  0.16500000000E+03 0.  0.
<mgrwt>
<rscale>  0 0.52954738E+03</rscale>
<asrwt>0</asrwt>
<pdfrwt beam="1">  1        1 0.27233980E-01 0.52954738E+03</pdfrwt>
<pdfrwt beam="2">  1       -1 0.52534240E-01 0.52954738E+03</pdfrwt>
<totfact> 0.64241751E+02</totfact>
</mgrwt>
</event>
<event>
 4    1  0.2559694E-005  0.7249241E+03  0.7818608E-02  0.9675533E-01
         -1   -1    0    0    0  501 -0.00000000000E+00  0.00000000000E+00  0.82939117800E+03  0.82939117801E+03  0.50400000000E-02 0.  1.
          1   -1    0    0  501    0  0.00000000000E+00 -0.00000000000E+00 -0.15840383056E+03  0.15840383064E+03  0.50400000000E-02 0. -1.
    5000001    1    1    2    0    0  0.36791452689E+02  0.19607557611E+03 -0.10177955504E+02  0.25909039603E+03  0.16500000000E+03 0.  0.
   -5000001    1    1    2    0    0 -0.36791452689E+02 -0.19607557611E+03  0.68116530294E+03  0.72870461262E+03  0.16500000000E+03 0.  0.
<mgrwt>
<rscale>  0 0.72492411E+03</rscale>
<asrwt>0</asrwt>
<pdfrwt beam="1">  1        1 0.22629119E-01 0.72492411E+03</pdfrwt>
<pdfrwt beam="2">  1       -1 0.11848445E+00 0.72492411E+03</pdfrwt>
<totfact> 0.14438371E+02</totfact>
</mgrwt>
</event>
<event>
 4    1  0.2559694E-005  0.4086249E+03  0.7818608E-02  0.1040833E+00
          1   -1    0    0  501    0  0.00000000000E+00  0.00000000000E+00  0.27474831027E+03  0.27474831032E+03  0.50400000000E-02 0.  1.
         -1   -1    0    0    0  501 -0.00000000000E+00 -0.00000000000E+00 -0.15193388323E+03  0.15193388331E+03  0.50400000000E-02 0. -1.
    5000001    1    1    2    0    0  0.12023913625E+03 -0.35708846703E+01  0.68669902067E+02  0.21543155886E+03  0.16500000000E+03 0.  0.
   -5000001    1    1    2    0    0 -0.12023913625E+03  0.35708846703E+01  0.54144524981E+02  0.21125063477E+03  0.16500000000E+03 0.  0.
<mgrwt>
<rscale>  0 0.40862490E+03</rscale>
<asrwt>0</asrwt>
<pdfrwt beam="1">  1        1 0.39249758E-01 0.40862490E+03</pdfrwt>
<pdfrwt beam="2">  1       -1 0.21704841E-01 0.40862490E+03</pdfrwt>
<totfact> 0.19078368E+03</totfact>
</mgrwt>
</event>
<event>
 4    1  0.2559694E-005  0.4953437E+03  0.7818608E-02  0.1015001E+00
          1   -1    0    0  501    0  0.00000000000E+00  0.00000000000E+00  0.25913246400E+03  0.25913246404E+03  0.50400000000E-02 0.  1.
         -1   -1    0    0    0  501 -0.00000000000E+00 -0.00000000000E+00 -0.23671808464E+03  0.23671808469E+03  0.50400000000E-02 0. -1.
    5000001    1    1    2    0    0 -0.29381974265E+02 -0.12125278960E+03 -0.12513350623E+03  0.24176214298E+03  0.16500000000E+03 0.  0.
   -5000001    1    1    2    0    0  0.29381974265E+02  0.12125278960E+03  0.14754788559E+03  0.25408840576E+03  0.16500000000E+03 0.  0.
<mgrwt>
<rscale>  0 0.49534368E+03</rscale>
<asrwt>0</asrwt>
<pdfrwt beam="1">  1        1 0.37018923E-01 0.49534368E+03</pdfrwt>
<pdfrwt beam="2">  1       -1 0.33816869E-01 0.49534368E+03</pdfrwt>
<totfact> 0.96677147E+02</totfact>
</mgrwt>
</event>
<event>
 4    1  0.2559694E-005  0.4474772E+03  0.7818608E-02  0.1028477E+00
         -1   -1    0    0    0  501 -0.00000000000E+00  0.00000000000E+00  0.30036131026E+03  0.30036131030E+03  0.50400000000E-02 0.  1.
          1   -1    0    0  501    0  0.00000000000E+00 -0.00000000000E+00 -0.16666246421E+03  0.16666246428E+03  0.50400000000E-02 0. -1.
    5000001    1    1    2    0    0 -0.12062708138E+03  0.79611406180E+02  0.11287907155E+03  0.24668918410E+03  0.16500000000E+03 0.  0.
   -5000001    1    1    2    0    0  0.12062708138E+03 -0.79611406180E+02  0.20819774506E+02  0.22033459049E+03  0.16500000000E+03 0.  0.
<mgrwt>
<rscale>  0 0.44747718E+03</rscale>
<asrwt>0</asrwt>
<pdfrwt beam="1">  1        1 0.23808924E-01 0.44747718E+03</pdfrwt>
<pdfrwt beam="2">  1       -1 0.42908758E-01 0.44747718E+03</pdfrwt>
<totfact> 0.11142058E+03</totfact>
</mgrwt>
</event>
<event>
 4    1  0.2559694E-005  0.3883212E+03  0.7818608E-02  0.1047900E+00
         -1   -1    0    0    0  501 -0.00000000000E+00  0.00000000000E+00  0.28047628511E+02  0.28047628964E+02  0.50400000000E-02 0. -1.
          1   -1    0    0  501    0  0.00000000000E+00 -0.00000000000E+00 -0.13440830045E+04  0.13440830045E+04  0.50400000000E-02 0.  1.
    5000001    1    1    2    0    0  0.30336317571E+02  0.94569742052E+02 -0.57077452600E+03  0.60238881779E+03  0.16500000000E+03 0.  0.
   -5000001    1    1    2    0    0 -0.30336317571E+02 -0.94569742052E+02 -0.74526084997E+03  0.76974181566E+03  0.16500000000E+03 0.  0.
<mgrwt>
<rscale>  0 0.38832121E+03</rscale>
<asrwt>0</asrwt>
<pdfrwt beam="1">  1        1 0.19201182E+00 0.38832121E+03</pdfrwt>
<pdfrwt beam="2">  1       -1 0.40068049E-02 0.38832121E+03</pdfrwt>
<totfact> 0.26039615E+03</totfact>
</mgrwt>
</event>
<event>
 4    1  0.2559694E-005  0.3969762E+03  0.7818608E-02  0.1044832E+00
         -1   -1    0    0    0  501 -0.00000000000E+00  0.00000000000E+00  0.20236571520E+02  0.20236572147E+02  0.50400000000E-02 0. -1.
          1   -1    0    0  501    0  0.00000000000E+00 -0.00000000000E+00 -0.19468477047E+04  0.19468477047E+04  0.50400000000E-02 0.  1.
    5000001    1    1    2    0    0  0.13213690708E+00 -0.82953693494E+02 -0.60286371023E+03  0.63051644375E+03  0.16500000000E+03 0.  0.
   -5000001    1    1    2    0    0 -0.13213690708E+00  0.82953693494E+02 -0.13237474229E+04  0.13365678331E+04  0.16500000000E+03 0.  0.
<mgrwt>
<rscale>  0 0.39697619E+03</rscale>
<asrwt>0</asrwt>
<pdfrwt beam="1">  1        1 0.27812098E+00 0.39697619E+03</pdfrwt>
<pdfrwt beam="2">  1       -1 0.28909401E-02 0.39697619E+03</pdfrwt>
<totfact> 0.17833075E+03</totfact>
</mgrwt>
</event>
<event>
 4    1  0.2559694E-005  0.4926826E+03  0.7818608E-02  0.1015707E+00
          1   -1    0    0  501    0  0.00000000000E+00  0.00000000000E+00  0.31565706518E+03  0.31565706522E+03  0.50400000000E-02 0.  1.
         -1   -1    0    0    0  501 -0.00000000000E+00 -0.00000000000E+00 -0.19224668609E+03  0.19224668615E+03  0.50400000000E-02 0. -1.
    5000001    1    1    2    0    0 -0.17668412293E+03  0.42467660525E+02  0.83286204236E+02  0.25919562747E+03  0.16500000000E+03 0.  0.
   -5000001    1    1    2    0    0  0.17668412293E+03 -0.42467660525E+02  0.40124174857E+02  0.24870812390E+03  0.16500000000E+03 0.  0.
<mgrwt>
<rscale>  0 0.49268255E+03</rscale>
<asrwt>0</asrwt>
<pdfrwt beam="1">  1        1 0.45093866E-01 0.49268255E+03</pdfrwt>
<pdfrwt beam="2">  1       -1 0.27463812E-01 0.49268255E+03</pdfrwt>
<totfact> 0.10768490E+03</totfact>
</mgrwt>
</event>
<event>
 4    1  0.2559694E-005  0.4010532E+03  0.7818608E-02  0.1043416E+00
          1   -1    0    0  501    0  0.00000000000E+00  0.00000000000E+00  0.21810295590E+03  0.21810295596E+03  0.50400000000E-02 0.  1.
         -1   -1    0    0    0  501 -0.00000000000E+00 -0.00000000000E+00 -0.18436668761E+03  0.18436668768E+03  0.50400000000E-02 0. -1.
    5000001    1    1    2    0    0 -0.66589141450E+02  0.91067162293E+02  0.33005279548E+02  0.20258748798E+03  0.16500000000E+03 0.  0.
   -5000001    1    1    2    0    0  0.66589141450E+02 -0.91067162293E+02  0.73098873728E+00  0.19988215566E+03  0.16500000000E+03 0.  0.
<mgrwt>
<rscale>  0 0.40105321E+03</rscale>
<asrwt>0</asrwt>
<pdfrwt beam="1">  1        1 0.31157565E-01 0.40105321E+03</pdfrwt>
<pdfrwt beam="2">  1       -1 0.26338098E-01 0.40105321E+03</pdfrwt>
<totfact> 0.18515807E+03</totfact>
</mgrwt>
</event>
<event>
 4    1  0.2559694E-005  0.5462503E+03  0.7818608E-02  0.1002366E+00
          1   -1    0    0  501    0  0.00000000000E+00  0.00000000000E+00  0.53844710242E+02  0.53844710478E+02  0.50400000000E-02 0.  1.
         -1   -1    0    0    0  501 -0.00000000000E+00 -0.00000000000E+00 -0.13854166622E+04  0.13854166622E+04  0.50400000000E-02 0. -1.
    5000001    1    1    2    0    0  0.94711190724E+02 -0.99813564629E+02 -0.11101185732E+04  0.11307171193E+04  0.16500000000E+03 0.  0.
   -5000001    1    1    2    0    0 -0.94711190724E+02  0.99813564629E+02 -0.22145337877E+03  0.30854425339E+03  0.16500000000E+03 0.  0.
<mgrwt>
<rscale>  0 0.54625034E+03</rscale>
<asrwt>0</asrwt>
<pdfrwt beam="1">  1        1 0.76921023E-02 0.54625034E+03</pdfrwt>
<pdfrwt beam="2">  1       -1 0.19791664E+00 0.54625034E+03</pdfrwt>
<totfact> 0.15532661E+02</totfact>
</mgrwt>
</event>
<event>
 4    1  0.2559694E-005  0.4677437E+03  0.7818608E-02  0.1022559E+00
         -1   -1    0    0    0  501 -0.00000000000E+00  0.00000000000E+00  0.40906989481E+02  0.40906989792E+02  0.50400000000E-02 0. -1.
          1   -1    0    0  501    0  0.00000000000E+00 -0.00000000000E+00 -0.13370828289E+04  0.13370828289E+04  0.50400000000E-02 0.  1.
    5000001    1    1    2    0    0 -0.98881009764E+02 -0.91651970386E+02 -0.36408183325E+03  0.42185082561E+03  0.16500000000E+03 0.  0.
   -5000001    1    1    2    0    0  0.98881009764E+02  0.91651970386E+02 -0.93209400615E+03  0.95613899307E+03  0.16500000000E+03 0.  0.
<mgrwt>
<rscale>  0 0.46774366E+03</rscale>
<asrwt>0</asrwt>
<pdfrwt beam="1">  1        1 0.19101181E+00 0.46774366E+03</pdfrwt>
<pdfrwt beam="2">  1       -1 0.58438565E-02 0.46774366E+03</pdfrwt>
<totfact> 0.14831657E+03</totfact>
</mgrwt>
</event>
<event>
 4    1  0.2559694E-005  0.5053188E+03  0.7818608E-02  0.1012400E+00
          1   -1    0    0  501    0  0.00000000000E+00  0.00000000000E+00  0.53801561596E+03  0.53801561599E+03  0.50400000000E-02 0.  1.
         -1   -1    0    0    0  501 -0.00000000000E+00 -0.00000000000E+00 -0.11865227166E+03  0.11865227176E+03  0.50400000000E-02 0. -1.
    5000001    1    1    2    0    0 -0.90218335738E+01 -0.19017038747E+03  0.18483395112E+03  0.31246561289E+03  0.16500000000E+03 0.  0.
   -5000001    1    1    2    0    0  0.90218335738E+01  0.19017038747E+03  0.23452939319E+03  0.34420227486E+03  0.16500000000E+03 0.  0.
<mgrwt>
<rscale>  0 0.50531881E+03</rscale>
<asrwt>0</asrwt>
<pdfrwt beam="1">  1        1 0.76859375E-01 0.50531881E+03</pdfrwt>
<pdfrwt beam="2">  1       -1 0.16950324E-01 0.50531881E+03</pdfrwt>
<totfact> 0.11965878E+03</totfact>
</mgrwt>
</event>
<event>
 4    1  0.2559694E-005  0.3674168E+03  0.7818608E-02  0.1055685E+00
         -1   -1    0    0    0  501 -0.00000000000E+00  0.00000000000E+00  0.15013245013E+02  0.15013245859E+02  0.50400000000E-02 0. -1.
          1   -1    0    0  501    0  0.00000000000E+00 -0.00000000000E+00 -0.22479332315E+04  0.22479332315E+04  0.50400000000E-02 0.  1.
    5000001    1    1    2    0    0  0.76166242792E+02 -0.25220116052E+02 -0.10592029628E+04  0.10749759380E+04  0.16500000000E+03 0.  0.
   -5000001    1    1    2    0    0 -0.76166242792E+02  0.25220116052E+02 -0.11737170237E+04  0.11879705394E+04  0.16500000000E+03 0.  0.
<mgrwt>
<rscale>  0 0.36741678E+03</rscale>
<asrwt>0</asrwt>
<pdfrwt beam="1">  1        1 0.32113310E+00 0.36741678E+03</pdfrwt>
<pdfrwt beam="2">  1       -1 0.21447508E-02 0.36741678E+03</pdfrwt>
<totfact> 0.18226529E+03</totfact>
</mgrwt>
</event>
<event>
 4    1  0.2559694E-005  0.8231982E+03  0.7818608E-02  0.9527033E-01
         -1   -1    0    0    0  501 -0.00000000000E+00  0.00000000000E+00  0.22673623808E+04  0.22673623808E+04  0.50400000000E-02 0.  1.
          1   -1    0    0  501    0  0.00000000000E+00 -0.00000000000E+00 -0.74718455100E+02  0.74718455270E+02  0.50400000000E-02 0. -1.
    5000001    1    1    2    0    0 -0.26411157397E+03  0.26303152352E+03  0.12584753832E+04  0.13228476087E+04  0.16500000000E+03 0.  0.
   -5000001    1    1    2    0    0  0.26411157397E+03 -0.26303152352E+03  0.93416854252E+03  0.10192332273E+04  0.16500000000E+03 0.  0.
<mgrwt>
<rscale>  0 0.82319819E+03</rscale>
<asrwt>0</asrwt>
<pdfrwt beam="1">  1        1 0.10674065E-01 0.82319819E+03</pdfrwt>
<pdfrwt beam="2">  1       -1 0.32390891E+00 0.82319819E+03</pdfrwt>
<totfact> 0.14712039E+01</totfact>
</mgrwt>
</event>
<event>
 4    1  0.2559694E-005  0.3822279E+03  0.7818608E-02  0.1050113E+00
          1   -1    0    0  501    0  0.00000000000E+00  0.00000000000E+00  0.84098393395E+03  0.84098393396E+03  0.50400000000E-02 0.  1.
         -1   -1    0    0    0  501 -0.00000000000E+00 -0.00000000000E+00 -0.43430733371E+02  0.43430733664E+02  0.50400000000E-02 0. -1.
    5000001    1    1    2    0    0  0.55957321957E+02 -0.75859998432E+02  0.35172033882E+03  0.39977263285E+03  0.16500000000E+03 0.  0.
   -5000001    1    1    2    0    0 -0.55957321957E+02  0.75859998432E+02  0.44583286176E+03  0.48464203477E+03  0.16500000000E+03 0.  0.
<mgrwt>
<rscale>  0 0.38222794E+03</rscale>
<asrwt>0</asrwt>
<pdfrwt beam="1">  1        1 0.12014055E+00 0.38222794E+03</pdfrwt>
<pdfrwt beam="2">  1       -1 0.62043912E-02 0.38222794E+03</pdfrwt>
<totfact> 0.30499322E+03</totfact>
</mgrwt>
</event>
<event>
 4    1  0.2559694E-005  0.5940606E+03  0.7818608E-02  0.9917806E-01
          1   -1    0    0  501    0  0.00000000000E+00  0.00000000000E+00  0.28509152138E+03  0.28509152142E+03  0.50400000000E-02 0.  1.
         -1   -1    0    0    0  501 -0.00000000000E+00 -0.00000000000E+00 -0.30946899574E+03  0.30946899578E+03  0.50400000000E-02 0. -1.
    5000001    1    1    2    0    0  0.33869320335E+02  0.23954367300E+03  0.37589271435E+02  0.29523931896E+03  0.16500000000E+03 0.  0.
   -5000001    1    1    2    0    0 -0.33869320335E+02 -0.23954367300E+03 -0.61966745795E+02  0.29932119824E+03  0.16500000000E+03 0.  0.
<mgrwt>
<rscale>  0 0.59406056E+03</rscale>
<asrwt>0</asrwt>
<pdfrwt beam="1">  1        1 0.40727360E-01 0.59406056E+03</pdfrwt>
<pdfrwt beam="2">  1       -1 0.44209856E-01 0.59406056E+03</pdfrwt>
<totfact> 0.52761534E+02</totfact>
</mgrwt>
</event>
<event>
 4    1  0.2559694E-005  0.4456980E+03  0.7818608E-02  0.1029013E+00
          1   -1    0    0  501    0  0.00000000000E+00  0.00000000000E+00  0.11996862033E+03  0.11996862043E+03  0.50400000000E-02 0.  1.
         -1   -1    0    0    0  501 -0.00000000000E+00 -0.00000000000E+00 -0.41395560177E+03  0.41395560180E+03  0.50400000000E-02 0. -1.
    5000001    1    1    2    0    0 -0.14520526112E+03 -0.18323803132E+02 -0.18518450267E+03  0.28799067632E+03  0.16500000000E+03 0.  0.
   -5000001    1    1    2    0    0  0.14520526112E+03  0.18323803132E+02 -0.10880247878E+03  0.24593354591E+03  0.16500000000E+03 0.  0.
<mgrwt>
<rscale>  0 0.44569803E+03</rscale>
<asrwt>0</asrwt>
<pdfrwt beam="1">  1        1 0.17138375E-01 0.44569803E+03</pdfrwt>
<pdfrwt beam="2">  1       -1 0.59136514E-01 0.44569803E+03</pdfrwt>
<totfact> 0.93802126E+02</totfact>
</mgrwt>
</event>
<event>
 4    1  0.2559694E-005  0.4579669E+03  0.7818608E-02  0.1025373E+00
          1   -1    0    0  501    0  0.00000000000E+00  0.00000000000E+00  0.96233287043E+03  0.96233287044E+03  0.50400000000E-02 0. -1.
         -1   -1    0    0    0  501 -0.00000000000E+00 -0.00000000000E+00 -0.54485740941E+02  0.54485741174E+02  0.50400000000E-02 0.  1.
    5000001    1    1    2    0    0 -0.14154240858E+03  0.65301023392E+02  0.52089912876E+03  0.56820716242E+03  0.16500000000E+03 0.  0.
   -5000001    1    1    2    0    0  0.14154240858E+03 -0.65301023392E+02  0.38694800072E+03  0.44861144919E+03  0.16500000000E+03 0.  0.
<mgrwt>
<rscale>  0 0.45796690E+03</rscale>
<asrwt>0</asrwt>
<pdfrwt beam="1">  1        1 0.13747612E+00 0.45796690E+03</pdfrwt>
<pdfrwt beam="2">  1       -1 0.77836774E-02 0.45796690E+03</pdfrwt>
<totfact> 0.17368183E+03</totfact>
</mgrwt>
</event>
<event>
 4    1  0.2559694E-005  0.5471042E+03  0.7818608E-02  0.1002166E+00
          1   -1    0    0  501    0  0.00000000000E+00  0.00000000000E+00  0.75348364367E+03  0.75348364369E+03  0.50400000000E-02 0.  1.
         -1   -1    0    0    0  501 -0.00000000000E+00 -0.00000000000E+00 -0.99313028158E+02  0.99313028286E+02  0.50400000000E-02 0. -1.
    5000001    1    1    2    0    0 -0.64444205708E+02  0.20272790003E+03  0.25145661907E+03  0.36838443015E+03  0.16500000000E+03 0.  0.
   -5000001    1    1    2    0    0  0.64444205708E+02 -0.20272790003E+03  0.40271399645E+03  0.48441224183E+03  0.16500000000E+03 0.  0.
<mgrwt>
<rscale>  0 0.54710417E+03</rscale>
<asrwt>0</asrwt>
<pdfrwt beam="1">  1        1 0.10764052E+00 0.54710417E+03</pdfrwt>
<pdfrwt beam="2">  1       -1 0.14187575E-01 0.54710417E+03</pdfrwt>
<totfact> 0.98854633E+02</totfact>
</mgrwt>
</event>
<event>
 4    1  0.2559694E-005  0.9541945E+03  0.7818608E-02  0.9360261E-01
         -1   -1    0    0    0  501 -0.00000000000E+00  0.00000000000E+00  0.34954857392E+03  0.34954857395E+03  0.50400000000E-02 0. -1.
          1   -1    0    0  501    0  0.00000000000E+00 -0.00000000000E+00 -0.65118787090E+03  0.65118787092E+03  0.50400000000E-02 0.  1.
    5000001    1    1    2    0    0 -0.25699747745E+03 -0.69439955525E+02  0.22663367909E+03  0.38659725211E+03  0.16500000000E+03 0.  0.
   -5000001    1    1    2    0    0  0.25699747745E+03  0.69439955525E+02 -0.52827297607E+03  0.61413919276E+03  0.16500000000E+03 0.  0.
<mgrwt>
<rscale>  0 0.95419451E+03</rscale>
<asrwt>0</asrwt>
<pdfrwt beam="1">  1        1 0.93026838E-01 0.95419451E+03</pdfrwt>
<pdfrwt beam="2">  1       -1 0.49935511E-01 0.95419451E+03</pdfrwt>
<totfact> 0.13690655E+02</totfact>
</mgrwt>
</event>
<event>
 4    1  0.2559694E-005  0.5308378E+03  0.7818608E-02  0.1006029E+00
          1   -1    0    0  501    0  0.00000000000E+00  0.00000000000E+00  0.57614241214E+03  0.57614241216E+03  0.50400000000E-02 0. -1.
         -1   -1    0    0    0  501 -0.00000000000E+00 -0.00000000000E+00 -0.12227390811E+03  0.12227390822E+03  0.50400000000E-02 0.  1.
    5000001    1    1    2    0    0  0.12567568829E+03 -0.13764880214E+03  0.34809618334E+03  0.42794570241E+03  0.16500000000E+03 0.  0.
   -5000001    1    1    2    0    0 -0.12567568829E+03  0.13764880214E+03  0.10577232069E+03  0.27047061796E+03  0.16500000000E+03 0.  0.
<mgrwt>
<rscale>  0 0.53083777E+03</rscale>
<asrwt>0</asrwt>
<pdfrwt beam="1">  1        1 0.82306061E-01 0.53083777E+03</pdfrwt>
<pdfrwt beam="2">  1       -1 0.17467701E-01 0.53083777E+03</pdfrwt>
<totfact> 0.10370923E+03</totfact>
</mgrwt>
</event>
<event>
 4    1  0.2559694E-005  0.3804739E+03  0.7818608E-02  0.1050759E+00
         -1   -1    0    0    0  501 -0.00000000000E+00  0.00000000000E+00  0.25505802239E+03  0.25505802244E+03  0.50400000000E-02 0.  1.
          1   -1    0    0  501    0  0.00000000000E+00 -0.00000000000E+00 -0.14188963691E+03  0.14188963700E+03  0.50400000000E-02 0. -1.
    5000001    1    1    2    0    0  0.57128026203E+02 -0.36798676616E+02  0.12537335692E+03  0.21808537916E+03  0.16500000000E+03 0.  0.
   -5000001    1    1    2    0    0 -0.57128026203E+02  0.36798676616E+02 -0.12204971442E+02  0.17886228028E+03  0.16500000000E+03 0.  0.
<mgrwt>
<rscale>  0 0.38047386E+03</rscale>
<asrwt>0</asrwt>
<pdfrwt beam="1">  1        1 0.20269948E-01 0.38047386E+03</pdfrwt>
<pdfrwt beam="2">  1       -1 0.36436860E-01 0.38047386E+03</pdfrwt>
<totfact> 0.18381867E+03</totfact>
</mgrwt>
</event>
<event>
 4    1  0.2559694E-005  0.3842410E+03  0.7818608E-02  0.1049377E+00
          1   -1    0    0  501    0  0.00000000000E+00  0.00000000000E+00  0.11868478399E+04  0.11868478399E+04  0.50400000000E-02 0.  1.
         -1   -1    0    0    0  501 -0.00000000000E+00 -0.00000000000E+00 -0.31099423504E+02  0.31099423912E+02  0.50400000000E-02 0. -1.
    5000001    1    1    2    0    0 -0.62612350393E+02  0.54199320874E+02  0.74642052706E+03  0.76891252820E+03  0.16500000000E+03 0.  0.
   -5000001    1    1    2    0    0  0.62612350393E+02 -0.54199320874E+02  0.40932788930E+03  0.44903473558E+03  0.16500000000E+03 0.  0.
<mgrwt>
<rscale>  0 0.38424099E+03</rscale>
<asrwt>0</asrwt>
<pdfrwt beam="1">  1        1 0.16954972E+00 0.38424099E+03</pdfrwt>
<pdfrwt beam="2">  1       -1 0.44427739E-02 0.38424099E+03</pdfrwt>
<totfact> 0.28338803E+03</totfact>
</mgrwt>
</event>
<event>
 4    1  0.2559694E-005  0.4317126E+03  0.7818608E-02  0.1033320E+00
         -1   -1    0    0    0  501 -0.00000000000E+00  0.00000000000E+00  0.27657367321E+02  0.27657367780E+02  0.50400000000E-02 0. -1.
          1   -1    0    0  501    0  0.00000000000E+00 -0.00000000000E+00 -0.16846849654E+04  0.16846849654E+04  0.50400000000E-02 0.  1.
    5000001    1    1    2    0    0 -0.22834857284E+02 -0.10488862945E+03 -0.11798453081E+04  0.11961534209E+04  0.16500000000E+03 0.  0.
   -5000001    1    1    2    0    0  0.22834857284E+02  0.10488862945E+03 -0.47718228999E+03  0.51618891229E+03  0.16500000000E+03 0.  0.
<mgrwt>
<rscale>  0 0.43171264E+03</rscale>
<asrwt>0</asrwt>
<pdfrwt beam="1">  1        1 0.24066922E+00 0.43171264E+03</pdfrwt>
<pdfrwt beam="2">  1       -1 0.39510536E-02 0.43171264E+03</pdfrwt>
<totfact> 0.16168340E+03</totfact>
</mgrwt>
</event>
<event>
 4    1  0.2559694E-005  0.3688798E+03  0.7818608E-02  0.1055122E+00
         -1   -1    0    0    0  501 -0.00000000000E+00  0.00000000000E+00  0.10556245577E+03  0.10556245589E+03  0.50400000000E-02 0. -1.
          1   -1    0    0  501    0  0.00000000000E+00 -0.00000000000E+00 -0.32225540602E+03  0.32225540606E+03  0.50400000000E-02 0.  1.
    5000001    1    1    2    0    0 -0.45204661700E+02 -0.31324216838E+02 -0.37150933006E+02  0.17784785583E+03  0.16500000000E+03 0.  0.
   -5000001    1    1    2    0    0  0.45204661700E+02  0.31324216838E+02 -0.17954201725E+03  0.24997000611E+03  0.16500000000E+03 0.  0.
<mgrwt>
<rscale>  0 0.36887977E+03</rscale>
<asrwt>0</asrwt>
<pdfrwt beam="1">  1        1 0.46036486E-01 0.36887977E+03</pdfrwt>
<pdfrwt beam="2">  1       -1 0.15080351E-01 0.36887977E+03</pdfrwt>
<totfact> 0.28133945E+03</totfact>
</mgrwt>
</event>
<event>
 4    1  0.2559694E-005  0.7947549E+03  0.7818608E-02  0.9567640E-01
         -1   -1    0    0    0  501 -0.00000000000E+00  0.00000000000E+00  0.40005421058E+02  0.40005421376E+02  0.50400000000E-02 0.  1.
          1   -1    0    0  501    0  0.00000000000E+00 -0.00000000000E+00 -0.39471861891E+04  0.39471861891E+04  0.50400000000E-02 0. -1.
    5000001    1    1    2    0    0 -0.10483131061E+03  0.34188621287E+03 -0.22194406288E+04  0.22541112420E+04  0.16500000000E+03 0.  0.
   -5000001    1    1    2    0    0  0.10483131061E+03 -0.34188621287E+03 -0.16877401392E+04  0.17330803685E+04  0.16500000000E+03 0.  0.
<mgrwt>
<rscale>  0 0.79475492E+03</rscale>
<asrwt>0</asrwt>
<pdfrwt beam="1">  1        1 0.56388349E+00 0.79475492E+03</pdfrwt>
<pdfrwt beam="2">  1       -1 0.57150627E-02 0.79475492E+03</pdfrwt>
<totfact> 0.29951098E+01</totfact>
</mgrwt>
</event>
<event>
 4    1  0.2559694E-005  0.5805079E+03  0.7818608E-02  0.9946692E-01
         -1   -1    0    0    0  501 -0.00000000000E+00  0.00000000000E+00  0.14091971698E+03  0.14091971707E+03  0.50400000000E-02 0. -1.
          1   -1    0    0  501    0  0.00000000000E+00 -0.00000000000E+00 -0.59783930429E+03  0.59783930431E+03  0.50400000000E-02 0.  1.
    5000001    1    1    2    0    0 -0.14902913950E+03  0.17785575544E+03 -0.30022396321E+03  0.41376537101E+03  0.16500000000E+03 0.  0.
   -5000001    1    1    2    0    0  0.14902913950E+03 -0.17785575544E+03 -0.15669562410E+03  0.32499365036E+03  0.16500000000E+03 0.  0.
<mgrwt>
<rscale>  0 0.58050787E+03</rscale>
<asrwt>0</asrwt>
<pdfrwt beam="1">  1        1 0.85405614E-01 0.58050787E+03</pdfrwt>
<pdfrwt beam="2">  1       -1 0.20131388E-01 0.58050787E+03</pdfrwt>
<totfact> 0.77922316E+02</totfact>
</mgrwt>
</event>
<event>
 4    1  0.2559694E-005  0.4300393E+03  0.7818608E-02  0.1033848E+00
          1   -1    0    0  501    0  0.00000000000E+00  0.00000000000E+00  0.89533484450E+03  0.89533484451E+03  0.50400000000E-02 0.  1.
         -1   -1    0    0    0  501 -0.00000000000E+00 -0.00000000000E+00 -0.51638173753E+02  0.51638173999E+02  0.50400000000E-02 0. -1.
    5000001    1    1    2    0    0 -0.12122276228E+03 -0.20277076330E+02  0.28428842124E+03  0.35092880242E+03  0.16500000000E+03 0.  0.
   -5000001    1    1    2    0    0  0.12122276228E+03  0.20277076330E+02  0.55940824950E+03  0.59604421609E+03  0.16500000000E+03 0.  0.
<mgrwt>
<rscale>  0 0.43003933E+03</rscale>
<asrwt>0</asrwt>
<pdfrwt beam="1">  1        1 0.12790496E+00 0.43003933E+03</pdfrwt>
<pdfrwt beam="2">  1       -1 0.73768832E-02 0.43003933E+03</pdfrwt>
<totfact> 0.21215899E+03</totfact>
</mgrwt>
</event>
<event>
 4    1  0.2559694E-005  0.5711280E+03  0.7818608E-02  0.9967186E-01
          1   -1    0    0  501    0  0.00000000000E+00  0.00000000000E+00  0.29414818302E+03  0.29414818306E+03  0.50400000000E-02 0. -1.
         -1   -1    0    0    0  501 -0.00000000000E+00 -0.00000000000E+00 -0.27723036659E+03  0.27723036664E+03  0.50400000000E-02 0.  1.
    5000001    1    1    2    0    0 -0.17638426864E+03  0.15133755000E+03  0.25997837722E+02  0.28620858099E+03  0.16500000000E+03 0.  0.
   -5000001    1    1    2    0    0  0.17638426864E+03 -0.15133755000E+03 -0.90800213001E+01  0.28516996871E+03  0.16500000000E+03 0.  0.
<mgrwt>
<rscale>  0 0.57112804E+03</rscale>
<asrwt>0</asrwt>
<pdfrwt beam="1">  1        1 0.42021169E-01 0.57112804E+03</pdfrwt>
<pdfrwt beam="2">  1       -1 0.39604338E-01 0.57112804E+03</pdfrwt>
<totfact> 0.61973084E+02</totfact>
</mgrwt>
</event>
<event>
 4    1  0.2559694E-005  0.5985400E+03  0.7818608E-02  0.9908440E-01
         -1   -1    0    0    0  501 -0.00000000000E+00  0.00000000000E+00  0.47459799752E+02  0.47459800019E+02  0.50400000000E-02 0. -1.
          1   -1    0    0  501    0  0.00000000000E+00 -0.00000000000E+00 -0.18871238982E+04  0.18871238982E+04  0.50400000000E-02 0.  1.
    5000001    1    1    2    0    0  0.49962990059E+02  0.18713927906E+03 -0.41062284885E+03  0.48306680091E+03  0.16500000000E+03 0.  0.
   -5000001    1    1    2    0    0 -0.49962990059E+02 -0.18713927906E+03 -0.14290412496E+04  0.14515168973E+04  0.16500000000E+03 0.  0.
<mgrwt>
<rscale>  0 0.59853997E+03</rscale>
<asrwt>0</asrwt>
<pdfrwt beam="1">  1        1 0.26958908E+00 0.59853997E+03</pdfrwt>
<pdfrwt beam="2">  1       -1 0.67799726E-02 0.59853997E+03</pdfrwt>
<totfact> 0.52633367E+02</totfact>
</mgrwt>
</event>
<event>
 4    1  0.2559694E-005  0.3775871E+03  0.7818608E-02  0.1051829E+00
          1   -1    0    0  501    0  0.00000000000E+00  0.00000000000E+00  0.22353791061E+02  0.22353791629E+02  0.50400000000E-02 0. -1.
         -1   -1    0    0    0  501 -0.00000000000E+00 -0.00000000000E+00 -0.15944947807E+04  0.15944947807E+04  0.50400000000E-02 0.  1.
    5000001    1    1    2    0    0  0.44967686206E+02  0.77735168578E+02 -0.70560039899E+03  0.73017927408E+03  0.16500000000E+03 0.  0.
   -5000001    1    1    2    0    0 -0.44967686206E+02 -0.77735168578E+02 -0.86654059068E+03  0.88666929829E+03  0.16500000000E+03 0.  0.
<mgrwt>
<rscale>  0 0.37758710E+03</rscale>
<asrwt>0</asrwt>
<pdfrwt beam="1">  1        1 0.31933998E-02 0.37758710E+03</pdfrwt>
<pdfrwt beam="2">  1       -1 0.22778490E+00 0.37758710E+03</pdfrwt>
<totfact> 0.34190064E+02</totfact>
</mgrwt>
</event>
<event>
 4    1  0.2559694E-005  0.4037525E+03  0.7818608E-02  0.1042488E+00
         -1   -1    0    0    0  501 -0.00000000000E+00  0.00000000000E+00  0.59848815103E+03  0.59848815105E+03  0.50400000000E-02 0. -1.
          1   -1    0    0  501    0  0.00000000000E+00 -0.00000000000E+00 -0.68094932695E+02  0.68094932881E+02  0.50400000000E-02 0.  1.
    5000001    1    1    2    0    0 -0.27848353707E+02 -0.83820898293E+02  0.14025040860E+03  0.23387315132E+03  0.16500000000E+03 0.  0.
   -5000001    1    1    2    0    0  0.27848353707E+02  0.83820898293E+02  0.39014280974E+03  0.43270993262E+03  0.16500000000E+03 0.  0.
<mgrwt>
<rscale>  0 0.40375245E+03</rscale>
<asrwt>0</asrwt>
<pdfrwt beam="1">  1        1 0.97278471E-02 0.40375245E+03</pdfrwt>
<pdfrwt beam="2">  1       -1 0.85498311E-01 0.40375245E+03</pdfrwt>
<totfact> 0.94820335E+02</totfact>
</mgrwt>
</event>
<event>
 4    1  0.2559694E-005  0.4550770E+03  0.7818608E-02  0.1026219E+00
         -1   -1    0    0    0  501 -0.00000000000E+00  0.00000000000E+00  0.11144684746E+03  0.11144684757E+03  0.50400000000E-02 0. -1.
          1   -1    0    0  501    0  0.00000000000E+00 -0.00000000000E+00 -0.46456013566E+03  0.46456013568E+03  0.50400000000E-02 0.  1.
    5000001    1    1    2    0    0  0.11072751403E+03  0.99024997219E+02 -0.11349519961E+03  0.24934452625E+03  0.16500000000E+03 0.  0.
   -5000001    1    1    2    0    0 -0.11072751403E+03 -0.99024997219E+02 -0.23961808859E+03  0.32666245700E+03  0.16500000000E+03 0.  0.
<mgrwt>
<rscale>  0 0.45507697E+03</rscale>
<asrwt>0</asrwt>
<pdfrwt beam="1">  1        1 0.66365733E-01 0.45507697E+03</pdfrwt>
<pdfrwt beam="2">  1       -1 0.15920978E-01 0.45507697E+03</pdfrwt>
<totfact> 0.16118734E+03</totfact>
</mgrwt>
</event>
<event>
 4    1  0.2559694E-005  0.5903447E+03  0.7818608E-02  0.9925643E-01
          1   -1    0    0  501    0  0.00000000000E+00  0.00000000000E+00  0.16520276229E+04  0.16520276229E+04  0.50400000000E-02 0.  1.
         -1   -1    0    0    0  501 -0.00000000000E+00 -0.00000000000E+00 -0.52739260834E+02  0.52739261075E+02  0.50400000000E-02 0. -1.
    5000001    1    1    2    0    0  0.23884061051E+03  0.39985548611E+02  0.90206909881E+03  0.94847105404E+03  0.16500000000E+03 0.  0.
   -5000001    1    1    2    0    0 -0.23884061051E+03 -0.39985548611E+02  0.69721926320E+03  0.75629582989E+03  0.16500000000E+03 0.  0.
<mgrwt>
<rscale>  0 0.59034470E+03</rscale>
<asrwt>0</asrwt>
<pdfrwt beam="1">  1        1 0.23600393E+00 0.59034470E+03</pdfrwt>
<pdfrwt beam="2">  1       -1 0.75341807E-02 0.59034470E+03</pdfrwt>
<totfact> 0.62666611E+02</totfact>
</mgrwt>
</event>
<event>
 4    1  0.2559694E-005  0.3396711E+03  0.7818608E-02  0.1066936E+00
          1   -1    0    0  501    0  0.00000000000E+00  0.00000000000E+00  0.38651932729E+03  0.38651932732E+03  0.50400000000E-02 0.  1.
         -1   -1    0    0    0  501 -0.00000000000E+00 -0.00000000000E+00 -0.74625273808E+02  0.74625273979E+02  0.50400000000E-02 0. -1.
    5000001    1    1    2    0    0 -0.29891051099E+02 -0.14142876557E+02  0.18707224050E+03  0.25162376489E+03  0.16500000000E+03 0.  0.
   -5000001    1    1    2    0    0  0.29891051099E+02  0.14142876557E+02  0.12482181298E+03  0.20952083641E+03  0.16500000000E+03 0.  0.
<mgrwt>
<rscale>  0 0.33967108E+03</rscale>
<asrwt>0</asrwt>
<pdfrwt beam="1">  1        1 0.55217047E-01 0.33967108E+03</pdfrwt>
<pdfrwt beam="2">  1       -1 0.10660753E-01 0.33967108E+03</pdfrwt>
<totfact> 0.38529811E+03</totfact>
</mgrwt>
</event>
<event>
 4    1  0.2559694E-005  0.3674569E+03  0.7818608E-02  0.1055670E+00
          1   -1    0    0  501    0  0.00000000000E+00  0.00000000000E+00  0.10398240875E+04  0.10398240875E+04  0.50400000000E-02 0.  1.
         -1   -1    0    0    0  501 -0.00000000000E+00 -0.00000000000E+00 -0.32463314077E+02  0.32463314468E+02  0.50400000000E-02 0. -1.
    5000001    1    1    2    0    0 -0.72130536133E+02  0.27513105204E+02  0.43392844191E+03  0.47061521214E+03  0.16500000000E+03 0.  0.
   -5000001    1    1    2    0    0  0.72130536133E+02 -0.27513105204E+02  0.57343233151E+03  0.60167218984E+03  0.16500000000E+03 0.  0.
<mgrwt>
<rscale>  0 0.36745686E+03</rscale>
<asrwt>0</asrwt>
<pdfrwt beam="1">  1        1 0.14854629E+00 0.36745686E+03</pdfrwt>
<pdfrwt beam="2">  1       -1 0.46376164E-02 0.36745686E+03</pdfrwt>
<totfact> 0.33595967E+03</totfact>
</mgrwt>
</event>
<event>
 4    1  0.2559694E-005  0.3861912E+03  0.7818608E-02  0.1048669E+00
         -1   -1    0    0    0  501 -0.00000000000E+00  0.00000000000E+00  0.15499743776E+02  0.15499744595E+02  0.50400000000E-02 0. -1.
          1   -1    0    0  501    0  0.00000000000E+00 -0.00000000000E+00 -0.24055828615E+04  0.24055828615E+04  0.50400000000E-02 0.  1.
    5000001    1    1    2    0    0  0.62005707880E+01 -0.93313866077E+02 -0.14223780340E+04  0.14349669670E+04  0.16500000000E+03 0.  0.
   -5000001    1    1    2    0    0 -0.62005707880E+01  0.93313866077E+02 -0.96770508376E+03  0.98611563917E+03  0.16500000000E+03 0.  0.
<mgrwt>
<rscale>  0 0.38619124E+03</rscale>
<asrwt>0</asrwt>
<pdfrwt beam="1">  1        1 0.34365446E+00 0.38619124E+03</pdfrwt>
<pdfrwt beam="2">  1       -1 0.22142507E-02 0.38619124E+03</pdfrwt>
<totfact> 0.13911452E+03</totfact>
</mgrwt>
</event>
<event>
 4    1  0.2559694E-005  0.8829231E+03  0.7818608E-02  0.9447184E-01
         -1   -1    0    0    0  501 -0.00000000000E+00  0.00000000000E+00  0.13066966324E+03  0.13066966334E+03  0.50400000000E-02 0. -1.
          1   -1    0    0  501    0  0.00000000000E+00 -0.00000000000E+00 -0.14914580563E+04  0.14914580563E+04  0.50400000000E-02 0.  1.
    5000001    1    1    2    0    0 -0.17404108631E+03 -0.37045513543E+03 -0.70182090517E+03  0.82903853350E+03  0.16500000000E+03 0.  0.
   -5000001    1    1    2    0    0  0.17404108631E+03  0.37045513543E+03 -0.65896748792E+03  0.79308918618E+03  0.16500000000E+03 0.  0.
<mgrwt>
<rscale>  0 0.88292315E+03</rscale>
<asrwt>0</asrwt>
<pdfrwt beam="1">  1        1 0.21306543E+00 0.88292315E+03</pdfrwt>
<pdfrwt beam="2">  1       -1 0.18667096E-01 0.88292315E+03</pdfrwt>
<totfact> 0.18214180E+02</totfact>
</mgrwt>
</event>
<event>
 4    1  0.2559694E-005  0.6972900E+03  0.7818608E-02  0.9721878E-01
          1   -1    0    0  501    0  0.00000000000E+00  0.00000000000E+00  0.15339924045E+04  0.15339924045E+04  0.50400000000E-02 0.  1.
         -1   -1    0    0    0  501 -0.00000000000E+00 -0.00000000000E+00 -0.79239862785E+02  0.79239862946E+02  0.50400000000E-02 0. -1.
    5000001    1    1    2    0    0 -0.14286021543E+03 -0.24053291207E+03  0.10206004717E+04  0.10710347547E+04  0.16500000000E+03 0.  0.
   -5000001    1    1    2    0    0  0.14286021543E+03  0.24053291207E+03  0.43415207003E+03  0.54219751277E+03  0.16500000000E+03 0.  0.
<mgrwt>
<rscale>  0 0.69729003E+03</rscale>
<asrwt>0</asrwt>
<pdfrwt beam="1">  1        1 0.21914175E+00 0.69729003E+03</pdfrwt>
<pdfrwt beam="2">  1       -1 0.11319981E-01 0.69729003E+03</pdfrwt>
<totfact> 0.38998411E+02</totfact>
</mgrwt>
</event>
<event>
 4    1  0.2559694E-005  0.4715550E+03  0.7818608E-02  0.1021482E+00
         -1   -1    0    0    0  501 -0.00000000000E+00  0.00000000000E+00  0.46031686106E+03  0.46031686109E+03  0.50400000000E-02 0. -1.
          1   -1    0    0  501    0  0.00000000000E+00 -0.00000000000E+00 -0.12076688991E+03  0.12076689001E+03  0.50400000000E-02 0.  1.
    5000001    1    1    2    0    0  0.79380233942E+02 -0.73323450415E+02  0.10585338563E+02  0.19752113637E+03  0.16500000000E+03 0.  0.
   -5000001    1    1    2    0    0 -0.79380233942E+02  0.73323450415E+02  0.32896463259E+03  0.38356261473E+03  0.16500000000E+03 0.  0.
<mgrwt>
<rscale>  0 0.47155503E+03</rscale>
<asrwt>0</asrwt>
<pdfrwt beam="1">  1        1 0.17252413E-01 0.47155503E+03</pdfrwt>
<pdfrwt beam="2">  1       -1 0.65759552E-01 0.47155503E+03</pdfrwt>
<totfact> 0.75446914E+02</totfact>
</mgrwt>
</event>
<event>
 4    1  0.2559694E-005  0.5193713E+03  0.7818608E-02  0.1008843E+00
          1   -1    0    0  501    0  0.00000000000E+00  0.00000000000E+00  0.12841275091E+04  0.12841275091E+04  0.50400000000E-02 0.  1.
         -1   -1    0    0    0  501 -0.00000000000E+00 -0.00000000000E+00 -0.52515536274E+02  0.52515536516E+02  0.50400000000E-02 0. -1.
    5000001    1    1    2    0    0  0.71426229440E+02  0.14370210561E+03  0.92527435337E+03  0.95347240674E+03  0.16500000000E+03 0.  0.
   -5000001    1    1    2    0    0 -0.71426229440E+02 -0.14370210561E+03  0.30633761943E+03  0.38317063887E+03  0.16500000000E+03 0.  0.
<mgrwt>
<rscale>  0 0.51937133E+03</rscale>
<asrwt>0</asrwt>
<pdfrwt beam="1">  1        1 0.18344677E+00 0.51937133E+03</pdfrwt>
<pdfrwt beam="2">  1       -1 0.75022202E-02 0.51937133E+03</pdfrwt>
<totfact> 0.10925943E+03</totfact>
</mgrwt>
</event>
<event>
 4    1  0.2559694E-005  0.3594411E+03  0.7818608E-02  0.1058805E+00
          1   -1    0    0  501    0  0.00000000000E+00  0.00000000000E+00  0.12290802188E+04  0.12290802188E+04  0.50400000000E-02 0. -1.
         -1   -1    0    0    0  501 -0.00000000000E+00 -0.00000000000E+00 -0.26279394541E+02  0.26279395024E+02  0.50400000000E-02 0.  1.
    5000001    1    1    2    0    0  0.17211585239E+02 -0.59756190005E+02  0.72275990480E+03  0.74395827900E+03  0.16500000000E+03 0.  0.
   -5000001    1    1    2    0    0 -0.17211585239E+02  0.59756190005E+02  0.48004091943E+03  0.51140133481E+03  0.16500000000E+03 0.  0.
<mgrwt>
<rscale>  0 0.35944115E+03</rscale>
<asrwt>0</asrwt>
<pdfrwt beam="1">  1        1 0.17558291E+00 0.35944115E+03</pdfrwt>
<pdfrwt beam="2">  1       -1 0.37541988E-02 0.35944115E+03</pdfrwt>
<totfact> 0.34173890E+03</totfact>
</mgrwt>
</event>
<event>
 4    1  0.2559694E-005  0.4946081E+03  0.7818608E-02  0.1015196E+00
          1   -1    0    0  501    0  0.00000000000E+00  0.00000000000E+00  0.12452407367E+04  0.12452407367E+04  0.50400000000E-02 0.  1.
         -1   -1    0    0    0  501 -0.00000000000E+00 -0.00000000000E+00 -0.49114424009E+02  0.49114424268E+02  0.50400000000E-02 0. -1.
    5000001    1    1    2    0    0  0.12772446198E+03  0.67098361789E+02  0.29832968108E+03  0.37019093311E+03  0.16500000000E+03 0.  0.
   -5000001    1    1    2    0    0 -0.12772446198E+03 -0.67098361789E+02  0.89779663163E+03  0.92416422789E+03  0.16500000000E+03 0.  0.
<mgrwt>
<rscale>  0 0.49460805E+03</rscale>
<asrwt>0</asrwt>
<pdfrwt beam="1">  1        1 0.17789154E+00 0.49460805E+03</pdfrwt>
<pdfrwt beam="2">  1       -1 0.70163461E-02 0.49460805E+03</pdfrwt>
<totfact> 0.12876160E+03</totfact>
</mgrwt>
</event>
<event>
 4    1  0.2559694E-005  0.4816802E+03  0.7818608E-02  0.1018674E+00
         -1   -1    0    0    0  501 -0.00000000000E+00  0.00000000000E+00  0.18913762183E+02  0.18913762854E+02  0.50400000000E-02 0. -1.
          1   -1    0    0  501    0  0.00000000000E+00 -0.00000000000E+00 -0.30667588880E+04  0.30667588880E+04  0.50400000000E-02 0.  1.
    5000001    1    1    2    0    0  0.10603997343E+03 -0.11448544071E+03 -0.20375095947E+04  0.20501272499E+04  0.16500000000E+03 0.  0.
   -5000001    1    1    2    0    0 -0.10603997343E+03  0.11448544071E+03 -0.10103355311E+04  0.10355454010E+04  0.16500000000E+03 0.  0.
<mgrwt>
<rscale>  0 0.48168018E+03</rscale>
<asrwt>0</asrwt>
<pdfrwt beam="1">  1        1 0.43810810E+00 0.48168018E+03</pdfrwt>
<pdfrwt beam="2">  1       -1 0.27019680E-02 0.48168018E+03</pdfrwt>
<totfact> 0.39391988E+02</totfact>
</mgrwt>
</event>
<event>
 4    1  0.2559694E-005  0.5412733E+03  0.7818608E-02  0.1003534E+00
          1   -1    0    0  501    0  0.00000000000E+00  0.00000000000E+00  0.77617131214E+03  0.77617131216E+03  0.50400000000E-02 0.  1.
         -1   -1    0    0    0  501 -0.00000000000E+00 -0.00000000000E+00 -0.94366007559E+02  0.94366007693E+02  0.50400000000E-02 0. -1.
    5000001    1    1    2    0    0  0.91820562466E+02  0.19189494864E+03  0.38537190533E+03  0.47009700321E+03  0.16500000000E+03 0.  0.
   -5000001    1    1    2    0    0 -0.91820562466E+02 -0.19189494864E+03  0.29643339925E+03  0.40044031665E+03  0.16500000000E+03 0.  0.
<mgrwt>
<rscale>  0 0.54127327E+03</rscale>
<asrwt>0</asrwt>
<pdfrwt beam="1">  1        1 0.11088161E+00 0.54127327E+03</pdfrwt>
<pdfrwt beam="2">  1       -1 0.13480859E-01 0.54127327E+03</pdfrwt>
<totfact> 0.10263760E+03</totfact>
</mgrwt>
</event>
<event>
 4    1  0.2559694E-005  0.4927223E+03  0.7818608E-02  0.1015696E+00
          1   -1    0    0  501    0  0.00000000000E+00  0.00000000000E+00  0.10947564570E+04  0.10947564570E+04  0.50400000000E-02 0.  1.
         -1   -1    0    0    0  501 -0.00000000000E+00 -0.00000000000E+00 -0.55440479508E+02  0.55440479737E+02  0.50400000000E-02 0. -1.
    5000001    1    1    2    0    0 -0.62103314782E+02 -0.13303734126E+03  0.26486835219E+03  0.34487099018E+03  0.16500000000E+03 0.  0.
   -5000001    1    1    2    0    0  0.62103314782E+02  0.13303734126E+03  0.77444762527E+03  0.80532594654E+03  0.16500000000E+03 0.  0.
<mgrwt>
<rscale>  0 0.49272233E+03</rscale>
<asrwt>0</asrwt>
<pdfrwt beam="1">  1        1 0.15639377E+00 0.49272233E+03</pdfrwt>
<pdfrwt beam="2">  1       -1 0.79200690E-02 0.49272233E+03</pdfrwt>
<totfact> 0.13547623E+03</totfact>
</mgrwt>
</event>
<event>
 4    1  0.2559694E-005  0.4555546E+03  0.7818608E-02  0.1026078E+00
          1   -1    0    0  501    0  0.00000000000E+00  0.00000000000E+00  0.73220600419E+03  0.73220600421E+03  0.50400000000E-02 0. -1.
         -1   -1    0    0    0  501 -0.00000000000E+00 -0.00000000000E+00 -0.70857786338E+02  0.70857786517E+02  0.50400000000E-02 0.  1.
    5000001    1    1    2    0    0  0.14116562518E+03  0.68172462152E+02  0.34666425414E+03  0.41470028144E+03  0.16500000000E+03 0.  0.
   -5000001    1    1    2    0    0 -0.14116562518E+03 -0.68172462152E+02  0.31468396371E+03  0.38836350929E+03  0.16500000000E+03 0.  0.
<mgrwt>
<rscale>  0 0.45555459E+03</rscale>
<asrwt>0</asrwt>
<pdfrwt beam="1">  1        1 0.10460086E+00 0.45555459E+03</pdfrwt>
<pdfrwt beam="2">  1       -1 0.10122541E-01 0.45555459E+03</pdfrwt>
<totfact> 0.17648754E+03</totfact>
</mgrwt>
</event>
<event>
 4    1  0.2559694E-005  0.7341285E+03  0.7818608E-02  0.9660585E-01
         -1   -1    0    0    0  501 -0.00000000000E+00  0.00000000000E+00  0.14367180076E+03  0.14367180085E+03  0.50400000000E-02 0. -1.
          1   -1    0    0  501    0  0.00000000000E+00 -0.00000000000E+00 -0.93780516914E+03  0.93780516916E+03  0.50400000000E-02 0.  1.
    5000001    1    1    2    0    0 -0.32746176647E+03  0.15070501674E+02 -0.40777401460E+03  0.54860092554E+03  0.16500000000E+03 0.  0.
   -5000001    1    1    2    0    0  0.32746176647E+03 -0.15070501674E+02 -0.38635935378E+03  0.53287604447E+03  0.16500000000E+03 0.  0.
<mgrwt>
<rscale>  0 0.73412848E+03</rscale>
<asrwt>0</asrwt>
<pdfrwt beam="1">  1        1 0.13397216E+00 0.73412848E+03</pdfrwt>
<pdfrwt beam="2">  1       -1 0.20524543E-01 0.73412848E+03</pdfrwt>
<totfact> 0.38019875E+02</totfact>
</mgrwt>
</event>
<event>
 4    1  0.2559694E-005  0.4338409E+03  0.7818608E-02  0.1032653E+00
         -1   -1    0    0    0  501 -0.00000000000E+00  0.00000000000E+00  0.15367974443E+03  0.15367974451E+03  0.50400000000E-02 0.  1.
          1   -1    0    0  501    0  0.00000000000E+00 -0.00000000000E+00 -0.30618528344E+03  0.30618528348E+03  0.50400000000E-02 0. -1.
    5000001    1    1    2    0    0  0.86826555342E+02  0.10535222600E+03 -0.11284198667E+03  0.24206663585E+03  0.16500000000E+03 0.  0.
   -5000001    1    1    2    0    0 -0.86826555342E+02 -0.10535222600E+03 -0.39663552347E+02  0.21779839215E+03  0.16500000000E+03 0.  0.
<mgrwt>
<rscale>  0 0.43384087E+03</rscale>
<asrwt>0</asrwt>
<pdfrwt beam="1">  1        1 0.43740754E-01 0.43384087E+03</pdfrwt>
<pdfrwt beam="2">  1       -1 0.21954249E-01 0.43384087E+03</pdfrwt>
<totfact> 0.16316529E+03</totfact>
</mgrwt>
</event>
<event>
 4    1  0.2559694E-005  0.4801950E+03  0.7818608E-02  0.1019082E+00
         -1   -1    0    0    0  501 -0.00000000000E+00  0.00000000000E+00  0.81295266538E+02  0.81295266694E+02  0.50400000000E-02 0. -1.
          1   -1    0    0  501    0  0.00000000000E+00 -0.00000000000E+00 -0.70910407042E+03  0.70910407044E+03  0.50400000000E-02 0.  1.
    5000001    1    1    2    0    0  0.76334463236E+02  0.93879446523E+02 -0.10712696700E+03  0.23095776197E+03  0.16500000000E+03 0.  0.
   -5000001    1    1    2    0    0 -0.76334463236E+02 -0.93879446523E+02 -0.52068183688E+03  0.55944157516E+03  0.16500000000E+03 0.  0.
<mgrwt>
<rscale>  0 0.48019498E+03</rscale>
<asrwt>0</asrwt>
<pdfrwt beam="1">  1        1 0.10130058E+00 0.48019498E+03</pdfrwt>
<pdfrwt beam="2">  1       -1 0.11613610E-01 0.48019498E+03</pdfrwt>
<totfact> 0.14897009E+03</totfact>
</mgrwt>
</event>
<event>
 4    1  0.2559694E-005  0.3781251E+03  0.7818608E-02  0.1051629E+00
          1   -1    0    0  501    0  0.00000000000E+00  0.00000000000E+00  0.30283967470E+03  0.30283967474E+03  0.50400000000E-02 0.  1.
         -1   -1    0    0    0  501 -0.00000000000E+00 -0.00000000000E+00 -0.11803159950E+03  0.11803159961E+03  0.50400000000E-02 0. -1.
    5000001    1    1    2    0    0  0.38159574823E+02 -0.74043231186E+02  0.48145898319E+02  0.19100152031E+03  0.16500000000E+03 0.  0.
   -5000001    1    1    2    0    0 -0.38159574823E+02  0.74043231186E+02  0.13666217688E+03  0.22986975405E+03  0.16500000000E+03 0.  0.
<mgrwt>
<rscale>  0 0.37812512E+03</rscale>
<asrwt>0</asrwt>
<pdfrwt beam="1">  1        1 0.43262811E-01 0.37812512E+03</pdfrwt>
<pdfrwt beam="2">  1       -1 0.16861657E-01 0.37812512E+03</pdfrwt>
<totfact> 0.25451556E+03</totfact>
</mgrwt>
</event>
<event>
 4    1  0.2559694E-005  0.6774076E+03  0.7818608E-02  0.9756668E-01
         -1   -1    0    0    0  501 -0.00000000000E+00  0.00000000000E+00  0.27614189308E+03  0.27614189313E+03  0.50400000000E-02 0.  1.
          1   -1    0    0  501    0  0.00000000000E+00 -0.00000000000E+00 -0.41543955345E+03  0.41543955348E+03  0.50400000000E-02 0. -1.
    5000001    1    1    2    0    0  0.26403913305E+03  0.11380182817E+02 -0.20527842257E+03  0.37310910350E+03  0.16500000000E+03 0.  0.
   -5000001    1    1    2    0    0 -0.26403913305E+03 -0.11380182817E+02  0.65980762198E+02  0.31847234310E+03  0.16500000000E+03 0.  0.
<mgrwt>
<rscale>  0 0.67740760E+03</rscale>
<asrwt>0</asrwt>
<pdfrwt beam="1">  1        1 0.59348507E-01 0.67740760E+03</pdfrwt>
<pdfrwt beam="2">  1       -1 0.39448842E-01 0.67740760E+03</pdfrwt>
<totfact> 0.39764177E+02</totfact>
</mgrwt>
</event>
<event>
 4    1  0.2559694E-005  0.4208019E+03  0.7818608E-02  0.1036806E+00
          1   -1    0    0  501    0  0.00000000000E+00  0.00000000000E+00  0.83697400851E+03  0.83697400853E+03  0.50400000000E-02 0.  1.
         -1   -1    0    0    0  501 -0.00000000000E+00 -0.00000000000E+00 -0.52891209292E+02  0.52891209532E+02  0.50400000000E-02 0. -1.
    5000001    1    1    2    0    0 -0.45354902904E+02  0.93126241196E+02  0.22400672376E+03  0.29687299693E+03  0.16500000000E+03 0.  0.
   -5000001    1    1    2    0    0  0.45354902904E+02 -0.93126241196E+02  0.56007607546E+03  0.59299222113E+03  0.16500000000E+03 0.  0.
<mgrwt>
<rscale>  0 0.42080194E+03</rscale>
<asrwt>0</asrwt>
<pdfrwt beam="1">  1        1 0.11956772E+00 0.42080194E+03</pdfrwt>
<pdfrwt beam="2">  1       -1 0.75558869E-02 0.42080194E+03</pdfrwt>
<totfact> 0.22726942E+03</totfact>
</mgrwt>
</event>
<event>
 4    1  0.2559694E-005  0.3397559E+03  0.7818608E-02  0.1066900E+00
          1   -1    0    0  501    0  0.00000000000E+00  0.00000000000E+00  0.29658724904E+02  0.29658725332E+02  0.50400000000E-02 0.  1.
         -1   -1    0    0    0  501 -0.00000000000E+00 -0.00000000000E+00 -0.97301954019E+03  0.97301954020E+03  0.50400000000E-02 0. -1.
    5000001    1    1    2    0    0  0.14606025590E+02 -0.34431835648E+02 -0.51688556877E+03  0.54387000146E+03  0.16500000000E+03 0.  0.
   -5000001    1    1    2    0    0 -0.14606025590E+02  0.34431835648E+02 -0.42647524652E+03  0.45880826408E+03  0.16500000000E+03 0.  0.
<mgrwt>
<rscale>  0 0.33975591E+03</rscale>
<asrwt>0</asrwt>
<pdfrwt beam="1">  1        1 0.42369614E-02 0.33975591E+03</pdfrwt>
<pdfrwt beam="2">  1       -1 0.13900277E+00 0.33975591E+03</pdfrwt>
<totfact> 0.96872357E+02</totfact>
</mgrwt>
</event>
<event>
 4    1  0.2559694E-005  0.5499244E+03  0.7818608E-02  0.1001511E+00
         -1   -1    0    0    0  501 -0.00000000000E+00  0.00000000000E+00  0.76906365683E+02  0.76906365848E+02  0.50400000000E-02 0. -1.
          1   -1    0    0  501    0  0.00000000000E+00 -0.00000000000E+00 -0.98306834251E+03  0.98306834252E+03  0.50400000000E-02 0.  1.
    5000001    1    1    2    0    0  0.90960285438E+02  0.19638056475E+03 -0.52872401767E+03  0.59465383762E+03  0.16500000000E+03 0.  0.
   -5000001    1    1    2    0    0 -0.90960285438E+02 -0.19638056475E+03 -0.37743795916E+03  0.46532087075E+03  0.16500000000E+03 0.  0.
<mgrwt>
<rscale>  0 0.54992441E+03</rscale>
<asrwt>0</asrwt>
<pdfrwt beam="1">  1        1 0.14043833E+00 0.54992441E+03</pdfrwt>
<pdfrwt beam="2">  1       -1 0.10986624E-01 0.54992441E+03</pdfrwt>
<totfact> 0.97579013E+02</totfact>
</mgrwt>
</event>
<event>
 4    1  0.2559694E-005  0.4175293E+03  0.7818608E-02  0.1037873E+00
          1   -1    0    0  501    0  0.00000000000E+00  0.00000000000E+00  0.72175363838E+03  0.72175363840E+03  0.50400000000E-02 0.  1.
         -1   -1    0    0    0  501 -0.00000000000E+00 -0.00000000000E+00 -0.60384418014E+02  0.60384418225E+02  0.50400000000E-02 0. -1.
    5000001    1    1    2    0    0 -0.44075363184E+02  0.11936474641E+03  0.35489912847E+03  0.41154461692E+03  0.16500000000E+03 0.  0.
   -5000001    1    1    2    0    0  0.44075363184E+02 -0.11936474641E+03  0.30647009190E+03  0.37059343971E+03  0.16500000000E+03 0.  0.
<mgrwt>
<rscale>  0 0.41752927E+03</rscale>
<asrwt>0</asrwt>
<pdfrwt beam="1">  1        1 0.10310766E+00 0.41752927E+03</pdfrwt>
<pdfrwt beam="2">  1       -1 0.86263461E-02 0.41752927E+03</pdfrwt>
<totfact> 0.23125947E+03</totfact>
</mgrwt>
</event>
<event>
 4    1  0.2559694E-005  0.7541637E+03  0.7818608E-02  0.9628841E-01
         -1   -1    0    0    0  501 -0.00000000000E+00  0.00000000000E+00  0.14466258592E+03  0.14466258601E+03  0.50400000000E-02 0.  1.
          1   -1    0    0  501    0  0.00000000000E+00 -0.00000000000E+00 -0.98291287700E+03  0.98291287701E+03  0.50400000000E-02 0. -1.
    5000001    1    1    2    0    0 -0.25441334684E+03 -0.21951829531E+03 -0.35140887103E+03  0.51344681094E+03  0.16500000000E+03 0.  0.
   -5000001    1    1    2    0    0  0.25441334684E+03  0.21951829531E+03 -0.48684142004E+03  0.61412865207E+03  0.16500000000E+03 0.  0.
<mgrwt>
<rscale>  0 0.75416369E+03</rscale>
<asrwt>0</asrwt>
<pdfrwt beam="1">  1        1 0.14041612E+00 0.75416369E+03</pdfrwt>
<pdfrwt beam="2">  1       -1 0.20666084E-01 0.75416369E+03</pdfrwt>
<totfact> 0.34703847E+02</totfact>
</mgrwt>
</event>
<event>
 4    1  0.2559694E-005  0.7522748E+03  0.7818608E-02  0.9631788E-01
         -1   -1    0    0    0  501 -0.00000000000E+00  0.00000000000E+00  0.54642690178E+03  0.54642690180E+03  0.50400000000E-02 0.  1.
          1   -1    0    0  501    0  0.00000000000E+00 -0.00000000000E+00 -0.25891722993E+03  0.25891722998E+03  0.50400000000E-02 0. -1.
    5000001    1    1    2    0    0 -0.16899996487E+03  0.28888509660E+03  0.19440817106E+03  0.42075542081E+03  0.16500000000E+03 0.  0.
   -5000001    1    1    2    0    0  0.16899996487E+03 -0.28888509660E+03  0.93101500787E+02  0.38458871098E+03  0.16500000000E+03 0.  0.
<mgrwt>
<rscale>  0 0.75227479E+03</rscale>
<asrwt>0</asrwt>
<pdfrwt beam="1">  1        1 0.36988176E-01 0.75227479E+03</pdfrwt>
<pdfrwt beam="2">  1       -1 0.78060986E-01 0.75227479E+03</pdfrwt>
<totfact> 0.19471444E+02</totfact>
</mgrwt>
</event>
<event>
 4    1  0.2559694E-005  0.5239396E+03  0.7818608E-02  0.1007713E+00
         -1   -1    0    0    0  501 -0.00000000000E+00  0.00000000000E+00  0.54451111628E+03  0.54451111630E+03  0.50400000000E-02 0. -1.
          1   -1    0    0  501    0  0.00000000000E+00 -0.00000000000E+00 -0.12603631932E+03  0.12603631942E+03  0.50400000000E-02 0.  1.
    5000001    1    1    2    0    0  0.16621213473E+03  0.11401907216E+03  0.17357764855E+03  0.31301920488E+03  0.16500000000E+03 0.  0.
   -5000001    1    1    2    0    0 -0.16621213473E+03 -0.11401907216E+03  0.24489714841E+03  0.35752823084E+03  0.16500000000E+03 0.  0.
<mgrwt>
<rscale>  0 0.52393960E+03</rscale>
<asrwt>0</asrwt>
<pdfrwt beam="1">  1        1 0.18005188E-01 0.52393960E+03</pdfrwt>
<pdfrwt beam="2">  1       -1 0.77787303E-01 0.52393960E+03</pdfrwt>
<totfact> 0.50568485E+02</totfact>
</mgrwt>
</event>
<event>
 4    1  0.2559694E-005  0.3580964E+03  0.7818608E-02  0.1059340E+00
          1   -1    0    0  501    0  0.00000000000E+00  0.00000000000E+00  0.50364187594E+03  0.50364187597E+03  0.50400000000E-02 0.  1.
         -1   -1    0    0    0  501 -0.00000000000E+00 -0.00000000000E+00 -0.63652890799E+02  0.63652890999E+02  0.50400000000E-02 0. -1.
    5000001    1    1    2    0    0 -0.67747220788E+02  0.15333977879E+02  0.22459809871E+03  0.28721790116E+03  0.16500000000E+03 0.  0.
   -5000001    1    1    2    0    0  0.67747220788E+02 -0.15333977879E+02  0.21539088643E+03  0.28007686581E+03  0.16500000000E+03 0.  0.
<mgrwt>
<rscale>  0 0.35809642E+03</rscale>
<asrwt>0</asrwt>
<pdfrwt beam="1">  1        1 0.71948837E-01 0.35809642E+03</pdfrwt>
<pdfrwt beam="2">  1       -1 0.90932704E-02 0.35809642E+03</pdfrwt>
<totfact> 0.35013793E+03</totfact>
</mgrwt>
</event>
<event>
 4    1  0.2559694E-005  0.7108158E+03  0.7818608E-02  0.9698912E-01
          1   -1    0    0  501    0  0.00000000000E+00  0.00000000000E+00  0.83180897850E+03  0.83180897852E+03  0.50400000000E-02 0.  1.
         -1   -1    0    0    0  501 -0.00000000000E+00 -0.00000000000E+00 -0.15185551625E+03  0.15185551633E+03  0.50400000000E-02 0. -1.
    5000001    1    1    2    0    0 -0.13618067102E+03  0.26935699222E+03  0.46368588077E+03  0.57734561611E+03  0.16500000000E+03 0.  0.
   -5000001    1    1    2    0    0  0.13618067102E+03 -0.26935699222E+03  0.21626758148E+03  0.40631887874E+03  0.16500000000E+03 0.  0.
<mgrwt>
<rscale>  0 0.71081582E+03</rscale>
<asrwt>0</asrwt>
<pdfrwt beam="1">  1        1 0.11882985E+00 0.71081582E+03</pdfrwt>
<pdfrwt beam="2">  1       -1 0.21693645E-01 0.71081582E+03</pdfrwt>
<totfact> 0.42086951E+02</totfact>
</mgrwt>
</event>
<event>
 4    1  0.2559694E-005  0.5135853E+03  0.7818608E-02  0.1010293E+00
          1   -1    0    0  501    0  0.00000000000E+00  0.00000000000E+00  0.51256581119E+02  0.51256581367E+02  0.50400000000E-02 0. -1.
         -1   -1    0    0    0  501 -0.00000000000E+00 -0.00000000000E+00 -0.12865169705E+04  0.12865169705E+04  0.50400000000E-02 0.  1.
    5000001    1    1    2    0    0  0.14067253705E+03 -0.10030646197E+03 -0.86291240029E+03  0.89537308400E+03  0.16500000000E+03 0.  0.
   -5000001    1    1    2    0    0 -0.14067253705E+03  0.10030646197E+03 -0.37234798911E+03  0.44240046789E+03  0.16500000000E+03 0.  0.
<mgrwt>
<rscale>  0 0.51358529E+03</rscale>
<asrwt>0</asrwt>
<pdfrwt beam="1">  1        1 0.73223695E-02 0.51358529E+03</pdfrwt>
<pdfrwt beam="2">  1       -1 0.18378812E+00 0.51358529E+03</pdfrwt>
<totfact> 0.20864866E+02</totfact>
</mgrwt>
</event>
<event>
 4    1  0.2559694E-005  0.4176227E+03  0.7818608E-02  0.1037843E+00
          1   -1    0    0  501    0  0.00000000000E+00  0.00000000000E+00  0.49550605386E+03  0.49550605388E+03  0.50400000000E-02 0.  1.
         -1   -1    0    0    0  501 -0.00000000000E+00 -0.00000000000E+00 -0.87995250296E+02  0.87995250440E+02  0.50400000000E-02 0. -1.
    5000001    1    1    2    0    0 -0.43662090490E+02  0.11849411483E+03  0.23272647853E+03  0.31198372907E+03  0.16500000000E+03 0.  0.
   -5000001    1    1    2    0    0  0.43662090490E+02 -0.11849411483E+03  0.17478432503E+03  0.27151757525E+03  0.16500000000E+03 0.  0.
<mgrwt>
<rscale>  0 0.41762270E+03</rscale>
<asrwt>0</asrwt>
<pdfrwt beam="1">  1        1 0.70786576E-01 0.41762270E+03</pdfrwt>
<pdfrwt beam="2">  1       -1 0.12570751E-01 0.41762270E+03</pdfrwt>
<totfact> 0.21588777E+03</totfact>
</mgrwt>
</event>
<event>
 4    1  0.2559694E-005  0.4146013E+03  0.7818608E-02  0.1038838E+00
          1   -1    0    0  501    0  0.00000000000E+00  0.00000000000E+00  0.67399258614E+02  0.67399258802E+02  0.50400000000E-02 0.  1.
         -1   -1    0    0    0  501 -0.00000000000E+00 -0.00000000000E+00 -0.63759684846E+03  0.63759684848E+03  0.50400000000E-02 0. -1.
    5000001    1    1    2    0    0  0.11654213283E+03 -0.40949289742E+02 -0.32272542898E+03  0.38293030118E+03  0.16500000000E+03 0.  0.
   -5000001    1    1    2    0    0 -0.11654213283E+03  0.40949289742E+02 -0.24747216087E+03  0.32206580610E+03  0.16500000000E+03 0.  0.
<mgrwt>
<rscale>  0 0.41460128E+03</rscale>
<asrwt>0</asrwt>
<pdfrwt beam="1">  1        1 0.96284659E-02 0.41460128E+03</pdfrwt>
<pdfrwt beam="2">  1       -1 0.91085261E-01 0.41460128E+03</pdfrwt>
<totfact> 0.83883688E+02</totfact>
</mgrwt>
</event>
<event>
 4    1  0.2559694E-005  0.4840005E+03  0.7818608E-02  0.1018041E+00
          1   -1    0    0  501    0  0.00000000000E+00  0.00000000000E+00  0.51428759764E+03  0.51428759766E+03  0.50400000000E-02 0.  1.
         -1   -1    0    0    0  501 -0.00000000000E+00 -0.00000000000E+00 -0.11387424218E+03  0.11387424229E+03  0.50400000000E-02 0. -1.
    5000001    1    1    2    0    0  0.97162296078E+02  0.43693387805E+02  0.38370267638E+03  0.43104798779E+03  0.16500000000E+03 0.  0.
   -5000001    1    1    2    0    0 -0.97162296078E+02 -0.43693387805E+02  0.16710679073E+02  0.19711385216E+03  0.16500000000E+03 0.  0.
<mgrwt>
<rscale>  0 0.48400046E+03</rscale>
<asrwt>0</asrwt>
<pdfrwt beam="1">  1        1 0.73469659E-01 0.48400046E+03</pdfrwt>
<pdfrwt beam="2">  1       -1 0.16267748E-01 0.48400046E+03</pdfrwt>
<totfact> 0.13597123E+03</totfact>
</mgrwt>
</event>
<event>
 4    1  0.2559694E-005  0.4690276E+03  0.7818608E-02  0.1022195E+00
         -1   -1    0    0    0  501 -0.00000000000E+00  0.00000000000E+00  0.67270416827E+02  0.67270417016E+02  0.50400000000E-02 0. -1.
          1   -1    0    0  501    0  0.00000000000E+00 -0.00000000000E+00 -0.81754677068E+03  0.81754677069E+03  0.50400000000E-02 0.  1.
    5000001    1    1    2    0    0 -0.15625160112E+03  0.32237346976E+02 -0.28431372301E+03  0.36539444780E+03  0.16500000000E+03 0.  0.
   -5000001    1    1    2    0    0  0.15625160112E+03 -0.32237346976E+02 -0.46596263084E+03  0.51942273991E+03  0.16500000000E+03 0.  0.
<mgrwt>
<rscale>  0 0.46902756E+03</rscale>
<asrwt>0</asrwt>
<pdfrwt beam="1">  1        1 0.11679239E+00 0.46902756E+03</pdfrwt>
<pdfrwt beam="2">  1       -1 0.96100600E-02 0.46902756E+03</pdfrwt>
<totfact> 0.16220819E+03</totfact>
</mgrwt>
</event>
<event>
 4    1  0.2559694E-005  0.3869967E+03  0.7818608E-02  0.1048378E+00
          1   -1    0    0  501    0  0.00000000000E+00  0.00000000000E+00  0.10678751600E+03  0.10678751612E+03  0.50400000000E-02 0.  1.
         -1   -1    0    0    0  501 -0.00000000000E+00 -0.00000000000E+00 -0.35061789198E+03  0.35061789202E+03  0.50400000000E-02 0. -1.
    5000001    1    1    2    0    0 -0.67701487430E+02  0.67189854331E+02 -0.82383957761E+02  0.20762968097E+03  0.16500000000E+03 0.  0.
   -5000001    1    1    2    0    0  0.67701487430E+02 -0.67189854331E+02 -0.16144641822E+03  0.24977572717E+03  0.16500000000E+03 0.  0.
<mgrwt>
<rscale>  0 0.38699671E+03</rscale>
<asrwt>0</asrwt>
<pdfrwt beam="1">  1        1 0.15255360E-01 0.38699671E+03</pdfrwt>
<pdfrwt beam="2">  1       -1 0.50088270E-01 0.38699671E+03</pdfrwt>
<totfact> 0.14997849E+03</totfact>
</mgrwt>
</event>
<event>
 4    1  0.2559694E-005  0.4756159E+03  0.7818608E-02  0.1020347E+00
          1   -1    0    0  501    0  0.00000000000E+00  0.00000000000E+00  0.13182737855E+04  0.13182737855E+04  0.50400000000E-02 0.  1.
         -1   -1    0    0    0  501 -0.00000000000E+00 -0.00000000000E+00 -0.42899003048E+02  0.42899003344E+02  0.50400000000E-02 0. -1.
    5000001    1    1    2    0    0  0.13035716510E+03  0.50812268564E+02  0.35505593632E+03  0.41576988232E+03  0.16500000000E+03 0.  0.
   -5000001    1    1    2    0    0 -0.13035716510E+03 -0.50812268564E+02  0.92031884614E+03  0.94540290654E+03  0.16500000000E+03 0.  0.
<mgrwt>
<rscale>  0 0.47561594E+03</rscale>
<asrwt>0</asrwt>
<pdfrwt beam="1">  1        1 0.18832483E+00 0.47561594E+03</pdfrwt>
<pdfrwt beam="2">  1       -1 0.61284289E-02 0.47561594E+03</pdfrwt>
<totfact> 0.14185205E+03</totfact>
</mgrwt>
</event>
<event>
 4    1  0.2559694E-005  0.3762487E+03  0.7818608E-02  0.1052329E+00
         -1   -1    0    0    0  501 -0.00000000000E+00  0.00000000000E+00  0.15640497532E+03  0.15640497540E+03  0.50400000000E-02 0. -1.
          1   -1    0    0  501    0  0.00000000000E+00 -0.00000000000E+00 -0.22627649504E+03  0.22627649510E+03  0.50400000000E-02 0.  1.
    5000001    1    1    2    0    0  0.53969132211E+02 -0.67206667728E+02 -0.73357417699E+01  0.18630141311E+03  0.16500000000E+03 0.  0.
   -5000001    1    1    2    0    0 -0.53969132211E+02  0.67206667728E+02 -0.62535777949E+02  0.19638005739E+03  0.16500000000E+03 0.  0.
<mgrwt>
<rscale>  0 0.37624869E+03</rscale>
<asrwt>0</asrwt>
<pdfrwt beam="1">  1        1 0.32325214E-01 0.37624869E+03</pdfrwt>
<pdfrwt beam="2">  1       -1 0.22343568E-01 0.37624869E+03</pdfrwt>
<totfact> 0.23247376E+03</totfact>
</mgrwt>
</event>
<event>
 4    1  0.2559694E-005  0.7034440E+03  0.7818608E-02  0.9711361E-01
          1   -1    0    0  501    0  0.00000000000E+00  0.00000000000E+00  0.84933711312E+03  0.84933711314E+03  0.50400000000E-02 0.  1.
         -1   -1    0    0    0  501 -0.00000000000E+00 -0.00000000000E+00 -0.14565284169E+03  0.14565284178E+03  0.50400000000E-02 0. -1.
    5000001    1    1    2    0    0 -0.47177219454E+02 -0.26070663334E+03  0.58118339548E+03  0.65969142627E+03  0.16500000000E+03 0.  0.
   -5000001    1    1    2    0    0  0.47177219454E+02  0.26070663334E+03  0.12250087595E+03  0.33529852865E+03  0.16500000000E+03 0.  0.
<mgrwt>
<rscale>  0 0.70344400E+03</rscale>
<asrwt>0</asrwt>
<pdfrwt beam="1">  1        1 0.12133387E+00 0.70344400E+03</pdfrwt>
<pdfrwt beam="2">  1       -1 0.20807549E-01 0.70344400E+03</pdfrwt>
<totfact> 0.43684797E+02</totfact>
</mgrwt>
</event>
<event>
 4    1  0.2559694E-005  0.9878967E+03  0.7818608E-02  0.9321920E-01
          1   -1    0    0  501    0  0.00000000000E+00  0.00000000000E+00  0.48522942822E+03  0.48522942824E+03  0.50400000000E-02 0. -1.
         -1   -1    0    0    0  501 -0.00000000000E+00 -0.00000000000E+00 -0.50282391218E+03  0.50282391220E+03  0.50400000000E-02 0.  1.
    5000001    1    1    2    0    0  0.61268477194E+02 -0.37952430025E+03  0.25386092934E+03  0.48934945818E+03  0.16500000000E+03 0.  0.
   -5000001    1    1    2    0    0 -0.61268477194E+02  0.37952430025E+03 -0.27145541330E+03  0.49870388227E+03  0.16500000000E+03 0.  0.
<mgrwt>
<rscale>  0 0.98789667E+03</rscale>
<asrwt>0</asrwt>
<pdfrwt beam="1">  1        1 0.69318490E-01 0.98789667E+03</pdfrwt>
<pdfrwt beam="2">  1       -1 0.71831987E-01 0.98789667E+03</pdfrwt>
<totfact> 0.10038101E+02</totfact>
</mgrwt>
</event>
<event>
 4    1  0.2559694E-005  0.3973763E+03  0.7818608E-02  0.1044692E+00
          1   -1    0    0  501    0  0.00000000000E+00  0.00000000000E+00  0.34246678867E+03  0.34246678870E+03  0.50400000000E-02 0. -1.
         -1   -1    0    0    0  501 -0.00000000000E+00 -0.00000000000E+00 -0.11527241835E+03  0.11527241846E+03  0.50400000000E-02 0.  1.
    5000001    1    1    2    0    0 -0.47486681838E+02 -0.36335480128E+01  0.22869414310E+03  0.28599685088E+03  0.16500000000E+03 0.  0.
   -5000001    1    1    2    0    0  0.47486681838E+02  0.36335480128E+01 -0.14997727809E+01  0.17174235628E+03  0.16500000000E+03 0.  0.
<mgrwt>
<rscale>  0 0.39737627E+03</rscale>
<asrwt>0</asrwt>
<pdfrwt beam="1">  1        1 0.48923827E-01 0.39737627E+03</pdfrwt>
<pdfrwt beam="2">  1       -1 0.16467488E-01 0.39737627E+03</pdfrwt>
<totfact> 0.22628179E+03</totfact>
</mgrwt>
</event>
<event>
 4    1  0.2559694E-005  0.3876425E+03  0.7818608E-02  0.1048145E+00
         -1   -1    0    0    0  501 -0.00000000000E+00  0.00000000000E+00  0.36600296305E+02  0.36600296652E+02  0.50400000000E-02 0. -1.
          1   -1    0    0  501    0  0.00000000000E+00 -0.00000000000E+00 -0.10264038133E+04  0.10264038133E+04  0.50400000000E-02 0.  1.
    5000001    1    1    2    0    0 -0.14899504363E+02 -0.10053215982E+03 -0.50477891777E+03  0.54069905328E+03  0.16500000000E+03 0.  0.
   -5000001    1    1    2    0    0  0.14899504363E+02  0.10053215982E+03 -0.48502459923E+03  0.52230505669E+03  0.16500000000E+03 0.  0.
<mgrwt>
<rscale>  0 0.38764254E+03</rscale>
<asrwt>0</asrwt>
<pdfrwt beam="1">  1        1 0.14662910E+00 0.38764254E+03</pdfrwt>
<pdfrwt beam="2">  1       -1 0.52286144E-02 0.38764254E+03</pdfrwt>
<totfact> 0.28663246E+03</totfact>
</mgrwt>
</event>
<event>
 4    1  0.2559694E-005  0.4155316E+03  0.7818608E-02  0.1038530E+00
          1   -1    0    0  501    0  0.00000000000E+00  0.00000000000E+00  0.40003928412E+03  0.40003928415E+03  0.50400000000E-02 0. -1.
         -1   -1    0    0    0  501 -0.00000000000E+00 -0.00000000000E+00 -0.10790597506E+03  0.10790597517E+03  0.50400000000E-02 0.  1.
    5000001    1    1    2    0    0  0.21239211963E+02 -0.11863160202E+03  0.10005072677E+03  0.22750760218E+03  0.16500000000E+03 0.  0.
   -5000001    1    1    2    0    0 -0.21239211963E+02  0.11863160202E+03  0.19208258229E+03  0.28043765714E+03  0.16500000000E+03 0.  0.
<mgrwt>
<rscale>  0 0.41553161E+03</rscale>
<asrwt>0</asrwt>
<pdfrwt beam="1">  1        1 0.57148469E-01 0.41553161E+03</pdfrwt>
<pdfrwt beam="2">  1       -1 0.15415139E-01 0.41553161E+03</pdfrwt>
<totfact> 0.20625806E+03</totfact>
</mgrwt>
</event>
<event>
 4    1  0.2559694E-005  0.3696322E+03  0.7818608E-02  0.1054834E+00
          1   -1    0    0  501    0  0.00000000000E+00  0.00000000000E+00  0.61370992868E+02  0.61370993075E+02  0.50400000000E-02 0.  1.
         -1   -1    0    0    0  501 -0.00000000000E+00 -0.00000000000E+00 -0.55656585290E+03  0.55656585293E+03  0.50400000000E-02 0. -1.
    5000001    1    1    2    0    0 -0.76068621240E+02  0.73449588479E+01 -0.19236310011E+03  0.26470539443E+03  0.16500000000E+03 0.  0.
   -5000001    1    1    2    0    0  0.76068621240E+02 -0.73449588479E+01 -0.30283175993E+03  0.35323145157E+03  0.16500000000E+03 0.  0.
<mgrwt>
<rscale>  0 0.36963224E+03</rscale>
<asrwt>0</asrwt>
<pdfrwt beam="1">  1        1 0.87672851E-02 0.36963224E+03</pdfrwt>
<pdfrwt beam="2">  1       -1 0.79509404E-01 0.36963224E+03</pdfrwt>
<totfact> 0.12730757E+03</totfact>
</mgrwt>
</event>
<event>
 4    1  0.2559694E-005  0.4936470E+03  0.7818608E-02  0.1015451E+00
         -1   -1    0    0    0  501 -0.00000000000E+00  0.00000000000E+00  0.38325846508E+03  0.38325846512E+03  0.50400000000E-02 0. -1.
          1   -1    0    0  501    0  0.00000000000E+00 -0.00000000000E+00 -0.15895756476E+03  0.15895756484E+03  0.50400000000E-02 0.  1.
    5000001    1    1    2    0    0  0.13566169205E+03  0.27627366047E+02 -0.20247331724E+02  0.21633843969E+03  0.16500000000E+03 0.  0.
   -5000001    1    1    2    0    0 -0.13566169205E+03 -0.27627366047E+02  0.24454823204E+03  0.32587759027E+03  0.16500000000E+03 0.  0.
<mgrwt>
<rscale>  0 0.49364697E+03</rscale>
<asrwt>0</asrwt>
<pdfrwt beam="1">  1        1 0.22708224E-01 0.49364697E+03</pdfrwt>
<pdfrwt beam="2">  1       -1 0.54751208E-01 0.49364697E+03</pdfrwt>
<totfact> 0.75212150E+02</totfact>
</mgrwt>
</event>
<event>
 4    1  0.2559694E-005  0.4066473E+03  0.7818608E-02  0.1041502E+00
          1   -1    0    0  501    0  0.00000000000E+00  0.00000000000E+00  0.30713256185E+02  0.30713256599E+02  0.50400000000E-02 0.  1.
         -1   -1    0    0    0  501 -0.00000000000E+00 -0.00000000000E+00 -0.13460151210E+04  0.13460151210E+04  0.50400000000E-02 0. -1.
    5000001    1    1    2    0    0  0.41517928463E+02 -0.10881312645E+03 -0.57814631350E+03  0.61240688654E+03  0.16500000000E+03 0.  0.
   -5000001    1    1    2    0    0 -0.41517928463E+02  0.10881312645E+03 -0.73715555135E+03  0.76432149110E+03  0.16500000000E+03 0.  0.
<mgrwt>
<rscale>  0 0.40664730E+03</rscale>
<asrwt>0</asrwt>
<pdfrwt beam="1">  1        1 0.43876089E-02 0.40664730E+03</pdfrwt>
<pdfrwt beam="2">  1       -1 0.19228784E+00 0.40664730E+03</pdfrwt>
<totfact> 0.37509281E+02</totfact>
</mgrwt>
</event>
<event>
 4    1  0.2559694E-005  0.6597909E+03  0.7818608E-02  0.9788579E-01
          1   -1    0    0  501    0  0.00000000000E+00  0.00000000000E+00  0.13787518730E+04  0.13787518730E+04  0.50400000000E-02 0.  1.
         -1   -1    0    0    0  501 -0.00000000000E+00 -0.00000000000E+00 -0.78934430613E+02  0.78934430774E+02  0.50400000000E-02 0. -1.
    5000001    1    1    2    0    0  0.22186197905E+03 -0.17788613141E+03  0.58981774343E+03  0.67526008616E+03  0.16500000000E+03 0.  0.
   -5000001    1    1    2    0    0 -0.22186197905E+03  0.17788613141E+03  0.70999969891E+03  0.78242621757E+03  0.16500000000E+03 0.  0.
<mgrwt>
<rscale>  0 0.65979086E+03</rscale>
<asrwt>0</asrwt>
<pdfrwt beam="1">  1        1 0.19696456E+00 0.65979086E+03</pdfrwt>
<pdfrwt beam="2">  1       -1 0.11276347E-01 0.65979086E+03</pdfrwt>
<totfact> 0.49578959E+02</totfact>
</mgrwt>
</event>
<event>
 4    1  0.2559694E-005  0.4028620E+03  0.7818608E-02  0.1042793E+00
         -1   -1    0    0    0  501 -0.00000000000E+00  0.00000000000E+00  0.87082271530E+02  0.87082271676E+02  0.50400000000E-02 0.  1.
          1   -1    0    0  501    0  0.00000000000E+00 -0.00000000000E+00 -0.46593236558E+03  0.46593236560E+03  0.50400000000E-02 0. -1.
    5000001    1    1    2    0    0 -0.75344436287E+02  0.80686263395E+02 -0.23622620035E+03  0.30856907640E+03  0.16500000000E+03 0.  0.
   -5000001    1    1    2    0    0  0.75344436287E+02 -0.80686263395E+02 -0.14262389370E+03  0.24444556088E+03  0.16500000000E+03 0.  0.
<mgrwt>
<rscale>  0 0.40286201E+03</rscale>
<asrwt>0</asrwt>
<pdfrwt beam="1">  1        1 0.66561765E-01 0.40286201E+03</pdfrwt>
<pdfrwt beam="2">  1       -1 0.12440325E-01 0.40286201E+03</pdfrwt>
<totfact> 0.23799022E+03</totfact>
</mgrwt>
</event>
<event>
 4    1  0.2559694E-005  0.4836226E+03  0.7818608E-02  0.1018144E+00
         -1   -1    0    0    0  501 -0.00000000000E+00  0.00000000000E+00  0.59255636097E+02  0.59255636311E+02  0.50400000000E-02 0. -1.
          1   -1    0    0  501    0  0.00000000000E+00 -0.00000000000E+00 -0.98678703118E+03  0.98678703120E+03  0.50400000000E-02 0.  1.
    5000001    1    1    2    0    0  0.11405500149E+03 -0.11815817497E+03 -0.32229943738E+03  0.39758247574E+03  0.16500000000E+03 0.  0.
   -5000001    1    1    2    0    0 -0.11405500149E+03  0.11815817497E+03 -0.60523195771E+03  0.64846019177E+03  0.16500000000E+03 0.  0.
<mgrwt>
<rscale>  0 0.48362255E+03</rscale>
<asrwt>0</asrwt>
<pdfrwt beam="1">  1        1 0.14096957E+00 0.48362255E+03</pdfrwt>
<pdfrwt beam="2">  1       -1 0.84650915E-02 0.48362255E+03</pdfrwt>
<totfact> 0.14618854E+03</totfact>
</mgrwt>
</event>
<event>
 4    1  0.2559694E-005  0.4827862E+03  0.7818608E-02  0.1018372E+00
          1   -1    0    0  501    0  0.00000000000E+00  0.00000000000E+00  0.41429443477E+03  0.41429443480E+03  0.50400000000E-02 0.  1.
         -1   -1    0    0    0  501 -0.00000000000E+00 -0.00000000000E+00 -0.14065028122E+03  0.14065028131E+03  0.50400000000E-02 0. -1.
    5000001    1    1    2    0    0 -0.22723408089E+02  0.17472547697E+03  0.13621035952E+03  0.27717071927E+03  0.16500000000E+03 0.  0.
   -5000001    1    1    2    0    0  0.22723408089E+02 -0.17472547697E+03  0.13743379403E+03  0.27777399684E+03  0.16500000000E+03 0.  0.
<mgrwt>
<rscale>  0 0.48278620E+03</rscale>
<asrwt>0</asrwt>
<pdfrwt beam="1">  1        1 0.59184919E-01 0.48278620E+03</pdfrwt>
<pdfrwt beam="2">  1       -1 0.20092897E-01 0.48278620E+03</pdfrwt>
<totfact> 0.12809306E+03</totfact>
</mgrwt>
</event>
<event>
 4    1  0.2559694E-005  0.6515341E+03  0.7818608E-02  0.9803905E-01
          1   -1    0    0  501    0  0.00000000000E+00  0.00000000000E+00  0.23058987991E+04  0.23058987991E+04  0.50400000000E-02 0.  1.
         -1   -1    0    0    0  501 -0.00000000000E+00 -0.00000000000E+00 -0.46022910328E+02  0.46022910604E+02  0.50400000000E-02 0. -1.
    5000001    1    1    2    0    0 -0.23453012837E+03 -0.51097557177E+02  0.16565740375E+04  0.16819862910E+04  0.16500000000E+03 0.  0.
   -5000001    1    1    2    0    0  0.23453012837E+03  0.51097557177E+02  0.60330185123E+03  0.66993541865E+03  0.16500000000E+03 0.  0.
<mgrwt>
<rscale>  0 0.65153411E+03</rscale>
<asrwt>0</asrwt>
<pdfrwt beam="1">  1        1 0.32941411E+00 0.65153411E+03</pdfrwt>
<pdfrwt beam="2">  1       -1 0.65747015E-02 0.65153411E+03</pdfrwt>
<totfact> 0.30285750E+02</totfact>
</mgrwt>
</event>
<event>
 4    1  0.2559694E-005  0.6869484E+03  0.7818608E-02  0.9739816E-01
          1   -1    0    0  501    0  0.00000000000E+00  0.00000000000E+00  0.80779774506E+03  0.80779774507E+03  0.50400000000E-02 0.  1.
         -1   -1    0    0    0  501 -0.00000000000E+00 -0.00000000000E+00 -0.14604462470E+03  0.14604462478E+03  0.50400000000E-02 0. -1.
    5000001    1    1    2    0    0  0.95710304308E+02 -0.25935891728E+03  0.49704726693E+03  0.59220646390E+03  0.16500000000E+03 0.  0.
   -5000001    1    1    2    0    0 -0.95710304308E+02  0.25935891728E+03  0.16470585343E+03  0.36163590596E+03  0.16500000000E+03 0.  0.
<mgrwt>
<rscale>  0 0.68694838E+03</rscale>
<asrwt>0</asrwt>
<pdfrwt beam="1">  1        1 0.11539968E+00 0.68694838E+03</pdfrwt>
<pdfrwt beam="2">  1       -1 0.20863518E-01 0.68694838E+03</pdfrwt>
<totfact> 0.47070032E+02</totfact>
</mgrwt>
</event>
<event>
 4    1  0.2559694E-005  0.5208166E+03  0.7818608E-02  0.1008484E+00
          1   -1    0    0  501    0  0.00000000000E+00  0.00000000000E+00  0.17619869123E+04  0.17619869123E+04  0.50400000000E-02 0.  1.
         -1   -1    0    0    0  501 -0.00000000000E+00 -0.00000000000E+00 -0.38486368920E+02  0.38486369250E+02  0.50400000000E-02 0. -1.
    5000001    1    1    2    0    0 -0.19843871842E+03 -0.85930461261E+01  0.74524751048E+03  0.78871453472E+03  0.16500000000E+03 0.  0.
   -5000001    1    1    2    0    0  0.19843871842E+03  0.85930461261E+01  0.97825303289E+03  0.10117587468E+04  0.16500000000E+03 0.  0.
<mgrwt>
<rscale>  0 0.52081658E+03</rscale>
<asrwt>0</asrwt>
<pdfrwt beam="1">  1        1 0.25171242E+00 0.52081658E+03</pdfrwt>
<pdfrwt beam="2">  1       -1 0.54980526E-02 0.52081658E+03</pdfrwt>
<totfact> 0.87301321E+02</totfact>
</mgrwt>
</event>
<event>
 4    1  0.2559694E-005  0.4409431E+03  0.7818608E-02  0.1030458E+00
         -1   -1    0    0    0  501 -0.00000000000E+00  0.00000000000E+00  0.18360176738E+03  0.18360176745E+03  0.50400000000E-02 0. -1.
          1   -1    0    0  501    0  0.00000000000E+00 -0.00000000000E+00 -0.26474534224E+03  0.26474534229E+03  0.50400000000E-02 0.  1.
    5000001    1    1    2    0    0 -0.39308476602E+02  0.14072918516E+03 -0.46399773562E+02  0.22522832609E+03  0.16500000000E+03 0.  0.
   -5000001    1    1    2    0    0  0.39308476602E+02 -0.14072918516E+03 -0.34743801293E+02  0.22311878365E+03  0.16500000000E+03 0.  0.
<mgrwt>
<rscale>  0 0.44094314E+03</rscale>
<asrwt>0</asrwt>
<pdfrwt beam="1">  1        1 0.37820763E-01 0.44094314E+03</pdfrwt>
<pdfrwt beam="2">  1       -1 0.26228824E-01 0.44094314E+03</pdfrwt>
<totfact> 0.14574809E+03</totfact>
</mgrwt>
</event>
<event>
 4    1  0.2559694E-005  0.5051129E+03  0.7818608E-02  0.1012453E+00
         -1   -1    0    0    0  501 -0.00000000000E+00  0.00000000000E+00  0.33183547859E+03  0.33183547863E+03  0.50400000000E-02 0.  1.
          1   -1    0    0  501    0  0.00000000000E+00 -0.00000000000E+00 -0.19221803747E+03  0.19221803754E+03  0.50400000000E-02 0. -1.
    5000001    1    1    2    0    0 -0.52175819744E+02 -0.16566833616E+03  0.15275308573E+03  0.28412465394E+03  0.16500000000E+03 0.  0.
   -5000001    1    1    2    0    0  0.52175819744E+02  0.16566833616E+03 -0.13135644613E+02  0.23992886223E+03  0.16500000000E+03 0.  0.
<mgrwt>
<rscale>  0 0.50511292E+03</rscale>
<asrwt>0</asrwt>
<pdfrwt beam="1">  1        1 0.27459720E-01 0.50511292E+03</pdfrwt>
<pdfrwt beam="2">  1       -1 0.47405068E-01 0.50511292E+03</pdfrwt>
<totfact> 0.77117090E+02</totfact>
</mgrwt>
</event>
<event>
 4    1  0.2559694E-005  0.8495196E+03  0.7818608E-02  0.9490982E-01
         -1   -1    0    0    0  501 -0.00000000000E+00  0.00000000000E+00  0.98204308887E+03  0.98204308888E+03  0.50400000000E-02 0. -1.
          1   -1    0    0  501    0  0.00000000000E+00 -0.00000000000E+00 -0.18371992619E+03  0.18371992626E+03  0.50400000000E-02 0.  1.
    5000001    1    1    2    0    0 -0.19091058162E+01  0.32937082805E+03  0.68931327393E+03  0.78157953957E+03  0.16500000000E+03 0.  0.
   -5000001    1    1    2    0    0  0.19091058162E+01 -0.32937082805E+03  0.10900988874E+03  0.38418347557E+03  0.16500000000E+03 0.  0.
<mgrwt>
<rscale>  0 0.84951959E+03</rscale>
<asrwt>0</asrwt>
<pdfrwt beam="1">  1        1 0.26245704E-01 0.84951959E+03</pdfrwt>
<pdfrwt beam="2">  1       -1 0.14029187E+00 0.84951959E+03</pdfrwt>
<totfact> 0.77206632E+01</totfact>
</mgrwt>
</event>
<event>
 4    1  0.2559694E-005  0.3528556E+03  0.7818608E-02  0.1061449E+00
         -1   -1    0    0    0  501 -0.00000000000E+00  0.00000000000E+00  0.10040192324E+03  0.10040192336E+03  0.50400000000E-02 0. -1.
          1   -1    0    0  501    0  0.00000000000E+00 -0.00000000000E+00 -0.31002171970E+03  0.31002171974E+03  0.50400000000E-02 0.  1.
    5000001    1    1    2    0    0  0.25097700671E+02 -0.56566325285E+02 -0.11468866891E+03  0.21025730549E+03  0.16500000000E+03 0.  0.
   -5000001    1    1    2    0    0 -0.25097700671E+02  0.56566325285E+02 -0.94931127548E+02  0.20016633761E+03  0.16500000000E+03 0.  0.
<mgrwt>
<rscale>  0 0.35285565E+03</rscale>
<asrwt>0</asrwt>
<pdfrwt beam="1">  1        1 0.44288817E-01 0.35285565E+03</pdfrwt>
<pdfrwt beam="2">  1       -1 0.14343132E-01 0.35285565E+03</pdfrwt>
<totfact> 0.31985489E+03</totfact>
</mgrwt>
</event>
<event>
 4    1  0.2559694E-005  0.3959676E+03  0.7818608E-02  0.1045185E+00
         -1   -1    0    0    0  501 -0.00000000000E+00  0.00000000000E+00  0.38045487470E+02  0.38045487804E+02  0.50400000000E-02 0.  1.
          1   -1    0    0  501    0  0.00000000000E+00 -0.00000000000E+00 -0.10302821603E+04  0.10302821603E+04  0.50400000000E-02 0. -1.
    5000001    1    1    2    0    0 -0.62137220834E+02  0.73844806074E+02 -0.35700686578E+03  0.40496048179E+03  0.16500000000E+03 0.  0.
   -5000001    1    1    2    0    0  0.62137220834E+02 -0.73844806074E+02 -0.63522980707E+03  0.66336716634E+03  0.16500000000E+03 0.  0.
<mgrwt>
<rscale>  0 0.39596761E+03</rscale>
<asrwt>0</asrwt>
<pdfrwt beam="1">  1        1 0.14718315E+00 0.39596761E+03</pdfrwt>
<pdfrwt beam="2">  1       -1 0.54350703E-02 0.39596761E+03</pdfrwt>
<totfact> 0.26857271E+03</totfact>
</mgrwt>
</event>
<event>
 4    1  0.2559694E-005  0.8360835E+03  0.7818608E-02  0.9509208E-01
         -1   -1    0    0    0  501 -0.00000000000E+00  0.00000000000E+00  0.77655982795E+02  0.77655982958E+02  0.50400000000E-02 0. -1.
          1   -1    0    0  501    0  0.00000000000E+00 -0.00000000000E+00 -0.22504241142E+04  0.22504241142E+04  0.50400000000E-02 0.  1.
    5000001    1    1    2    0    0 -0.14216980772E+03  0.35644710351E+03 -0.11318921977E+04  0.12065122209E+04  0.16500000000E+03 0.  0.
   -5000001    1    1    2    0    0  0.14216980772E+03 -0.35644710351E+03 -0.10408759337E+04  0.11215678763E+04  0.16500000000E+03 0.  0.
<mgrwt>
<rscale>  0 0.83608348E+03</rscale>
<asrwt>0</asrwt>
<pdfrwt beam="1">  1        1 0.32148912E+00 0.83608348E+03</pdfrwt>
<pdfrwt beam="2">  1       -1 0.11093713E-01 0.83608348E+03</pdfrwt>
<totfact> 0.14188186E+02</totfact>
</mgrwt>
</event>
<event>
 4    1  0.2559694E-005  0.4268970E+03  0.7818608E-02  0.1034845E+00
         -1   -1    0    0    0  501 -0.00000000000E+00  0.00000000000E+00  0.47499275536E+03  0.47499275539E+03  0.50400000000E-02 0. -1.
          1   -1    0    0  501    0  0.00000000000E+00 -0.00000000000E+00 -0.95917788862E+02  0.95917788994E+02  0.50400000000E-02 0.  1.
    5000001    1    1    2    0    0  0.11986863311E+03  0.33457860065E+02  0.26089906240E+03  0.33283815642E+03  0.16500000000E+03 0.  0.
   -5000001    1    1    2    0    0 -0.11986863311E+03 -0.33457860065E+02  0.11817590410E+03  0.23807238797E+03  0.16500000000E+03 0.  0.
<mgrwt>
<rscale>  0 0.42689697E+03</rscale>
<asrwt>0</asrwt>
<pdfrwt beam="1">  1        1 0.13702541E-01 0.42689697E+03</pdfrwt>
<pdfrwt beam="2">  1       -1 0.67856109E-01 0.42689697E+03</pdfrwt>
<totfact> 0.96281233E+02</totfact>
</mgrwt>
</event>
<event>
 4    1  0.2559694E-005  0.5306901E+03  0.7818608E-02  0.1006065E+00
         -1   -1    0    0    0  501 -0.00000000000E+00  0.00000000000E+00  0.14996362468E+03  0.14996362476E+03  0.50400000000E-02 0. -1.
          1   -1    0    0  501    0  0.00000000000E+00 -0.00000000000E+00 -0.46950045005E+03  0.46950045008E+03  0.50400000000E-02 0.  1.
    5000001    1    1    2    0    0 -0.14740714457E+03 -0.40229676185E+00 -0.33074195264E+03  0.39792495190E+03  0.16500000000E+03 0.  0.
   -5000001    1    1    2    0    0  0.14740714457E+03  0.40229676185E+00  0.11205127267E+02  0.22153912293E+03  0.16500000000E+03 0.  0.
<mgrwt>
<rscale>  0 0.53069008E+03</rscale>
<asrwt>0</asrwt>
<pdfrwt beam="1">  1        1 0.67071492E-01 0.53069008E+03</pdfrwt>
<pdfrwt beam="2">  1       -1 0.21423375E-01 0.53069008E+03</pdfrwt>
<totfact> 0.97678601E+02</totfact>
</mgrwt>
</event>
<event>
 4    1  0.2559694E-005  0.9346013E+03  0.7818608E-02  0.9383333E-01
          1   -1    0    0  501    0  0.00000000000E+00  0.00000000000E+00  0.11112973055E+04  0.11112973055E+04  0.50400000000E-02 0.  1.
         -1   -1    0    0    0  501 -0.00000000000E+00 -0.00000000000E+00 -0.19649998686E+03  0.19649998693E+03  0.50400000000E-02 0. -1.
    5000001    1    1    2    0    0 -0.28621751462E+03  0.31356460320E+03  0.31129511282E+03  0.55169998488E+03  0.16500000000E+03 0.  0.
   -5000001    1    1    2    0    0  0.28621751462E+03 -0.31356460320E+03  0.60350220579E+03  0.75609730752E+03  0.16500000000E+03 0.  0.
<mgrwt>
<rscale>  0 0.93460132E+03</rscale>
<asrwt>0</asrwt>
<pdfrwt beam="1">  1        1 0.15875676E+00 0.93460132E+03</pdfrwt>
<pdfrwt beam="2">  1       -1 0.28071426E-01 0.93460132E+03</pdfrwt>
<totfact> 0.16440427E+02</totfact>
</mgrwt>
</event>
<event>
 4    1  0.2559694E-005  0.5457763E+03  0.7818608E-02  0.1002476E+00
         -1   -1    0    0    0  501 -0.00000000000E+00  0.00000000000E+00  0.11717057160E+03  0.11717057170E+03  0.50400000000E-02 0. -1.
          1   -1    0    0  501    0  0.00000000000E+00 -0.00000000000E+00 -0.63555150721E+03  0.63555150723E+03  0.50400000000E-02 0.  1.
    5000001    1    1    2    0    0 -0.67908789076E+02  0.20184289934E+03 -0.31916126109E+03  0.41766143014E+03  0.16500000000E+03 0.  0.
   -5000001    1    1    2    0    0  0.67908789076E+02 -0.20184289934E+03 -0.19921967453E+03  0.33506064879E+03  0.16500000000E+03 0.  0.
<mgrwt>
<rscale>  0 0.54577627E+03</rscale>
<asrwt>0</asrwt>
<pdfrwt beam="1">  1        1 0.90793071E-01 0.54577627E+03</pdfrwt>
<pdfrwt beam="2">  1       -1 0.16738653E-01 0.54577627E+03</pdfrwt>
<totfact> 0.96896525E+02</totfact>
</mgrwt>
</event>
<event>
 4    1  0.2559694E-005  0.3450943E+03  0.7818608E-02  0.1064647E+00
         -1   -1    0    0    0  501 -0.00000000000E+00  0.00000000000E+00  0.10696670723E+03  0.10696670734E+03  0.50400000000E-02 0. -1.
          1   -1    0    0  501    0  0.00000000000E+00 -0.00000000000E+00 -0.27833445642E+03  0.27833445647E+03  0.50400000000E-02 0.  1.
    5000001    1    1    2    0    0 -0.18778277887E+02  0.38467366680E+02 -0.11554207464E+03  0.20593040823E+03  0.16500000000E+03 0.  0.
   -5000001    1    1    2    0    0  0.18778277887E+02 -0.38467366680E+02 -0.55825674555E+02  0.17937075559E+03  0.16500000000E+03 0.  0.
<mgrwt>
<rscale>  0 0.34509431E+03</rscale>
<asrwt>0</asrwt>
<pdfrwt beam="1">  1        1 0.39762065E-01 0.34509431E+03</pdfrwt>
<pdfrwt beam="2">  1       -1 0.15280958E-01 0.34509431E+03</pdfrwt>
<totfact> 0.33121635E+03</totfact>
</mgrwt>
</event>
<event>
 4    1  0.2559694E-005  0.8511809E+03  0.7818608E-02  0.9488753E-01
          1   -1    0    0  501    0  0.00000000000E+00  0.00000000000E+00  0.25886188050E+04  0.25886188051E+04  0.50400000000E-02 0.  1.
         -1   -1    0    0    0  501 -0.00000000000E+00 -0.00000000000E+00 -0.69970613767E+02  0.69970613948E+02  0.50400000000E-02 0. -1.
    5000001    1    1    2    0    0 -0.33163877617E+03 -0.15920287234E+03  0.16849848068E+04  0.17325497487E+04  0.16500000000E+03 0.  0.
   -5000001    1    1    2    0    0  0.33163877617E+03  0.15920287234E+03  0.83366338444E+03  0.92603967031E+03  0.16500000000E+03 0.  0.
<mgrwt>
<rscale>  0 0.85118094E+03</rscale>
<asrwt>0</asrwt>
<pdfrwt beam="1">  1        1 0.36980269E+00 0.85118094E+03</pdfrwt>
<pdfrwt beam="2">  1       -1 0.99958018E-02 0.85118094E+03</pdfrwt>
<totfact> 0.10267845E+02</totfact>
</mgrwt>
</event>
<event>
 4    1  0.2559694E-005  0.5747565E+03  0.7818608E-02  0.9959208E-01
         -1   -1    0    0    0  501 -0.00000000000E+00  0.00000000000E+00  0.24412998545E+03  0.24412998551E+03  0.50400000000E-02 0.  1.
          1   -1    0    0  501    0  0.00000000000E+00 -0.00000000000E+00 -0.33828804150E+03  0.33828804153E+03  0.50400000000E-02 0. -1.
    5000001    1    1    2    0    0  0.15605563130E+03 -0.16902759158E+03  0.29508320963E+01  0.28312081200E+03  0.16500000000E+03 0.  0.
   -5000001    1    1    2    0    0 -0.15605563130E+03  0.16902759158E+03 -0.97108888137E+02  0.29929721504E+03  0.16500000000E+03 0.  0.
<mgrwt>
<rscale>  0 0.57475649E+03</rscale>
<asrwt>0</asrwt>
<pdfrwt beam="1">  1        1 0.48326863E-01 0.57475649E+03</pdfrwt>
<pdfrwt beam="2">  1       -1 0.34875713E-01 0.57475649E+03</pdfrwt>
<totfact> 0.64965936E+02</totfact>
</mgrwt>
</event>
<event>
 4    1  0.2559694E-005  0.3957673E+03  0.7818608E-02  0.1045255E+00
          1   -1    0    0  501    0  0.00000000000E+00  0.00000000000E+00  0.16322051561E+03  0.16322051569E+03  0.50400000000E-02 0. -1.
         -1   -1    0    0    0  501 -0.00000000000E+00 -0.00000000000E+00 -0.23990814789E+03  0.23990814795E+03  0.50400000000E-02 0.  1.
    5000001    1    1    2    0    0 -0.53103883477E+02  0.78307963036E+02 -0.93955775700E+02  0.21214345925E+03  0.16500000000E+03 0.  0.
   -5000001    1    1    2    0    0  0.53103883477E+02 -0.78307963036E+02  0.17268143415E+02  0.19098520438E+03  0.16500000000E+03 0.  0.
<mgrwt>
<rscale>  0 0.39576726E+03</rscale>
<asrwt>0</asrwt>
<pdfrwt beam="1">  1        1 0.23317216E-01 0.39576726E+03</pdfrwt>
<pdfrwt beam="2">  1       -1 0.34272593E-01 0.39576726E+03</pdfrwt>
<totfact> 0.17078033E+03</totfact>
</mgrwt>
</event>
<event>
 4    1  0.2559694E-005  0.4714208E+03  0.7818608E-02  0.1021520E+00
         -1   -1    0    0    0  501 -0.00000000000E+00  0.00000000000E+00  0.52982254348E+02  0.52982254587E+02  0.50400000000E-02 0. -1.
          1   -1    0    0  501    0  0.00000000000E+00 -0.00000000000E+00 -0.10486413973E+04  0.10486413973E+04  0.50400000000E-02 0.  1.
    5000001    1    1    2    0    0 -0.15046406426E+02  0.14005134817E+03 -0.71319238709E+03  0.74545902334E+03  0.16500000000E+03 0.  0.
   -5000001    1    1    2    0    0  0.15046406426E+02 -0.14005134817E+03 -0.28246675587E+03  0.35616462857E+03  0.16500000000E+03 0.  0.
<mgrwt>
<rscale>  0 0.47142077E+03</rscale>
<asrwt>0</asrwt>
<pdfrwt beam="1">  1        1 0.14980590E+00 0.47142077E+03</pdfrwt>
<pdfrwt beam="2">  1       -1 0.75688942E-02 0.47142077E+03</pdfrwt>
<totfact> 0.15680142E+03</totfact>
</mgrwt>
</event>
<event>
 4    1  0.2559694E-005  0.5538656E+03  0.7818608E-02  0.1000603E+00
         -1   -1    0    0    0  501 -0.00000000000E+00  0.00000000000E+00  0.26221252688E+03  0.26221252693E+03  0.50400000000E-02 0.  1.
          1   -1    0    0  501    0  0.00000000000E+00 -0.00000000000E+00 -0.29247946893E+03  0.29247946897E+03  0.50400000000E-02 0. -1.
    5000001    1    1    2    0    0 -0.16018880440E+03 -0.58485075205E+02  0.12785849035E+03  0.26954359690E+03  0.16500000000E+03 0.  0.
   -5000001    1    1    2    0    0  0.16018880440E+03  0.58485075205E+02 -0.15812543240E+03  0.28514839899E+03  0.16500000000E+03 0.  0.
<mgrwt>
<rscale>  0 0.55386562E+03</rscale>
<asrwt>0</asrwt>
<pdfrwt beam="1">  1        1 0.41782781E-01 0.55386562E+03</pdfrwt>
<pdfrwt beam="2">  1       -1 0.37458933E-01 0.55386562E+03</pdfrwt>
<totfact> 0.69016941E+02</totfact>
</mgrwt>
</event>
<event>
 4    1  0.2559694E-005  0.4710857E+03  0.7818608E-02  0.1021614E+00
         -1   -1    0    0    0  501 -0.00000000000E+00  0.00000000000E+00  0.67295592649E+02  0.67295592837E+02  0.50400000000E-02 0. -1.
          1   -1    0    0  501    0  0.00000000000E+00 -0.00000000000E+00 -0.82442879296E+03  0.82442879298E+03  0.50400000000E-02 0.  1.
    5000001    1    1    2    0    0  0.48934550686E+02  0.16040365398E+03 -0.35685975582E+03  0.42743164107E+03  0.16500000000E+03 0.  0.
   -5000001    1    1    2    0    0 -0.48934550686E+02 -0.16040365398E+03 -0.40027344449E+03  0.46429274474E+03  0.16500000000E+03 0.  0.
<mgrwt>
<rscale>  0 0.47108566E+03</rscale>
<asrwt>0</asrwt>
<pdfrwt beam="1">  1        1 0.11777554E+00 0.47108566E+03</pdfrwt>
<pdfrwt beam="2">  1       -1 0.96136566E-02 0.47108566E+03</pdfrwt>
<totfact> 0.16003400E+03</totfact>
</mgrwt>
</event>
<event>
 4    1  0.2559694E-005  0.1290295E+04  0.7818608E-02  0.9037297E-01
          1   -1    0    0  501    0  0.00000000000E+00  0.00000000000E+00  0.64158875000E+03  0.64158875002E+03  0.50400000000E-02 0. -1.
         -1   -1    0    0    0  501 -0.00000000000E+00 -0.00000000000E+00 -0.64872553902E+03  0.64872553904E+03  0.50400000000E-02 0.  1.
    5000001    1    1    2    0    0  0.42976156704E+03 -0.14664396844E+03  0.42397826014E+03  0.64279236388E+03  0.16500000000E+03 0.  0.
   -5000001    1    1    2    0    0 -0.42976156704E+03  0.14664396844E+03 -0.43111504915E+03  0.64752192519E+03  0.16500000000E+03 0.  0.
<mgrwt>
<rscale>  0 0.12902946E+04</rscale>
<asrwt>0</asrwt>
<pdfrwt beam="1">  1        1 0.91655537E-01 0.12902946E+04</pdfrwt>
<pdfrwt beam="2">  1       -1 0.92675076E-01 0.12902946E+04</pdfrwt>
<totfact> 0.38592418E+01</totfact>
</mgrwt>
</event>
<event>
 4    1  0.2559694E-005  0.3604952E+03  0.7818608E-02  0.1058388E+00
         -1   -1    0    0    0  501 -0.00000000000E+00  0.00000000000E+00  0.30506691056E+02  0.30506691473E+02  0.50400000000E-02 0. -1.
          1   -1    0    0  501    0  0.00000000000E+00 -0.00000000000E+00 -0.10649858971E+04  0.10649858971E+04  0.50400000000E-02 0.  1.
    5000001    1    1    2    0    0 -0.87164602563E+01 -0.71935324457E+02 -0.50606240214E+03  0.53719160683E+03  0.16500000000E+03 0.  0.
   -5000001    1    1    2    0    0  0.87164602563E+01  0.71935324457E+02 -0.52841680388E+03  0.55830098173E+03  0.16500000000E+03 0.  0.
<mgrwt>
<rscale>  0 0.36049519E+03</rscale>
<asrwt>0</asrwt>
<pdfrwt beam="1">  1        1 0.15214082E+00 0.36049519E+03</pdfrwt>
<pdfrwt beam="2">  1       -1 0.43580994E-02 0.36049519E+03</pdfrwt>
<totfact> 0.35399699E+03</totfact>
</mgrwt>
</event>
<event>
 4    1  0.2559694E-005  0.6269023E+03  0.7818608E-02  0.9851112E-01
          1   -1    0    0  501    0  0.00000000000E+00  0.00000000000E+00  0.48034146471E+03  0.48034146474E+03  0.50400000000E-02 0.  1.
         -1   -1    0    0    0  501 -0.00000000000E+00 -0.00000000000E+00 -0.20454539983E+03  0.20454539989E+03  0.50400000000E-02 0. -1.
    5000001    1    1    2    0    0  0.19497987147E+03  0.18078027957E+03  0.15768324796E+03  0.35041071109E+03  0.16500000000E+03 0.  0.
   -5000001    1    1    2    0    0 -0.19497987147E+03 -0.18078027957E+03  0.11811281693E+03  0.33447615354E+03  0.16500000000E+03 0.  0.
<mgrwt>
<rscale>  0 0.62690234E+03</rscale>
<asrwt>0</asrwt>
<pdfrwt beam="1">  1        1 0.68620208E-01 0.62690234E+03</pdfrwt>
<pdfrwt beam="2">  1       -1 0.29220772E-01 0.62690234E+03</pdfrwt>
<totfact> 0.55853066E+02</totfact>
</mgrwt>
</event>
<event>
 4    1  0.2559694E-005  0.4049074E+03  0.7818608E-02  0.1042094E+00
         -1   -1    0    0    0  501 -0.00000000000E+00  0.00000000000E+00  0.54051751366E+03  0.54051751368E+03  0.50400000000E-02 0. -1.
          1   -1    0    0  501    0  0.00000000000E+00 -0.00000000000E+00 -0.75830123456E+02  0.75830123624E+02  0.50400000000E-02 0.  1.
    5000001    1    1    2    0    0 -0.47193119890E+02  0.10739378840E+03  0.23024908837E+03  0.30659461680E+03  0.16500000000E+03 0.  0.
   -5000001    1    1    2    0    0  0.47193119890E+02 -0.10739378840E+03  0.23443830183E+03  0.30975302051E+03  0.16500000000E+03 0.  0.
<mgrwt>
<rscale>  0 0.40490745E+03</rscale>
<asrwt>0</asrwt>
<pdfrwt beam="1">  1        1 0.10832875E-01 0.40490745E+03</pdfrwt>
<pdfrwt beam="2">  1       -1 0.77216790E-01 0.40490745E+03</pdfrwt>
<totfact> 0.10150951E+03</totfact>
</mgrwt>
</event>
<event>
 4    1  0.2559694E-005  0.6883951E+03  0.7818608E-02  0.9737286E-01
         -1   -1    0    0    0  501 -0.00000000000E+00  0.00000000000E+00  0.11013970056E+03  0.11013970067E+03  0.50400000000E-02 0.  1.
          1   -1    0    0  501    0  0.00000000000E+00 -0.00000000000E+00 -0.10756517450E+04  0.10756517451E+04  0.50400000000E-02 0. -1.
    5000001    1    1    2    0    0  0.62003109341E+02  0.22781627552E+03 -0.15819310601E+03  0.32862547032E+03  0.16500000000E+03 0.  0.
   -5000001    1    1    2    0    0 -0.62003109341E+02 -0.22781627552E+03 -0.80731893848E+03  0.85716597540E+03  0.16500000000E+03 0.  0.
<mgrwt>
<rscale>  0 0.68839512E+03</rscale>
<asrwt>0</asrwt>
<pdfrwt beam="1">  1        1 0.15366453E+00 0.68839512E+03</pdfrwt>
<pdfrwt beam="2">  1       -1 0.15734244E-01 0.68839512E+03</pdfrwt>
<totfact> 0.46669292E+02</totfact>
</mgrwt>
</event>
<event>
 4    1  0.2559694E-005  0.6120985E+03  0.7818608E-02  0.9880619E-01
          1   -1    0    0  501    0  0.00000000000E+00  0.00000000000E+00  0.12791656423E+04  0.12791656423E+04  0.50400000000E-02 0.  1.
         -1   -1    0    0    0  501 -0.00000000000E+00 -0.00000000000E+00 -0.73224415560E+02  0.73224415733E+02  0.50400000000E-02 0. -1.
    5000001    1    1    2    0    0  0.86037187860E+02  0.22495464526E+03  0.40006142660E+03  0.49525865481E+03  0.16500000000E+03 0.  0.
   -5000001    1    1    2    0    0 -0.86037187860E+02 -0.22495464526E+03  0.80587980010E+03  0.85713140318E+03  0.16500000000E+03 0.  0.
<mgrwt>
<rscale>  0 0.61209854E+03</rscale>
<asrwt>0</asrwt>
<pdfrwt beam="1">  1        1 0.18273795E+00 0.61209854E+03</pdfrwt>
<pdfrwt beam="2">  1       -1 0.10460631E-01 0.61209854E+03</pdfrwt>
<totfact> 0.65183297E+02</totfact>
</mgrwt>
</event>
<event>
 4    1  0.2559694E-005  0.4571823E+03  0.7818608E-02  0.1025602E+00
         -1   -1    0    0    0  501 -0.00000000000E+00  0.00000000000E+00  0.66422640145E+02  0.66422640336E+02  0.50400000000E-02 0. -1.
          1   -1    0    0  501    0  0.00000000000E+00 -0.00000000000E+00 -0.78668844212E+03  0.78668844213E+03  0.50400000000E-02 0.  1.
    5000001    1    1    2    0    0  0.10487280231E+03  0.11055343303E+03 -0.43948935553E+03  0.49355471819E+03  0.16500000000E+03 0.  0.
   -5000001    1    1    2    0    0 -0.10487280231E+03 -0.11055343303E+03 -0.28077644644E+03  0.35955636428E+03  0.16500000000E+03 0.  0.
<mgrwt>
<rscale>  0 0.45718234E+03</rscale>
<asrwt>0</asrwt>
<pdfrwt beam="1">  1        1 0.11238406E+00 0.45718234E+03</pdfrwt>
<pdfrwt beam="2">  1       -1 0.94889491E-02 0.45718234E+03</pdfrwt>
<totfact> 0.17545308E+03</totfact>
</mgrwt>
</event>
<event>
 4    1  0.2559694E-005  0.5688628E+03  0.7818608E-02  0.9972198E-01
         -1   -1    0    0    0  501 -0.00000000000E+00  0.00000000000E+00  0.42018106353E+02  0.42018106655E+02  0.50400000000E-02 0. -1.
          1   -1    0    0  501    0  0.00000000000E+00 -0.00000000000E+00 -0.19253897502E+04  0.19253897502E+04  0.50400000000E-02 0.  1.
    5000001    1    1    2    0    0  0.19040935737E+03  0.75360405874E+02 -0.56693270446E+03  0.62495808303E+03  0.16500000000E+03 0.  0.
   -5000001    1    1    2    0    0 -0.19040935737E+03 -0.75360405874E+02 -0.13164389394E+04  0.13424497739E+04  0.16500000000E+03 0.  0.
<mgrwt>
<rscale>  0 0.56886284E+03</rscale>
<asrwt>0</asrwt>
<pdfrwt beam="1">  1        1 0.27505562E+00 0.56886284E+03</pdfrwt>
<pdfrwt beam="2">  1       -1 0.60025878E-02 0.56886284E+03</pdfrwt>
<totfact> 0.60266294E+02</totfact>
</mgrwt>
</event>
<event>
 4    1  0.2559694E-005  0.5762831E+03  0.7818608E-02  0.9955871E-01
         -1   -1    0    0    0  501 -0.00000000000E+00  0.00000000000E+00  0.12383959810E+03  0.12383959821E+03  0.50400000000E-02 0.  1.
          1   -1    0    0  501    0  0.00000000000E+00 -0.00000000000E+00 -0.67042810252E+03  0.67042810254E+03  0.50400000000E-02 0. -1.
    5000001    1    1    2    0    0  0.21201858298E+03  0.90820894267E+02 -0.34357512103E+03  0.44549879703E+03  0.16500000000E+03 0.  0.
   -5000001    1    1    2    0    0 -0.21201858298E+03 -0.90820894267E+02 -0.20301338339E+03  0.34876890371E+03  0.16500000000E+03 0.  0.
<mgrwt>
<rscale>  0 0.57628308E+03</rscale>
<asrwt>0</asrwt>
<pdfrwt beam="1">  1        1 0.95775441E-01 0.57628308E+03</pdfrwt>
<pdfrwt beam="2">  1       -1 0.17691371E-01 0.57628308E+03</pdfrwt>
<totfact> 0.81956788E+02</totfact>
</mgrwt>
</event>
<event>
 4    1  0.2559694E-005  0.4488930E+03  0.7818608E-02  0.1028053E+00
         -1   -1    0    0    0  501 -0.00000000000E+00  0.00000000000E+00  0.37512551107E+03  0.37512551110E+03  0.50400000000E-02 0. -1.
          1   -1    0    0  501    0  0.00000000000E+00 -0.00000000000E+00 -0.13429169318E+03  0.13429169327E+03  0.50400000000E-02 0.  1.
    5000001    1    1    2    0    0 -0.58422530393E+02 -0.12965365783E+03  0.18182344077E+03  0.28373936396E+03  0.16500000000E+03 0.  0.
   -5000001    1    1    2    0    0  0.58422530393E+02  0.12965365783E+03  0.59010377124E+02  0.22567784042E+03  0.16500000000E+03 0.  0.
<mgrwt>
<rscale>  0 0.44889304E+03</rscale>
<asrwt>0</asrwt>
<pdfrwt beam="1">  1        1 0.19184527E-01 0.44889304E+03</pdfrwt>
<pdfrwt beam="2">  1       -1 0.53589359E-01 0.44889304E+03</pdfrwt>
<totfact> 0.97690376E+02</totfact>
</mgrwt>
</event>
<event>
 4    1  0.2559694E-005  0.5145115E+03  0.7818608E-02  0.1010059E+00
          1   -1    0    0  501    0  0.00000000000E+00  0.00000000000E+00  0.75854652489E+03  0.75854652491E+03  0.50400000000E-02 0.  1.
         -1   -1    0    0    0  501 -0.00000000000E+00 -0.00000000000E+00 -0.87246475030E+02  0.87246475175E+02  0.50400000000E-02 0. -1.
    5000001    1    1    2    0    0  0.10705769487E+03 -0.16564674231E+03  0.32342360528E+03  0.41319247539E+03  0.16500000000E+03 0.  0.
   -5000001    1    1    2    0    0 -0.10705769487E+03  0.16564674231E+03  0.34787644458E+03  0.43260052469E+03  0.16500000000E+03 0.  0.
<mgrwt>
<rscale>  0 0.51451146E+03</rscale>
<asrwt>0</asrwt>
<pdfrwt beam="1">  1        1 0.10836379E+00 0.51451146E+03</pdfrwt>
<pdfrwt beam="2">  1       -1 0.12463782E-01 0.51451146E+03</pdfrwt>
<totfact> 0.12049264E+03</totfact>
</mgrwt>
</event>
<event>
 4    1  0.2559694E-005  0.5706884E+03  0.7818608E-02  0.9968156E-01
         -1   -1    0    0    0  501 -0.00000000000E+00  0.00000000000E+00  0.78515600516E+02  0.78515600678E+02  0.50400000000E-02 0.  1.
          1   -1    0    0  501    0  0.00000000000E+00 -0.00000000000E+00 -0.10370082235E+04  0.10370082235E+04  0.50400000000E-02 0. -1.
    5000001    1    1    2    0    0 -0.13225722340E+03 -0.18252827195E+03 -0.36547378705E+03  0.46000503500E+03  0.16500000000E+03 0.  0.
   -5000001    1    1    2    0    0  0.13225722340E+03  0.18252827195E+03 -0.59301883590E+03  0.65551878915E+03  0.16500000000E+03 0.  0.
<mgrwt>
<rscale>  0 0.57068844E+03</rscale>
<asrwt>0</asrwt>
<pdfrwt beam="1">  1        1 0.14814402E+00 0.57068844E+03</pdfrwt>
<pdfrwt beam="2">  1       -1 0.11216515E-01 0.57068844E+03</pdfrwt>
<totfact> 0.86142460E+02</totfact>
</mgrwt>
</event>
<event>
 4    1  0.2559694E-005  0.3933605E+03  0.7818608E-02  0.1046103E+00
         -1   -1    0    0    0  501 -0.00000000000E+00  0.00000000000E+00  0.11100487830E+03  0.11100487841E+03  0.50400000000E-02 0. -1.
          1   -1    0    0  501    0  0.00000000000E+00 -0.00000000000E+00 -0.34848128261E+03  0.34848128265E+03  0.50400000000E-02 0.  1.
    5000001    1    1    2    0    0 -0.62466394484E+01 -0.38214825831E+02 -0.21690504972E+01  0.16949660232E+03  0.16500000000E+03 0.  0.
   -5000001    1    1    2    0    0  0.62466394484E+01  0.38214825831E+02 -0.23530735382E+03  0.28998955874E+03  0.16500000000E+03 0.  0.
<mgrwt>
<rscale>  0 0.39336051E+03</rscale>
<asrwt>0</asrwt>
<pdfrwt beam="1">  1        1 0.49783040E-01 0.39336051E+03</pdfrwt>
<pdfrwt beam="2">  1       -1 0.15857840E-01 0.39336051E+03</pdfrwt>
<totfact> 0.23514728E+03</totfact>
</mgrwt>
</event>
<event>
 4    1  0.2559694E-005  0.4259806E+03  0.7818608E-02  0.1035137E+00
         -1   -1    0    0    0  501 -0.00000000000E+00  0.00000000000E+00  0.18836094308E+03  0.18836094314E+03  0.50400000000E-02 0.  1.
          1   -1    0    0  501    0  0.00000000000E+00 -0.00000000000E+00 -0.24084009084E+03  0.24084009089E+03  0.50400000000E-02 0. -1.
    5000001    1    1    2    0    0  0.11304470111E+03 -0.18264692472E+02  0.45198944340E+02  0.20586560667E+03  0.16500000000E+03 0.  0.
   -5000001    1    1    2    0    0 -0.11304470111E+03  0.18264692472E+02 -0.97678092099E+02  0.22333542736E+03  0.16500000000E+03 0.  0.
<mgrwt>
<rscale>  0 0.42598059E+03</rscale>
<asrwt>0</asrwt>
<pdfrwt beam="1">  1        1 0.34405727E-01 0.42598059E+03</pdfrwt>
<pdfrwt beam="2">  1       -1 0.26908706E-01 0.42598059E+03</pdfrwt>
<totfact> 0.15742628E+03</totfact>
</mgrwt>
</event>
<event>
 4    1  0.2559694E-005  0.1068577E+04  0.7818608E-02  0.9236372E-01
          1   -1    0    0  501    0  0.00000000000E+00  0.00000000000E+00  0.19708473059E+03  0.19708473066E+03  0.50400000000E-02 0.  1.
         -1   -1    0    0    0  501 -0.00000000000E+00 -0.00000000000E+00 -0.14484329536E+04  0.14484329536E+04  0.50400000000E-02 0. -1.
    5000001    1    1    2    0    0 -0.49606927410E+03 -0.64031033170E+02 -0.76387515649E+03  0.92785502780E+03  0.16500000000E+03 0.  0.
   -5000001    1    1    2    0    0  0.49606927410E+03  0.64031033170E+02 -0.48747306654E+03  0.71766265649E+03  0.16500000000E+03 0.  0.
<mgrwt>
<rscale>  0 0.10685767E+04</rscale>
<asrwt>0</asrwt>
<pdfrwt beam="1">  1        1 0.28154962E-01 0.10685767E+04</pdfrwt>
<pdfrwt beam="2">  1       -1 0.20691899E+00 0.10685767E+04</pdfrwt>
<totfact> 0.22550546E+01</totfact>
</mgrwt>
</event>
<event>
 4    1  0.2559694E-005  0.4716600E+03  0.7818608E-02  0.1021453E+00
         -1   -1    0    0    0  501 -0.00000000000E+00  0.00000000000E+00  0.43373634556E+03  0.43373634559E+03  0.50400000000E-02 0. -1.
          1   -1    0    0  501    0  0.00000000000E+00 -0.00000000000E+00 -0.12822489564E+03  0.12822489574E+03  0.50400000000E-02 0.  1.
    5000001    1    1    2    0    0  0.74104036224E+02 -0.12093596252E+03  0.26113143502E+03  0.33989931093E+03  0.16500000000E+03 0.  0.
   -5000001    1    1    2    0    0 -0.74104036224E+02  0.12093596252E+03  0.44380014905E+02  0.22206193041E+03  0.16500000000E+03 0.  0.
<mgrwt>
<rscale>  0 0.47166004E+03</rscale>
<asrwt>0</asrwt>
<pdfrwt beam="1">  1        1 0.18317842E-01 0.47166004E+03</pdfrwt>
<pdfrwt beam="2">  1       -1 0.61962335E-01 0.47166004E+03</pdfrwt>
<totfact> 0.78419437E+02</totfact>
</mgrwt>
</event>
<event>
 4    1  0.2559694E-005  0.1275583E+04  0.7818608E-02  0.9049155E-01
          1   -1    0    0  501    0  0.00000000000E+00  0.00000000000E+00  0.76627269604E+03  0.76627269606E+03  0.50400000000E-02 0.  1.
         -1   -1    0    0    0  501 -0.00000000000E+00 -0.00000000000E+00 -0.53085276184E+03  0.53085276187E+03  0.50400000000E-02 0. -1.
    5000001    1    1    2    0    0 -0.52658637832E+03 -0.31421686731E+03  0.17810597458E+03  0.65952421616E+03  0.16500000000E+03 0.  0.
   -5000001    1    1    2    0    0  0.52658637832E+03  0.31421686731E+03  0.57313959621E+02  0.63760124176E+03  0.16500000000E+03 0.  0.
<mgrwt>
<rscale>  0 0.12755830E+04</rscale>
<asrwt>0</asrwt>
<pdfrwt beam="1">  1        1 0.10946753E+00 0.12755830E+04</pdfrwt>
<pdfrwt beam="2">  1       -1 0.75836109E-01 0.12755830E+04</pdfrwt>
<totfact> 0.45777648E+01</totfact>
</mgrwt>
</event>
<event>
 4    1  0.2559694E-005  0.5492276E+03  0.7818608E-02  0.1001673E+00
          1   -1    0    0  501    0  0.00000000000E+00  0.00000000000E+00  0.32988371389E+02  0.32988371774E+02  0.50400000000E-02 0.  1.
         -1   -1    0    0    0  501 -0.00000000000E+00 -0.00000000000E+00 -0.22860400183E+04  0.22860400183E+04  0.50400000000E-02 0. -1.
    5000001    1    1    2    0    0 -0.83534698418E+02  0.19551582932E+03 -0.13571467452E+04  0.13835739132E+04  0.16500000000E+03 0.  0.
   -5000001    1    1    2    0    0  0.83534698418E+02 -0.19551582932E+03 -0.89590490171E+03  0.93545447685E+03  0.16500000000E+03 0.  0.
<mgrwt>
<rscale>  0 0.54922759E+03</rscale>
<asrwt>0</asrwt>
<pdfrwt beam="1">  1        1 0.47126259E-02 0.54922759E+03</pdfrwt>
<pdfrwt beam="2">  1       -1 0.32657705E+00 0.54922759E+03</pdfrwt>
<totfact> 0.45716231E+01</totfact>
</mgrwt>
</event>
<event>
 4    1  0.2559694E-005  0.5462267E+03  0.7818608E-02  0.1002371E+00
         -1   -1    0    0    0  501 -0.00000000000E+00  0.00000000000E+00  0.16236214001E+03  0.16236214009E+03  0.50400000000E-02 0. -1.
          1   -1    0    0  501    0  0.00000000000E+00 -0.00000000000E+00 -0.45941065164E+03  0.45941065167E+03  0.50400000000E-02 0.  1.
    5000001    1    1    2    0    0 -0.83149461603E+01  0.19512163884E+03 -0.39197712886E+02  0.25865624479E+03  0.16500000000E+03 0.  0.
   -5000001    1    1    2    0    0  0.83149461603E+01 -0.19512163884E+03 -0.25785079875E+03  0.36311654697E+03  0.16500000000E+03 0.  0.
<mgrwt>
<rscale>  0 0.54622668E+03</rscale>
<asrwt>0</asrwt>
<pdfrwt beam="1">  1        1 0.65630093E-01 0.54622668E+03</pdfrwt>
<pdfrwt beam="2">  1       -1 0.23194592E-01 0.54622668E+03</pdfrwt>
<totfact> 0.88009145E+02</totfact>
</mgrwt>
</event>
<event>
 4    1  0.2559694E-005  0.7131069E+03  0.7818608E-02  0.9695077E-01
          1   -1    0    0  501    0  0.00000000000E+00  0.00000000000E+00  0.15227073908E+04  0.15227073908E+04  0.50400000000E-02 0. -1.
         -1   -1    0    0    0  501 -0.00000000000E+00 -0.00000000000E+00 -0.83489674725E+02  0.83489674877E+02  0.50400000000E-02 0.  1.
    5000001    1    1    2    0    0 -0.83197144270E+02  0.30365552968E+03  0.65682809286E+03  0.74684442094E+03  0.16500000000E+03 0.  0.
   -5000001    1    1    2    0    0  0.83197144270E+02 -0.30365552968E+03  0.78238962322E+03  0.85935264475E+03  0.16500000000E+03 0.  0.
<mgrwt>
<rscale>  0 0.71310685E+03</rscale>
<asrwt>0</asrwt>
<pdfrwt beam="1">  1        1 0.21752963E+00 0.71310685E+03</pdfrwt>
<pdfrwt beam="2">  1       -1 0.11927096E-01 0.71310685E+03</pdfrwt>
<totfact> 0.36445781E+02</totfact>
</mgrwt>
</event>
<event>
 4    1  0.2559694E-005  0.4288188E+03  0.7818608E-02  0.1034234E+00
         -1   -1    0    0    0  501 -0.00000000000E+00  0.00000000000E+00  0.32436404394E+02  0.32436404786E+02  0.50400000000E-02 0. -1.
          1   -1    0    0  501    0  0.00000000000E+00 -0.00000000000E+00 -0.14172778156E+04  0.14172778156E+04  0.50400000000E-02 0.  1.
    5000001    1    1    2    0    0  0.73993304415E+02 -0.75822577320E+02 -0.98563462368E+03  0.10049500902E+04  0.16500000000E+03 0.  0.
   -5000001    1    1    2    0    0 -0.73993304415E+02  0.75822577320E+02 -0.39920678752E+03  0.44476413022E+03  0.16500000000E+03 0.  0.
<mgrwt>
<rscale>  0 0.42881883E+03</rscale>
<asrwt>0</asrwt>
<pdfrwt beam="1">  1        1 0.20246822E+00 0.42881883E+03</pdfrwt>
<pdfrwt beam="2">  1       -1 0.46337730E-02 0.42881883E+03</pdfrwt>
<totfact> 0.18743678E+03</totfact>
</mgrwt>
</event>
<event>
 4    1  0.2559694E-005  0.4391093E+03  0.7818608E-02  0.1031020E+00
          1   -1    0    0  501    0  0.00000000000E+00  0.00000000000E+00  0.57798927714E+03  0.57798927716E+03  0.50400000000E-02 0. -1.
         -1   -1    0    0    0  501 -0.00000000000E+00 -0.00000000000E+00 -0.83399912402E+02  0.83399912555E+02  0.50400000000E-02 0.  1.
    5000001    1    1    2    0    0  0.82216398863E+02  0.75415050623E+02  0.10816583479E+03  0.22665351071E+03  0.16500000000E+03 0.  0.
   -5000001    1    1    2    0    0 -0.82216398863E+02 -0.75415050623E+02  0.38642352995E+03  0.43473567901E+03  0.16500000000E+03 0.  0.
<mgrwt>
<rscale>  0 0.43910935E+03</rscale>
<asrwt>0</asrwt>
<pdfrwt beam="1">  1        1 0.82569898E-01 0.43910935E+03</pdfrwt>
<pdfrwt beam="2">  1       -1 0.11914273E-01 0.43910935E+03</pdfrwt>
<totfact> 0.19098556E+03</totfact>
</mgrwt>
</event>
<event>
 4    1  0.2559694E-005  0.6597769E+03  0.7818608E-02  0.9788605E-01
         -1   -1    0    0    0  501 -0.00000000000E+00  0.00000000000E+00  0.55878847888E+03  0.55878847890E+03  0.50400000000E-02 0.  1.
          1   -1    0    0  501    0  0.00000000000E+00 -0.00000000000E+00 -0.19475415749E+03  0.19475415755E+03  0.50400000000E-02 0. -1.
    5000001    1    1    2    0    0  0.23680138840E+03  0.78031258654E+02  0.34124980808E+03  0.45369616087E+03  0.16500000000E+03 0.  0.
   -5000001    1    1    2    0    0 -0.23680138840E+03 -0.78031258654E+02  0.22784513311E+02  0.29984647558E+03  0.16500000000E+03 0.  0.
<mgrwt>
<rscale>  0 0.65977687E+03</rscale>
<asrwt>0</asrwt>
<pdfrwt beam="1">  1        1 0.27822023E-01 0.65977687E+03</pdfrwt>
<pdfrwt beam="2">  1       -1 0.79826925E-01 0.65977687E+03</pdfrwt>
<totfact> 0.26961993E+02</totfact>
</mgrwt>
</event>
<event>
 4    1  0.2559694E-005  0.5098960E+03  0.7818608E-02  0.1011228E+00
          1   -1    0    0  501    0  0.00000000000E+00  0.00000000000E+00  0.14155276446E+04  0.14155276446E+04  0.50400000000E-02 0.  1.
         -1   -1    0    0    0  501 -0.00000000000E+00 -0.00000000000E+00 -0.45918204480E+02  0.45918204757E+02  0.50400000000E-02 0. -1.
    5000001    1    1    2    0    0 -0.85481872923E+02  0.16937096630E+03  0.80572198602E+03  0.84404181980E+03  0.16500000000E+03 0.  0.
   -5000001    1    1    2    0    0  0.85481872923E+02 -0.16937096630E+03  0.56388745409E+03  0.61740402955E+03  0.16500000000E+03 0.  0.
<mgrwt>
<rscale>  0 0.50989602E+03</rscale>
<asrwt>0</asrwt>
<pdfrwt beam="1">  1        1 0.20221825E+00 0.50989602E+03</pdfrwt>
<pdfrwt beam="2">  1       -1 0.65597430E-02 0.50989602E+03</pdfrwt>
<totfact> 0.11027344E+03</totfact>
</mgrwt>
</event>
<event>
 4    1  0.2559694E-005  0.5047766E+03  0.7818608E-02  0.1012540E+00
         -1   -1    0    0    0  501 -0.00000000000E+00  0.00000000000E+00  0.39639514793E+02  0.39639515113E+02  0.50400000000E-02 0. -1.
          1   -1    0    0  501    0  0.00000000000E+00 -0.00000000000E+00 -0.16069786766E+04  0.16069786766E+04  0.50400000000E-02 0.  1.
    5000001    1    1    2    0    0 -0.14645410428E+03 -0.12256697862E+03 -0.78967248941E+03  0.82902298487E+03  0.16500000000E+03 0.  0.
   -5000001    1    1    2    0    0  0.14645410428E+03  0.12256697862E+03 -0.77766667242E+03  0.81759520687E+03  0.16500000000E+03 0.  0.
<mgrwt>
<rscale>  0 0.50477661E+03</rscale>
<asrwt>0</asrwt>
<pdfrwt beam="1">  1        1 0.22956834E+00 0.50477661E+03</pdfrwt>
<pdfrwt beam="2">  1       -1 0.56627889E-02 0.50477661E+03</pdfrwt>
<totfact> 0.10437373E+03</totfact>
</mgrwt>
</event>
<event>
 4    1  0.2559694E-005  0.4684347E+03  0.7818608E-02  0.1022363E+00
          1   -1    0    0  501    0  0.00000000000E+00  0.00000000000E+00  0.13167860508E+04  0.13167860508E+04  0.50400000000E-02 0.  1.
         -1   -1    0    0    0  501 -0.00000000000E+00 -0.00000000000E+00 -0.41660346384E+02  0.41660346689E+02  0.50400000000E-02 0. -1.
    5000001    1    1    2    0    0  0.19544762338E+02 -0.16276856923E+03  0.55776580566E+03  0.60432052657E+03  0.16500000000E+03 0.  0.
   -5000001    1    1    2    0    0 -0.19544762338E+02  0.16276856923E+03  0.71735989874E+03  0.75412587092E+03  0.16500000000E+03 0.  0.
<mgrwt>
<rscale>  0 0.46843468E+03</rscale>
<asrwt>0</asrwt>
<pdfrwt beam="1">  1        1 0.18811229E+00 0.46843468E+03</pdfrwt>
<pdfrwt beam="2">  1       -1 0.59514782E-02 0.46843468E+03</pdfrwt>
<totfact> 0.14872774E+03</totfact>
</mgrwt>
</event>
<event>
 4    1  0.2559694E-005  0.6192606E+03  0.7818608E-02  0.9866233E-01
          1   -1    0    0  501    0  0.00000000000E+00  0.00000000000E+00  0.10355393877E+04  0.10355393877E+04  0.50400000000E-02 0.  1.
         -1   -1    0    0    0  501 -0.00000000000E+00 -0.00000000000E+00 -0.92580655037E+02  0.92580655174E+02  0.50400000000E-02 0. -1.
    5000001    1    1    2    0    0 -0.33394905254E+02 -0.23518250036E+03  0.27009976629E+03  0.39573338489E+03  0.16500000000E+03 0.  0.
   -5000001    1    1    2    0    0  0.33394905254E+02  0.23518250036E+03  0.67285896635E+03  0.73238665796E+03  0.16500000000E+03 0.  0.
<mgrwt>
<rscale>  0 0.61926057E+03</rscale>
<asrwt>0</asrwt>
<pdfrwt beam="1">  1        1 0.14793417E+00 0.61926057E+03</pdfrwt>
<pdfrwt beam="2">  1       -1 0.13225810E-01 0.61926057E+03</pdfrwt>
<totfact> 0.66272023E+02</totfact>
</mgrwt>
</event>
<event>
 4    1  0.2559694E-005  0.4610821E+03  0.7818608E-02  0.1024468E+00
          1   -1    0    0  501    0  0.00000000000E+00  0.00000000000E+00  0.28356097189E+04  0.28356097189E+04  0.50400000000E-02 0.  1.
         -1   -1    0    0    0  501 -0.00000000000E+00 -0.00000000000E+00 -0.18743477056E+02  0.18743477733E+02  0.50400000000E-02 0. -1.
    5000001    1    1    2    0    0  0.25750223917E+02  0.15737099109E+03  0.15462315092E+04  0.15631652449E+04  0.16500000000E+03 0.  0.
   -5000001    1    1    2    0    0 -0.25750223917E+02 -0.15737099109E+03  0.12706347326E+04  0.12911879517E+04  0.16500000000E+03 0.  0.
<mgrwt>
<rscale>  0 0.46108215E+03</rscale>
<asrwt>0</asrwt>
<pdfrwt beam="1">  1        1 0.40508723E+00 0.46108215E+03</pdfrwt>
<pdfrwt beam="2">  1       -1 0.26776388E-02 0.46108215E+03</pdfrwt>
<totfact> 0.56264711E+02</totfact>
</mgrwt>
</event>
<event>
 4    1  0.2559694E-005  0.4096155E+03  0.7818608E-02  0.1040500E+00
         -1   -1    0    0    0  501 -0.00000000000E+00  0.00000000000E+00  0.15960042069E+02  0.15960042865E+02  0.50400000000E-02 0. -1.
          1   -1    0    0  501    0  0.00000000000E+00 -0.00000000000E+00 -0.26282018274E+04  0.26282018274E+04  0.50400000000E-02 0.  1.
    5000001    1    1    2    0    0 -0.93018362580E+02 -0.65475277529E+02 -0.10336379507E+04  0.10528873828E+04  0.16500000000E+03 0.  0.
   -5000001    1    1    2    0    0  0.93018362580E+02  0.65475277529E+02 -0.15786038346E+04  0.15912744875E+04  0.16500000000E+03 0.  0.
<mgrwt>
<rscale>  0 0.40961549E+03</rscale>
<asrwt>0</asrwt>
<pdfrwt beam="1">  1        1 0.37545713E+00 0.40961549E+03</pdfrwt>
<pdfrwt beam="2">  1       -1 0.22800077E-02 0.40961549E+03</pdfrwt>
<totfact> 0.96895927E+02</totfact>
</mgrwt>
</event>
<event>
 4    1  0.2559694E-005  0.3769378E+03  0.7818608E-02  0.1052071E+00
          1   -1    0    0  501    0  0.00000000000E+00  0.00000000000E+00  0.17286341646E+03  0.17286341653E+03  0.50400000000E-02 0.  1.
         -1   -1    0    0    0  501 -0.00000000000E+00 -0.00000000000E+00 -0.20548316131E+03  0.20548316137E+03  0.50400000000E-02 0. -1.
    5000001    1    1    2    0    0 -0.26206983946E+02  0.62145575287E+02 -0.77748469864E+02  0.19447031419E+03  0.16500000000E+03 0.  0.
   -5000001    1    1    2    0    0  0.26206983946E+02 -0.62145575287E+02  0.45128725017E+02  0.18387626371E+03  0.16500000000E+03 0.  0.
<mgrwt>
<rscale>  0 0.37693777E+03</rscale>
<asrwt>0</asrwt>
<pdfrwt beam="1">  1        1 0.24694774E-01 0.37693777E+03</pdfrwt>
<pdfrwt beam="2">  1       -1 0.29354737E-01 0.37693777E+03</pdfrwt>
<totfact> 0.20720179E+03</totfact>
</mgrwt>
</event>
<event>
 4    1  0.2559694E-005  0.3893868E+03  0.7818608E-02  0.1047518E+00
         -1   -1    0    0    0  501 -0.00000000000E+00  0.00000000000E+00  0.21619971820E+03  0.21619971826E+03  0.50400000000E-02 0. -1.
          1   -1    0    0  501    0  0.00000000000E+00 -0.00000000000E+00 -0.17532643491E+03  0.17532643498E+03  0.50400000000E-02 0.  1.
    5000001    1    1    2    0    0 -0.23800583680E+02  0.93078533424E+02 -0.17857302855E+02  0.19176538904E+03  0.16500000000E+03 0.  0.
   -5000001    1    1    2    0    0  0.23800583680E+02 -0.93078533424E+02  0.58730586148E+02  0.19976076421E+03  0.16500000000E+03 0.  0.
<mgrwt>
<rscale>  0 0.38938683E+03</rscale>
<asrwt>0</asrwt>
<pdfrwt beam="1">  1        1 0.25046633E-01 0.38938683E+03</pdfrwt>
<pdfrwt beam="2">  1       -1 0.30885674E-01 0.38938683E+03</pdfrwt>
<totfact> 0.18653239E+03</totfact>
</mgrwt>
</event>
<event>
 4    1  0.2559694E-005  0.5104141E+03  0.7818608E-02  0.1011096E+00
          1   -1    0    0  501    0  0.00000000000E+00  0.00000000000E+00  0.61136824728E+02  0.61136824936E+02  0.50400000000E-02 0.  1.
         -1   -1    0    0    0  501 -0.00000000000E+00 -0.00000000000E+00 -0.10653258331E+04  0.10653258331E+04  0.50400000000E-02 0. -1.
    5000001    1    1    2    0    0 -0.16858237672E+03 -0.15256618207E+02 -0.71438573423E+03  0.75247907573E+03  0.16500000000E+03 0.  0.
   -5000001    1    1    2    0    0  0.16858237672E+03  0.15256618207E+02 -0.28980327414E+03  0.37398358232E+03  0.16500000000E+03 0.  0.
<mgrwt>
<rscale>  0 0.51041410E+03</rscale>
<asrwt>0</asrwt>
<pdfrwt beam="1">  1        1 0.87338328E-02 0.51041410E+03</pdfrwt>
<pdfrwt beam="2">  1       -1 0.15218939E+00 0.51041410E+03</pdfrwt>
<totfact> 0.27821181E+02</totfact>
</mgrwt>
</event>
<event>
 4    1  0.2559694E-005  0.5770030E+03  0.7818608E-02  0.9954301E-01
          1   -1    0    0  501    0  0.00000000000E+00  0.00000000000E+00  0.62211258437E+03  0.62211258439E+03  0.50400000000E-02 0.  1.
         -1   -1    0    0    0  501 -0.00000000000E+00 -0.00000000000E+00 -0.13379109957E+03  0.13379109967E+03  0.50400000000E-02 0. -1.
    5000001    1    1    2    0    0 -0.21943191709E+03 -0.32689245436E+02  0.13621716094E+03  0.30821918814E+03  0.16500000000E+03 0.  0.
   -5000001    1    1    2    0    0  0.21943191709E+03  0.32689245436E+02  0.35210432386E+03  0.44768449592E+03  0.16500000000E+03 0.  0.
<mgrwt>
<rscale>  0 0.57700304E+03</rscale>
<asrwt>0</asrwt>
<pdfrwt beam="1">  1        1 0.88873228E-01 0.57700304E+03</pdfrwt>
<pdfrwt beam="2">  1       -1 0.19113014E-01 0.57700304E+03</pdfrwt>
<totfact> 0.80300280E+02</totfact>
</mgrwt>
</event>
<event>
 4    1  0.2559694E-005  0.6189540E+03  0.7818608E-02  0.9866845E-01
          1   -1    0    0  501    0  0.00000000000E+00  0.00000000000E+00  0.20140446115E+03  0.20140446121E+03  0.50400000000E-02 0.  1.
         -1   -1    0    0    0  501 -0.00000000000E+00 -0.00000000000E+00 -0.47554067367E+03  0.47554067370E+03  0.50400000000E-02 0. -1.
    5000001    1    1    2    0    0 -0.18958921530E+03  0.17561644634E+03 -0.18302669022E+03  0.35708399028E+03  0.16500000000E+03 0.  0.
   -5000001    1    1    2    0    0  0.18958921530E+03 -0.17561644634E+03 -0.91109522309E+02  0.31986114462E+03  0.16500000000E+03 0.  0.
<mgrwt>
<rscale>  0 0.61895400E+03</rscale>
<asrwt>0</asrwt>
<pdfrwt beam="1">  1        1 0.28772066E-01 0.61895400E+03</pdfrwt>
<pdfrwt beam="2">  1       -1 0.67934382E-01 0.61895400E+03</pdfrwt>
<totfact> 0.36085024E+02</totfact>
</mgrwt>
</event>
<event>
 4    1  0.2559694E-005  0.8861057E+03  0.7818608E-02  0.9443119E-01
         -1   -1    0    0    0  501 -0.00000000000E+00  0.00000000000E+00  0.28681986288E+03  0.28681986292E+03  0.50400000000E-02 0. -1.
          1   -1    0    0  501    0  0.00000000000E+00 -0.00000000000E+00 -0.68438716260E+03  0.68438716261E+03  0.50400000000E-02 0.  1.
    5000001    1    1    2    0    0 -0.30048098702E+03 -0.23654174576E+03 -0.33176401258E+02  0.41781155399E+03  0.16500000000E+03 0.  0.
   -5000001    1    1    2    0    0  0.30048098702E+03  0.23654174576E+03 -0.36439089846E+03  0.55339547155E+03  0.16500000000E+03 0.  0.
<mgrwt>
<rscale>  0 0.88610571E+03</rscale>
<asrwt>0</asrwt>
<pdfrwt beam="1">  1        1 0.97769594E-01 0.88610571E+03</pdfrwt>
<pdfrwt beam="2">  1       -1 0.40974266E-01 0.88610571E+03</pdfrwt>
<totfact> 0.18476588E+02</totfact>
</mgrwt>
</event>
<event>
 4    1  0.2559694E-005  0.4050734E+03  0.7818608E-02  0.1042037E+00
          1   -1    0    0  501    0  0.00000000000E+00  0.00000000000E+00  0.17528619679E+04  0.17528619679E+04  0.50400000000E-02 0.  1.
         -1   -1    0    0    0  501 -0.00000000000E+00 -0.00000000000E+00 -0.23402369459E+02  0.23402370002E+02  0.50400000000E-02 0. -1.
    5000001    1    1    2    0    0  0.25345042406E+02  0.96445242032E+02  0.59257199318E+03  0.62314574779E+03  0.16500000000E+03 0.  0.
   -5000001    1    1    2    0    0 -0.25345042406E+02 -0.96445242032E+02  0.11368876052E+04  0.11531185901E+04  0.16500000000E+03 0.  0.
<mgrwt>
<rscale>  0 0.40507344E+03</rscale>
<asrwt>0</asrwt>
<pdfrwt beam="1">  1        1 0.25040893E+00 0.40507344E+03</pdfrwt>
<pdfrwt beam="2">  1       -1 0.33431946E-02 0.40507344E+03</pdfrwt>
<totfact> 0.18870930E+03</totfact>
</mgrwt>
</event>
<event>
 4    1  0.2559694E-005  0.6549746E+03  0.7818608E-02  0.9797489E-01
         -1   -1    0    0    0  501 -0.00000000000E+00  0.00000000000E+00  0.16999953775E+03  0.16999953782E+03  0.50400000000E-02 0. -1.
          1   -1    0    0  501    0  0.00000000000E+00 -0.00000000000E+00 -0.63087189071E+03  0.63087189073E+03  0.50400000000E-02 0.  1.
    5000001    1    1    2    0    0 -0.75795196771E+02  0.27209953464E+03 -0.21149886267E+03  0.38953797956E+03  0.16500000000E+03 0.  0.
   -5000001    1    1    2    0    0  0.75795196771E+02 -0.27209953464E+03 -0.24937349029E+03  0.41133344900E+03  0.16500000000E+03 0.  0.
<mgrwt>
<rscale>  0 0.65497459E+03</rscale>
<asrwt>0</asrwt>
<pdfrwt beam="1">  1        1 0.90124554E-01 0.65497459E+03</pdfrwt>
<pdfrwt beam="2">  1       -1 0.24285649E-01 0.65497459E+03</pdfrwt>
<totfact> 0.52631743E+02</totfact>
</mgrwt>
</event>
<event>
 4    1  0.2559694E-005  0.5008796E+03  0.7818608E-02  0.1013550E+00
          1   -1    0    0  501    0  0.00000000000E+00  0.00000000000E+00  0.85072399288E+03  0.85072399289E+03  0.50400000000E-02 0.  1.
         -1   -1    0    0    0  501 -0.00000000000E+00 -0.00000000000E+00 -0.73725556273E+02  0.73725556446E+02  0.50400000000E-02 0. -1.
    5000001    1    1    2    0    0 -0.70499897670E+02  0.11041955158E+03  0.13860318938E+03  0.25218754340E+03  0.16500000000E+03 0.  0.
   -5000001    1    1    2    0    0  0.70499897670E+02 -0.11041955158E+03  0.63839524723E+03  0.67226200593E+03  0.16500000000E+03 0.  0.
<mgrwt>
<rscale>  0 0.50087963E+03</rscale>
<asrwt>0</asrwt>
<pdfrwt beam="1">  1        1 0.12153200E+00 0.50087963E+03</pdfrwt>
<pdfrwt beam="2">  1       -1 0.10532223E-01 0.50087963E+03</pdfrwt>
<totfact> 0.13202392E+03</totfact>
</mgrwt>
</event>
<event>
 4    1  0.2559694E-005  0.6041750E+03  0.7818608E-02  0.9896782E-01
          1   -1    0    0  501    0  0.00000000000E+00  0.00000000000E+00  0.17694321593E+03  0.17694321600E+03  0.50400000000E-02 0. -1.
         -1   -1    0    0    0  501 -0.00000000000E+00 -0.00000000000E+00 -0.51574094882E+03  0.51574094884E+03  0.50400000000E-02 0.  1.
    5000001    1    1    2    0    0 -0.23462047413E+03  0.22639615153E+02 -0.63868027611E+02  0.29472604908E+03  0.16500000000E+03 0.  0.
   -5000001    1    1    2    0    0  0.23462047413E+03 -0.22639615153E+02 -0.27492970527E+03  0.39795811576E+03  0.16500000000E+03 0.  0.
<mgrwt>
<rscale>  0 0.60417501E+03</rscale>
<asrwt>0</asrwt>
<pdfrwt beam="1">  1        1 0.25277602E-01 0.60417501E+03</pdfrwt>
<pdfrwt beam="2">  1       -1 0.73677278E-01 0.60417501E+03</pdfrwt>
<totfact> 0.36187395E+02</totfact>
</mgrwt>
</event>
<event>
 4    1  0.2559694E-005  0.3735703E+03  0.7818608E-02  0.1053336E+00
         -1   -1    0    0    0  501 -0.00000000000E+00  0.00000000000E+00  0.18507783255E+03  0.18507783262E+03  0.50400000000E-02 0.  1.
          1   -1    0    0  501    0  0.00000000000E+00 -0.00000000000E+00 -0.18850818738E+03  0.18850818745E+03  0.50400000000E-02 0. -1.
    5000001    1    1    2    0    0  0.27699229902E+02 -0.70087696684E+02 -0.46260901175E+02  0.18720203936E+03  0.16500000000E+03 0.  0.
   -5000001    1    1    2    0    0 -0.27699229902E+02  0.70087696684E+02  0.42830546348E+02  0.18638398071E+03  0.16500000000E+03 0.  0.
<mgrwt>
<rscale>  0 0.37357027E+03</rscale>
<asrwt>0</asrwt>
<pdfrwt beam="1">  1        1 0.26929741E-01 0.37357027E+03</pdfrwt>
<pdfrwt beam="2">  1       -1 0.26439690E-01 0.37357027E+03</pdfrwt>
<totfact> 0.22142734E+03</totfact>
</mgrwt>
</event>
<event>
 4    1  0.2559694E-005  0.7672726E+03  0.7818608E-02  0.9608635E-01
         -1   -1    0    0    0  501 -0.00000000000E+00  0.00000000000E+00  0.83626630118E+02  0.83626630270E+02  0.50400000000E-02 0.  1.
          1   -1    0    0  501    0  0.00000000000E+00 -0.00000000000E+00 -0.17599275779E+04  0.17599275779E+04  0.50400000000E-02 0. -1.
    5000001    1    1    2    0    0  0.34924298137E+02 -0.92861097447E+02 -0.40858345165E+02  0.19681792192E+03  0.16500000000E+03 0.  0.
   -5000001    1    1    2    0    0 -0.34924298137E+02  0.92861097447E+02 -0.16354426026E+04  0.16467362862E+04  0.16500000000E+03 0.  0.
<mgrwt>
<rscale>  0 0.76727261E+03</rscale>
<asrwt>0</asrwt>
<pdfrwt beam="1">  1        1 0.25141820E+00 0.76727261E+03</pdfrwt>
<pdfrwt beam="2">  1       -1 0.11946663E-01 0.76727261E+03</pdfrwt>
<totfact> 0.25616110E+02</totfact>
</mgrwt>
</event>
<event>
 4    1  0.2559694E-005  0.5346687E+03  0.7818608E-02  0.1005106E+00
         -1   -1    0    0    0  501 -0.00000000000E+00  0.00000000000E+00  0.26168053117E+03  0.26168053122E+03  0.50400000000E-02 0. -1.
          1   -1    0    0  501    0  0.00000000000E+00 -0.00000000000E+00 -0.27311036626E+03  0.27311036631E+03  0.50400000000E-02 0.  1.
    5000001    1    1    2    0    0  0.18634794450E+03 -0.61443535909E+02 -0.81506903810E+02  0.26901531535E+03  0.16500000000E+03 0.  0.
   -5000001    1    1    2    0    0 -0.18634794450E+03  0.61443535909E+02  0.70077068714E+02  0.26577558218E+03  0.16500000000E+03 0.  0.
<mgrwt>
<rscale>  0 0.53466874E+03</rscale>
<asrwt>0</asrwt>
<pdfrwt beam="1">  1        1 0.39015766E-01 0.53466874E+03</pdfrwt>
<pdfrwt beam="2">  1       -1 0.37382933E-01 0.53466874E+03</pdfrwt>
<totfact> 0.75652614E+02</totfact>
</mgrwt>
</event>
<event>
 4    1  0.2559694E-005  0.3859690E+03  0.7818608E-02  0.1048749E+00
          1   -1    0    0  501    0  0.00000000000E+00  0.00000000000E+00  0.14933179934E+04  0.14933179934E+04  0.50400000000E-02 0. -1.
         -1   -1    0    0    0  501 -0.00000000000E+00 -0.00000000000E+00 -0.24939774683E+02  0.24939775193E+02  0.50400000000E-02 0.  1.
    5000001    1    1    2    0    0 -0.67632514897E+02  0.72879181427E+02  0.68891265640E+03  0.71533990543E+03  0.16500000000E+03 0.  0.
   -5000001    1    1    2    0    0  0.67632514897E+02 -0.72879181427E+02  0.77946556231E+03  0.80291786316E+03  0.16500000000E+03 0.  0.
<mgrwt>
<rscale>  0 0.38596899E+03</rscale>
<asrwt>0</asrwt>
<pdfrwt beam="1">  1        1 0.21333117E+00 0.38596899E+03</pdfrwt>
<pdfrwt beam="2">  1       -1 0.35628246E-02 0.38596899E+03</pdfrwt>
<totfact> 0.24915761E+03</totfact>
</mgrwt>
</event>
<event>
 4    1  0.2559694E-005  0.3493174E+03  0.7818608E-02  0.1062896E+00
         -1   -1    0    0    0  501 -0.00000000000E+00  0.00000000000E+00  0.13756810209E+03  0.13756810218E+03  0.50400000000E-02 0.  1.
          1   -1    0    0  501    0  0.00000000000E+00 -0.00000000000E+00 -0.22174950378E+03  0.22174950384E+03  0.50400000000E-02 0. -1.
    5000001    1    1    2    0    0 -0.42437412017E+02 -0.38066373574E+02 -0.36393581748E+02  0.17832407445E+03  0.16500000000E+03 0.  0.
   -5000001    1    1    2    0    0  0.42437412017E+02  0.38066373574E+02 -0.47787819946E+02  0.18099353157E+03  0.16500000000E+03 0.  0.
<mgrwt>
<rscale>  0 0.34931738E+03</rscale>
<asrwt>0</asrwt>
<pdfrwt beam="1">  1        1 0.31678500E-01 0.34931738E+03</pdfrwt>
<pdfrwt beam="2">  1       -1 0.19652586E-01 0.34931738E+03</pdfrwt>
<totfact> 0.29423380E+03</totfact>
</mgrwt>
</event>
<event>
 4    1  0.2559694E-005  0.5004781E+03  0.7818608E-02  0.1013654E+00
         -1   -1    0    0    0  501 -0.00000000000E+00  0.00000000000E+00  0.36832750866E+03  0.36832750870E+03  0.50400000000E-02 0. -1.
          1   -1    0    0  501    0  0.00000000000E+00 -0.00000000000E+00 -0.17001062642E+03  0.17001062649E+03  0.50400000000E-02 0.  1.
    5000001    1    1    2    0    0  0.86579286614E+02 -0.11941899929E+03  0.22477327465E+03  0.31544396532E+03  0.16500000000E+03 0.  0.
   -5000001    1    1    2    0    0 -0.86579286614E+02  0.11941899929E+03 -0.26456392400E+02  0.22289416987E+03  0.16500000000E+03 0.  0.
<mgrwt>
<rscale>  0 0.50047813E+03</rscale>
<asrwt>0</asrwt>
<pdfrwt beam="1">  1        1 0.24287233E-01 0.50047813E+03</pdfrwt>
<pdfrwt beam="2">  1       -1 0.52618215E-01 0.50047813E+03</pdfrwt>
<totfact> 0.74326809E+02</totfact>
</mgrwt>
</event>
<event>
 4    1  0.2559694E-005  0.4768394E+03  0.7818608E-02  0.1020007E+00
          1   -1    0    0  501    0  0.00000000000E+00  0.00000000000E+00  0.17661797492E+03  0.17661797499E+03  0.50400000000E-02 0.  1.
         -1   -1    0    0    0  501 -0.00000000000E+00 -0.00000000000E+00 -0.32184687981E+03  0.32184687985E+03  0.50400000000E-02 0. -1.
    5000001    1    1    2    0    0  0.81839291526E+02 -0.10279421415E+03  0.43577811243E+02  0.21537953880E+03  0.16500000000E+03 0.  0.
   -5000001    1    1    2    0    0 -0.81839291526E+02  0.10279421415E+03 -0.18880671613E+03  0.28308531604E+03  0.16500000000E+03 0.  0.
<mgrwt>
<rscale>  0 0.47683936E+03</rscale>
<asrwt>0</asrwt>
<pdfrwt beam="1">  1        1 0.25231139E-01 0.47683936E+03</pdfrwt>
<pdfrwt beam="2">  1       -1 0.45978126E-01 0.47683936E+03</pdfrwt>
<totfact> 0.91064087E+02</totfact>
</mgrwt>
</event>
<event>
 4    1  0.2559694E-005  0.5920174E+03  0.7818608E-02  0.9922107E-01
          1   -1    0    0  501    0  0.00000000000E+00  0.00000000000E+00  0.10391836010E+03  0.10391836022E+03  0.50400000000E-02 0.  1.
         -1   -1    0    0    0  501 -0.00000000000E+00 -0.00000000000E+00 -0.84317296667E+03  0.84317296669E+03  0.50400000000E-02 0. -1.
    5000001    1    1    2    0    0  0.13555919564E+03  0.78108889658E+02 -0.67281993574E+03  0.71020346387E+03  0.16500000000E+03 0.  0.
   -5000001    1    1    2    0    0 -0.13555919564E+03 -0.78108889658E+02 -0.66434670831E+02  0.23688786304E+03  0.16500000000E+03 0.  0.
<mgrwt>
<rscale>  0 0.59201741E+03</rscale>
<asrwt>0</asrwt>
<pdfrwt beam="1">  1        1 0.14845480E-01 0.59201741E+03</pdfrwt>
<pdfrwt beam="2">  1       -1 0.12045328E+00 0.59201741E+03</pdfrwt>
<totfact> 0.24440906E+02</totfact>
</mgrwt>
</event>
<event>
 4    1  0.2559694E-005  0.4370740E+03  0.7818608E-02  0.1031648E+00
         -1   -1    0    0    0  501 -0.00000000000E+00  0.00000000000E+00  0.48262569260E+02  0.48262569524E+02  0.50400000000E-02 0. -1.
          1   -1    0    0  501    0  0.00000000000E+00 -0.00000000000E+00 -0.98955425154E+03  0.98955425155E+03  0.50400000000E-02 0.  1.
    5000001    1    1    2    0    0  0.82094340745E+02 -0.11155742215E+03 -0.38343826840E+03  0.43981182896E+03  0.16500000000E+03 0.  0.
   -5000001    1    1    2    0    0 -0.82094340745E+02  0.11155742215E+03 -0.55785341387E+03  0.59800499211E+03  0.16500000000E+03 0.  0.
<mgrwt>
<rscale>  0 0.43707405E+03</rscale>
<asrwt>0</asrwt>
<pdfrwt beam="1">  1        1 0.14136488E+00 0.43707405E+03</pdfrwt>
<pdfrwt beam="2">  1       -1 0.68946534E-02 0.43707405E+03</pdfrwt>
<totfact> 0.19993057E+03</totfact>
</mgrwt>
</event>
<event>
 4    1  0.2559694E-005  0.4127410E+03  0.7818608E-02  0.1039455E+00
         -1   -1    0    0    0  501 -0.00000000000E+00  0.00000000000E+00  0.13168465852E+03  0.13168465861E+03  0.50400000000E-02 0. -1.
          1   -1    0    0  501    0  0.00000000000E+00 -0.00000000000E+00 -0.32341487716E+03  0.32341487720E+03  0.50400000000E-02 0.  1.
    5000001    1    1    2    0    0 -0.31774922001E+02 -0.11978083084E+03 -0.93014314386E+02  0.22634874814E+03  0.16500000000E+03 0.  0.
   -5000001    1    1    2    0    0  0.31774922001E+02  0.11978083084E+03 -0.98715904259E+02  0.22875078767E+03  0.16500000000E+03 0.  0.
<mgrwt>
<rscale>  0 0.41274097E+03</rscale>
<asrwt>0</asrwt>
<pdfrwt beam="1">  1        1 0.46202125E-01 0.41274097E+03</pdfrwt>
<pdfrwt beam="2">  1       -1 0.18812094E-01 0.41274097E+03</pdfrwt>
<totfact> 0.19618618E+03</totfact>
</mgrwt>
</event>
<event>
 4    1  0.2559694E-005  0.4346551E+03  0.7818608E-02  0.1032399E+00
         -1   -1    0    0    0  501 -0.00000000000E+00  0.00000000000E+00  0.36661401212E+02  0.36661401558E+02  0.50400000000E-02 0. -1.
          1   -1    0    0  501    0  0.00000000000E+00 -0.00000000000E+00 -0.12883103818E+04  0.12883103818E+04  0.50400000000E-02 0.  1.
    5000001    1    1    2    0    0  0.92963994230E+02  0.63523553306E+02 -0.88678563851E+03  0.90900567365E+03  0.16500000000E+03 0.  0.
   -5000001    1    1    2    0    0 -0.92963994230E+02 -0.63523553306E+02 -0.36486334208E+03  0.41596610973E+03  0.16500000000E+03 0.  0.
<mgrwt>
<rscale>  0 0.43465510E+03</rscale>
<asrwt>0</asrwt>
<pdfrwt beam="1">  1        1 0.18404431E+00 0.43465510E+03</pdfrwt>
<pdfrwt beam="2">  1       -1 0.52373438E-02 0.43465510E+03</pdfrwt>
<totfact> 0.18888420E+03</totfact>
</mgrwt>
</event>
<event>
 4    1  0.2559694E-005  0.4792724E+03  0.7818608E-02  0.1019335E+00
          1   -1    0    0  501    0  0.00000000000E+00  0.00000000000E+00  0.60126649002E+02  0.60126649213E+02  0.50400000000E-02 0. -1.
         -1   -1    0    0    0  501 -0.00000000000E+00 -0.00000000000E+00 -0.95507587738E+03  0.95507587739E+03  0.50400000000E-02 0.  1.
    5000001    1    1    2    0    0 -0.10302589760E+03  0.13632047225E+03 -0.38039350312E+03  0.44846607893E+03  0.16500000000E+03 0.  0.
   -5000001    1    1    2    0    0  0.10302589760E+03 -0.13632047225E+03 -0.51455572525E+03  0.56673644767E+03  0.16500000000E+03 0.  0.
<mgrwt>
<rscale>  0 0.47927242E+03</rscale>
<asrwt>0</asrwt>
<pdfrwt beam="1">  1        1 0.85895218E-02 0.47927242E+03</pdfrwt>
<pdfrwt beam="2">  1       -1 0.13643940E+00 0.47927242E+03</pdfrwt>
<totfact> 0.37919163E+02</totfact>
</mgrwt>
</event>
<event>
 4    1  0.2559694E-005  0.5295796E+03  0.7818608E-02  0.1006334E+00
         -1   -1    0    0    0  501 -0.00000000000E+00  0.00000000000E+00  0.12055226541E+03  0.12055226551E+03  0.50400000000E-02 0. -1.
          1   -1    0    0  501    0  0.00000000000E+00 -0.00000000000E+00 -0.58160367337E+03  0.58160367339E+03  0.50400000000E-02 0.  1.
    5000001    1    1    2    0    0 -0.20238743414E+03  0.43555290840E+02 -0.22315503855E+03  0.34623822448E+03  0.16500000000E+03 0.  0.
   -5000001    1    1    2    0    0  0.20238743414E+03 -0.43555290840E+02 -0.23789636942E+03  0.35591771443E+03  0.16500000000E+03 0.  0.
<mgrwt>
<rscale>  0 0.52957961E+03</rscale>
<asrwt>0</asrwt>
<pdfrwt beam="1">  1        1 0.83086238E-01 0.52957961E+03</pdfrwt>
<pdfrwt beam="2">  1       -1 0.17221753E-01 0.52957961E+03</pdfrwt>
<totfact> 0.10476555E+03</totfact>
</mgrwt>
</event>
<event>
 4    1  0.2559694E-005  0.4860661E+03  0.7818608E-02  0.1017481E+00
         -1   -1    0    0    0  501 -0.00000000000E+00  0.00000000000E+00  0.12413441772E+04  0.12413441773E+04  0.50400000000E-02 0.  1.
          1   -1    0    0  501    0  0.00000000000E+00 -0.00000000000E+00 -0.47581527222E+02  0.47581527489E+02  0.50400000000E-02 0. -1.
    5000001    1    1    2    0    0 -0.13691492339E+03 -0.75191780208E+02  0.82561766556E+03  0.85631129254E+03  0.16500000000E+03 0.  0.
   -5000001    1    1    2    0    0  0.13691492339E+03  0.75191780208E+02  0.36814498447E+03  0.43261441221E+03  0.16500000000E+03 0.  0.
<mgrwt>
<rscale>  0 0.48606605E+03</rscale>
<asrwt>0</asrwt>
<pdfrwt beam="1">  1        1 0.67973609E-02 0.48606605E+03</pdfrwt>
<pdfrwt beam="2">  1       -1 0.17733489E+00 0.48606605E+03</pdfrwt>
<totfact> 0.25736590E+02</totfact>
</mgrwt>
</event>
<event>
 4    1  0.2559694E-005  0.4880556E+03  0.7818608E-02  0.1016944E+00
          1   -1    0    0  501    0  0.00000000000E+00  0.00000000000E+00  0.15083286523E+04  0.15083286523E+04  0.50400000000E-02 0.  1.
         -1   -1    0    0    0  501 -0.00000000000E+00 -0.00000000000E+00 -0.39480498214E+02  0.39480498536E+02  0.50400000000E-02 0. -1.
    5000001    1    1    2    0    0 -0.14786406117E+03 -0.67710955632E+02  0.97752660670E+03  0.10046053060E+04  0.16500000000E+03 0.  0.
   -5000001    1    1    2    0    0  0.14786406117E+03  0.67710955632E+02  0.49132154741E+03  0.54320384484E+03  0.16500000000E+03 0.  0.
<mgrwt>
<rscale>  0 0.48805560E+03</rscale>
<asrwt>0</asrwt>
<pdfrwt beam="1">  1        1 0.21547551E+00 0.48805560E+03</pdfrwt>
<pdfrwt beam="2">  1       -1 0.56400715E-02 0.48805560E+03</pdfrwt>
<totfact> 0.12133157E+03</totfact>
</mgrwt>
</event>
<event>
 4    1  0.2559694E-005  0.4321188E+03  0.7818608E-02  0.1033193E+00
         -1   -1    0    0    0  501 -0.00000000000E+00  0.00000000000E+00  0.60915598629E+02  0.60915598838E+02  0.50400000000E-02 0. -1.
          1   -1    0    0  501    0  0.00000000000E+00 -0.00000000000E+00 -0.76633359642E+03  0.76633359643E+03  0.50400000000E-02 0.  1.
    5000001    1    1    2    0    0  0.98443097183E+02  0.93375218854E+02 -0.29077298679E+03  0.36081006739E+03  0.16500000000E+03 0.  0.
   -5000001    1    1    2    0    0 -0.98443097183E+02 -0.93375218854E+02 -0.41464501099E+03  0.46643912788E+03  0.16500000000E+03 0.  0.
<mgrwt>
<rscale>  0 0.43211883E+03</rscale>
<asrwt>0</asrwt>
<pdfrwt beam="1">  1        1 0.10947622E+00 0.43211883E+03</pdfrwt>
<pdfrwt beam="2">  1       -1 0.87022288E-02 0.43211883E+03</pdfrwt>
<totfact> 0.20883582E+03</totfact>
</mgrwt>
</event>
<event>
 4    1  0.2559694E-005  0.5153566E+03  0.7818608E-02  0.1009847E+00
          1   -1    0    0  501    0  0.00000000000E+00  0.00000000000E+00  0.33300743640E+03  0.33300743643E+03  0.50400000000E-02 0. -1.
         -1   -1    0    0    0  501 -0.00000000000E+00 -0.00000000000E+00 -0.19938922702E+03  0.19938922709E+03  0.50400000000E-02 0.  1.
    5000001    1    1    2    0    0 -0.69698163817E+02 -0.19838689366E+02  0.25707731997E+03  0.31395088163E+03  0.16500000000E+03 0.  0.
   -5000001    1    1    2    0    0  0.69698163817E+02  0.19838689366E+02 -0.12345911060E+03  0.21844578189E+03  0.16500000000E+03 0.  0.
<mgrwt>
<rscale>  0 0.51535656E+03</rscale>
<asrwt>0</asrwt>
<pdfrwt beam="1">  1        1 0.47572491E-01 0.51535656E+03</pdfrwt>
<pdfrwt beam="2">  1       -1 0.28484175E-01 0.51535656E+03</pdfrwt>
<totfact> 0.94432375E+02</totfact>
</mgrwt>
</event>
<event>
 4    1  0.2559694E-005  0.5225454E+03  0.7818608E-02  0.1008056E+00
         -1   -1    0    0    0  501 -0.00000000000E+00  0.00000000000E+00  0.10242391624E+03  0.10242391636E+03  0.50400000000E-02 0. -1.
          1   -1    0    0  501    0  0.00000000000E+00 -0.00000000000E+00 -0.66647926948E+03  0.66647926950E+03  0.50400000000E-02 0.  1.
    5000001    1    1    2    0    0  0.19804691677E+03 -0.34618841137E+02 -0.31858891938E+03  0.41127234888E+03  0.16500000000E+03 0.  0.
   -5000001    1    1    2    0    0 -0.19804691677E+03  0.34618841137E+02 -0.24546643387E+03  0.35763083698E+03  0.16500000000E+03 0.  0.
<mgrwt>
<rscale>  0 0.52254537E+03</rscale>
<asrwt>0</asrwt>
<pdfrwt beam="1">  1        1 0.95211322E-01 0.52254537E+03</pdfrwt>
<pdfrwt beam="2">  1       -1 0.14631988E-01 0.52254537E+03</pdfrwt>
<totfact> 0.11263692E+03</totfact>
</mgrwt>
</event>
<event>
 4    1  0.2559694E-005  0.5664828E+03  0.7818608E-02  0.9977492E-01
         -1   -1    0    0    0  501 -0.00000000000E+00  0.00000000000E+00  0.52542264723E+02  0.52542264965E+02  0.50400000000E-02 0. -1.
          1   -1    0    0  501    0  0.00000000000E+00 -0.00000000000E+00 -0.15268789460E+04  0.15268789460E+04  0.50400000000E-02 0.  1.
    5000001    1    1    2    0    0  0.17992943751E+03 -0.87220791214E+02 -0.41904644218E+03  0.49275449222E+03  0.16500000000E+03 0.  0.
   -5000001    1    1    2    0    0 -0.17992943751E+03  0.87220791214E+02 -0.10552902391E+04  0.10866667187E+04  0.16500000000E+03 0.  0.
<mgrwt>
<rscale>  0 0.56648276E+03</rscale>
<asrwt>0</asrwt>
<pdfrwt beam="1">  1        1 0.21812553E+00 0.56648276E+03</pdfrwt>
<pdfrwt beam="2">  1       -1 0.75060388E-02 0.56648276E+03</pdfrwt>
<totfact> 0.75746240E+02</totfact>
</mgrwt>
</event>
<event>
 4    1  0.2559694E-005  0.4070324E+03  0.7818608E-02  0.1041371E+00
         -1   -1    0    0    0  501 -0.00000000000E+00  0.00000000000E+00  0.21676760085E+03  0.21676760091E+03  0.50400000000E-02 0.  1.
          1   -1    0    0  501    0  0.00000000000E+00 -0.00000000000E+00 -0.19107488699E+03  0.19107488705E+03  0.50400000000E-02 0. -1.
    5000001    1    1    2    0    0  0.74457878010E+02 -0.85430926048E+02 -0.23988555134E+02  0.20160076761E+03  0.16500000000E+03 0.  0.
   -5000001    1    1    2    0    0 -0.74457878010E+02  0.85430926048E+02  0.49681268995E+02  0.20624172035E+03  0.16500000000E+03 0.  0.
<mgrwt>
<rscale>  0 0.40703241E+03</rscale>
<asrwt>0</asrwt>
<pdfrwt beam="1">  1        1 0.27296412E-01 0.40703241E+03</pdfrwt>
<pdfrwt beam="2">  1       -1 0.30966800E-01 0.40703241E+03</pdfrwt>
<totfact> 0.16633918E+03</totfact>
</mgrwt>
</event>
<event>
 4    1  0.2559694E-005  0.5235094E+03  0.7818608E-02  0.1007818E+00
         -1   -1    0    0    0  501 -0.00000000000E+00  0.00000000000E+00  0.19998469026E+03  0.19998469032E+03  0.50400000000E-02 0.  1.
          1   -1    0    0  501    0  0.00000000000E+00 -0.00000000000E+00 -0.34260385851E+03  0.34260385855E+03  0.50400000000E-02 0. -1.
    5000001    1    1    2    0    0  0.10822404628E+03  0.11164141654E+03  0.64279710106E+02  0.23565468637E+03  0.16500000000E+03 0.  0.
   -5000001    1    1    2    0    0 -0.10822404628E+03 -0.11164141654E+03 -0.20689887836E+03  0.30693386250E+03  0.16500000000E+03 0.  0.
<mgrwt>
<rscale>  0 0.52350941E+03</rscale>
<asrwt>0</asrwt>
<pdfrwt beam="1">  1        1 0.48943408E-01 0.52350941E+03</pdfrwt>
<pdfrwt beam="2">  1       -1 0.28569242E-01 0.52350941E+03</pdfrwt>
<totfact> 0.90569596E+02</totfact>
</mgrwt>
</event>
<event>
 4    1  0.2559694E-005  0.9599738E+03  0.7818608E-02  0.9353568E-01
         -1   -1    0    0    0  501 -0.00000000000E+00  0.00000000000E+00  0.78642326825E+02  0.78642326987E+02  0.50400000000E-02 0. -1.
          1   -1    0    0  501    0  0.00000000000E+00 -0.00000000000E+00 -0.29295602021E+04  0.29295602021E+04  0.50400000000E-02 0.  1.
    5000001    1    1    2    0    0  0.28710133411E+03  0.67919475130E+02 -0.24932967931E+04  0.25161069392E+04  0.16500000000E+03 0.  0.
   -5000001    1    1    2    0    0 -0.28710133411E+03 -0.67919475130E+02 -0.35762108217E+03  0.49209558986E+03  0.16500000000E+03 0.  0.
<mgrwt>
<rscale>  0 0.95997381E+03</rscale>
<asrwt>0</asrwt>
<pdfrwt beam="1">  1        1 0.41850853E+00 0.95997381E+03</pdfrwt>
<pdfrwt beam="2">  1       -1 0.11234620E-01 0.95997381E+03</pdfrwt>
<totfact> 0.51043089E+01</totfact>
</mgrwt>
</event>
<event>
 4    1  0.2559694E-005  0.6347763E+03  0.7818608E-02  0.9835772E-01
         -1   -1    0    0    0  501 -0.00000000000E+00  0.00000000000E+00  0.12478205446E+03  0.12478205456E+03  0.50400000000E-02 0. -1.
          1   -1    0    0  501    0  0.00000000000E+00 -0.00000000000E+00 -0.80728951401E+03  0.80728951403E+03  0.50400000000E-02 0.  1.
    5000001    1    1    2    0    0  0.59224079979E+02 -0.23258083229E+03 -0.52645703865E+03  0.60165052044E+03  0.16500000000E+03 0.  0.
   -5000001    1    1    2    0    0 -0.59224079979E+02  0.23258083229E+03 -0.15605042090E+03  0.33042104815E+03  0.16500000000E+03 0.  0.
<mgrwt>
<rscale>  0 0.63477632E+03</rscale>
<asrwt>0</asrwt>
<pdfrwt beam="1">  1        1 0.11532707E+00 0.63477632E+03</pdfrwt>
<pdfrwt beam="2">  1       -1 0.17826008E-01 0.63477632E+03</pdfrwt>
<totfact> 0.61264265E+02</totfact>
</mgrwt>
</event>
<event>
 4    1  0.2559694E-005  0.4082905E+03  0.7818608E-02  0.1040946E+00
          1   -1    0    0  501    0  0.00000000000E+00  0.00000000000E+00  0.35575927139E+03  0.35575927142E+03  0.50400000000E-02 0.  1.
         -1   -1    0    0    0  501 -0.00000000000E+00 -0.00000000000E+00 -0.11714463735E+03  0.11714463746E+03  0.50400000000E-02 0. -1.
    5000001    1    1    2    0    0 -0.11685386729E+03  0.27491736572E+02  0.12660238156E+03  0.24013284843E+03  0.16500000000E+03 0.  0.
   -5000001    1    1    2    0    0  0.11685386729E+03 -0.27491736572E+02  0.11201225247E+03  0.23277106045E+03  0.16500000000E+03 0.  0.
<mgrwt>
<rscale>  0 0.40829054E+03</rscale>
<asrwt>0</asrwt>
<pdfrwt beam="1">  1        1 0.50822752E-01 0.40829054E+03</pdfrwt>
<pdfrwt beam="2">  1       -1 0.16734949E-01 0.40829054E+03</pdfrwt>
<totfact> 0.21005858E+03</totfact>
</mgrwt>
</event>
<event>
 4    1  0.2559694E-005  0.4909674E+03  0.7818608E-02  0.1016164E+00
          1   -1    0    0  501    0  0.00000000000E+00  0.00000000000E+00  0.59052732115E+02  0.59052732330E+02  0.50400000000E-02 0.  1.
         -1   -1    0    0    0  501 -0.00000000000E+00 -0.00000000000E+00 -0.10204820558E+04  0.10204820558E+04  0.50400000000E-02 0. -1.
    5000001    1    1    2    0    0 -0.70452002443E+02  0.14101657396E+03 -0.28175025411E+03  0.36257049587E+03  0.16500000000E+03 0.  0.
   -5000001    1    1    2    0    0  0.70452002443E+02 -0.14101657396E+03 -0.67967906954E+03  0.71696429224E+03  0.16500000000E+03 0.  0.
<mgrwt>
<rscale>  0 0.49096743E+03</rscale>
<asrwt>0</asrwt>
<pdfrwt beam="1">  1        1 0.84361052E-02 0.49096743E+03</pdfrwt>
<pdfrwt beam="2">  1       -1 0.14578314E+00 0.49096743E+03</pdfrwt>
<totfact> 0.32736157E+02</totfact>
</mgrwt>
</event>
<event>
 4    1  0.2559694E-005  0.7755740E+03  0.7818608E-02  0.9596062E-01
          1   -1    0    0  501    0  0.00000000000E+00  0.00000000000E+00  0.14695273737E+03  0.14695273746E+03  0.50400000000E-02 0. -1.
         -1   -1    0    0    0  501 -0.00000000000E+00 -0.00000000000E+00 -0.10233137546E+04  0.10233137546E+04  0.50400000000E-02 0.  1.
    5000001    1    1    2    0    0 -0.75488627271E+02 -0.19941778020E+03 -0.85875009773E+03  0.90007928221E+03  0.16500000000E+03 0.  0.
   -5000001    1    1    2    0    0  0.75488627271E+02  0.19941778020E+03 -0.17610919528E+02  0.27018720990E+03  0.16500000000E+03 0.  0.
<mgrwt>
<rscale>  0 0.77557400E+03</rscale>
<asrwt>0</asrwt>
<pdfrwt beam="1">  1        1 0.20993249E-01 0.77557400E+03</pdfrwt>
<pdfrwt beam="2">  1       -1 0.14618768E+00 0.77557400E+03</pdfrwt>
<totfact> 0.93343395E+01</totfact>
</mgrwt>
</event>
<event>
 4    1  0.2559694E-005  0.8193808E+03  0.7818608E-02  0.9532380E-01
         -1   -1    0    0    0  501 -0.00000000000E+00  0.00000000000E+00  0.45113629460E+03  0.45113629463E+03  0.50400000000E-02 0. -1.
          1   -1    0    0  501    0  0.00000000000E+00 -0.00000000000E+00 -0.37205212359E+03  0.37205212363E+03  0.50400000000E-02 0.  1.
    5000001    1    1    2    0    0 -0.24299127489E+03  0.12409539717E+03  0.29798600800E+03  0.43642306108E+03  0.16500000000E+03 0.  0.
   -5000001    1    1    2    0    0  0.24299127489E+03 -0.12409539717E+03 -0.21890183699E+03  0.38676535718E+03  0.16500000000E+03 0.  0.
<mgrwt>
<rscale>  0 0.81938078E+03</rscale>
<asrwt>0</asrwt>
<pdfrwt beam="1">  1        1 0.53150303E-01 0.81938078E+03</pdfrwt>
<pdfrwt beam="2">  1       -1 0.64448042E-01 0.81938078E+03</pdfrwt>
<totfact> 0.17977035E+02</totfact>
</mgrwt>
</event>
<event>
 4    1  0.2559694E-005  0.6293251E+03  0.7818608E-02  0.9846367E-01
         -1   -1    0    0    0  501 -0.00000000000E+00  0.00000000000E+00  0.30151097057E+03  0.30151097061E+03  0.50400000000E-02 0. -1.
          1   -1    0    0  501    0  0.00000000000E+00 -0.00000000000E+00 -0.32838779817E+03  0.32838779820E+03  0.50400000000E-02 0.  1.
    5000001    1    1    2    0    0 -0.13000256991E+03  0.22610183475E+03  0.47975612593E+02  0.31232894080E+03  0.16500000000E+03 0.  0.
   -5000001    1    1    2    0    0  0.13000256991E+03 -0.22610183475E+03 -0.74852440190E+02  0.31756982801E+03  0.16500000000E+03 0.  0.
<mgrwt>
<rscale>  0 0.62932511E+03</rscale>
<asrwt>0</asrwt>
<pdfrwt beam="1">  1        1 0.46912543E-01 0.62932511E+03</pdfrwt>
<pdfrwt beam="2">  1       -1 0.43072996E-01 0.62932511E+03</pdfrwt>
<totfact> 0.46088901E+02</totfact>
</mgrwt>
</event>
<event>
 4    1  0.2559694E-005  0.4275119E+03  0.7818608E-02  0.1034649E+00
          1   -1    0    0  501    0  0.00000000000E+00  0.00000000000E+00  0.41260218083E+03  0.41260218086E+03  0.50400000000E-02 0.  1.
         -1   -1    0    0    0  501 -0.00000000000E+00 -0.00000000000E+00 -0.11074010044E+03  0.11074010055E+03  0.50400000000E-02 0. -1.
    5000001    1    1    2    0    0  0.39565347910E+02  0.51261283418E+02  0.29718324119E+03  0.34602892188E+03  0.16500000000E+03 0.  0.
   -5000001    1    1    2    0    0 -0.39565347910E+02 -0.51261283418E+02  0.46788391988E+01  0.17731335953E+03  0.16500000000E+03 0.  0.
<mgrwt>
<rscale>  0 0.42751190E+03</rscale>
<asrwt>0</asrwt>
<pdfrwt beam="1">  1        1 0.58943169E-01 0.42751190E+03</pdfrwt>
<pdfrwt beam="2">  1       -1 0.15820014E-01 0.42751190E+03</pdfrwt>
<totfact> 0.19010524E+03</totfact>
</mgrwt>
</event>
<event>
 4    1  0.2559694E-005  0.3633421E+03  0.7818608E-02  0.1057268E+00
         -1   -1    0    0    0  501 -0.00000000000E+00  0.00000000000E+00  0.79056123127E+03  0.79056123129E+03  0.50400000000E-02 0. -1.
          1   -1    0    0  501    0  0.00000000000E+00 -0.00000000000E+00 -0.41748018537E+02  0.41748018841E+02  0.50400000000E-02 0.  1.
    5000001    1    1    2    0    0 -0.19132081538E+02 -0.59392567753E+02  0.47388362741E+03  0.50565225796E+03  0.16500000000E+03 0.  0.
   -5000001    1    1    2    0    0  0.19132081538E+02  0.59392567753E+02  0.27492958532E+03  0.32665699217E+03  0.16500000000E+03 0.  0.
<mgrwt>
<rscale>  0 0.36334207E+03</rscale>
<asrwt>0</asrwt>
<pdfrwt beam="1">  1        1 0.59640027E-02 0.36334207E+03</pdfrwt>
<pdfrwt beam="2">  1       -1 0.11293732E+00 0.36334207E+03</pdfrwt>
<totfact> 0.99788714E+02</totfact>
</mgrwt>
</event>
<event>
 4    1  0.2559694E-005  0.4725886E+03  0.7818608E-02  0.1021192E+00
         -1   -1    0    0    0  501 -0.00000000000E+00  0.00000000000E+00  0.54807439824E+02  0.54807440056E+02  0.50400000000E-02 0. -1.
          1   -1    0    0  501    0  0.00000000000E+00 -0.00000000000E+00 -0.10187486610E+04  0.10187486610E+04  0.50400000000E-02 0.  1.
    5000001    1    1    2    0    0  0.12676036937E+03  0.11057568577E+03 -0.52227768443E+03  0.57296959185E+03  0.16500000000E+03 0.  0.
   -5000001    1    1    2    0    0 -0.12676036937E+03 -0.11057568577E+03 -0.44166353675E+03  0.50058650923E+03  0.16500000000E+03 0.  0.
<mgrwt>
<rscale>  0 0.47258864E+03</rscale>
<asrwt>0</asrwt>
<pdfrwt beam="1">  1        1 0.14553551E+00 0.47258864E+03</pdfrwt>
<pdfrwt beam="2">  1       -1 0.78296349E-02 0.47258864E+03</pdfrwt>
<totfact> 0.15637500E+03</totfact>
</mgrwt>
</event>
<event>
 4    1  0.2559694E-005  0.5154969E+03  0.7818608E-02  0.1009811E+00
          1   -1    0    0  501    0  0.00000000000E+00  0.00000000000E+00  0.49453842401E+03  0.49453842403E+03  0.50400000000E-02 0.  1.
         -1   -1    0    0    0  501 -0.00000000000E+00 -0.00000000000E+00 -0.13433591900E+03  0.13433591910E+03  0.50400000000E-02 0. -1.
    5000001    1    1    2    0    0 -0.83749446721E+01 -0.17422855011E+03  0.65767953832E+02  0.24895009766E+03  0.16500000000E+03 0.  0.
   -5000001    1    1    2    0    0  0.83749446721E+01  0.17422855011E+03  0.29443455117E+03  0.37992424547E+03  0.16500000000E+03 0.  0.
<mgrwt>
<rscale>  0 0.51549694E+03</rscale>
<asrwt>0</asrwt>
<pdfrwt beam="1">  1        1 0.70648347E-01 0.51549694E+03</pdfrwt>
<pdfrwt beam="2">  1       -1 0.19190845E-01 0.51549694E+03</pdfrwt>
<totfact> 0.10938161E+03</totfact>
</mgrwt>
</event>
<event>
 4    1  0.2559694E-005  0.9564644E+03  0.7818608E-02  0.9357626E-01
          1   -1    0    0  501    0  0.00000000000E+00  0.00000000000E+00  0.16571920025E+04  0.16571920026E+04  0.50400000000E-02 0.  1.
         -1   -1    0    0    0  501 -0.00000000000E+00 -0.00000000000E+00 -0.13800818276E+03  0.13800818285E+03  0.50400000000E-02 0. -1.
    5000001    1    1    2    0    0 -0.27409863034E+02  0.29109932554E+03  0.13988203479E+04  0.14385456140E+04  0.16500000000E+03 0.  0.
   -5000001    1    1    2    0    0  0.27409863034E+02 -0.29109932554E+03  0.12036347188E+03  0.35665457137E+03  0.16500000000E+03 0.  0.
<mgrwt>
<rscale>  0 0.95646444E+03</rscale>
<asrwt>0</asrwt>
<pdfrwt beam="1">  1        1 0.23674170E+00 0.95646444E+03</pdfrwt>
<pdfrwt beam="2">  1       -1 0.19715456E-01 0.95646444E+03</pdfrwt>
<totfact> 0.12949491E+02</totfact>
</mgrwt>
</event>
<event>
 4    1  0.2559694E-005  0.5277558E+03  0.7818608E-02  0.1006778E+00
         -1   -1    0    0    0  501 -0.00000000000E+00  0.00000000000E+00  0.71276803587E+03  0.71276803589E+03  0.50400000000E-02 0. -1.
          1   -1    0    0  501    0  0.00000000000E+00 -0.00000000000E+00 -0.97691720444E+02  0.97691720574E+02  0.50400000000E-02 0.  1.
    5000001    1    1    2    0    0 -0.13785013126E+03 -0.14841566803E+03  0.25055941615E+03  0.36198741722E+03  0.16500000000E+03 0.  0.
   -5000001    1    1    2    0    0  0.13785013126E+03  0.14841566803E+03  0.36451689927E+03  0.44847233924E+03  0.16500000000E+03 0.  0.
<mgrwt>
<rscale>  0 0.52775576E+03</rscale>
<asrwt>0</asrwt>
<pdfrwt beam="1">  1        1 0.13955960E-01 0.52775576E+03</pdfrwt>
<pdfrwt beam="2">  1       -1 0.10182401E+00 0.52775576E+03</pdfrwt>
<totfact> 0.39504197E+02</totfact>
</mgrwt>
</event>
<event>
 4    1  0.2559694E-005  0.3592444E+03  0.7818608E-02  0.1058883E+00
          1   -1    0    0  501    0  0.00000000000E+00  0.00000000000E+00  0.45775256698E+03  0.45775256701E+03  0.50400000000E-02 0. -1.
         -1   -1    0    0    0  501 -0.00000000000E+00 -0.00000000000E+00 -0.70483798608E+02  0.70483798788E+02  0.50400000000E-02 0.  1.
    5000001    1    1    2    0    0  0.64986040299E+02 -0.28353772226E+02  0.19873184304E+03  0.26785531033E+03  0.16500000000E+03 0.  0.
   -5000001    1    1    2    0    0 -0.64986040299E+02  0.28353772226E+02  0.18853692534E+03  0.26038105547E+03  0.16500000000E+03 0.  0.
<mgrwt>
<rscale>  0 0.35924443E+03</rscale>
<asrwt>0</asrwt>
<pdfrwt beam="1">  1        1 0.65393224E-01 0.35924443E+03</pdfrwt>
<pdfrwt beam="2">  1       -1 0.10069114E-01 0.35924443E+03</pdfrwt>
<totfact> 0.33888788E+03</totfact>
</mgrwt>
</event>
<event>
 4    1  0.2559694E-005  0.4355624E+03  0.7818608E-02  0.1032117E+00
          1   -1    0    0  501    0  0.00000000000E+00  0.00000000000E+00  0.89703284136E+03  0.89703284137E+03  0.50400000000E-02 0.  1.
         -1   -1    0    0    0  501 -0.00000000000E+00 -0.00000000000E+00 -0.52872815024E+02  0.52872815264E+02  0.50400000000E-02 0. -1.
    5000001    1    1    2    0    0  0.31327135613E+02  0.80977877185E+02  0.17664866164E+03  0.25684344586E+03  0.16500000000E+03 0.  0.
   -5000001    1    1    2    0    0 -0.31327135613E+02 -0.80977877185E+02  0.66751136469E+03  0.69306221078E+03  0.16500000000E+03 0.  0.
<mgrwt>
<rscale>  0 0.43556240E+03</rscale>
<asrwt>0</asrwt>
<pdfrwt beam="1">  1        1 0.12814754E+00 0.43556240E+03</pdfrwt>
<pdfrwt beam="2">  1       -1 0.75532600E-02 0.43556240E+03</pdfrwt>
<totfact> 0.20395157E+03</totfact>
</mgrwt>
</event>
<event>
 4    1  0.2559694E-005  0.6821848E+03  0.7818608E-02  0.9748193E-01
          1   -1    0    0  501    0  0.00000000000E+00  0.00000000000E+00  0.14854884109E+03  0.14854884118E+03  0.50400000000E-02 0.  1.
         -1   -1    0    0    0  501 -0.00000000000E+00 -0.00000000000E+00 -0.78320381852E+03  0.78320381854E+03  0.50400000000E-02 0. -1.
    5000001    1    1    2    0    0  0.16371303006E+03 -0.24093191347E+03 -0.22808834219E+03  0.40509188461E+03  0.16500000000E+03 0.  0.
   -5000001    1    1    2    0    0 -0.16371303006E+03  0.24093191347E+03 -0.40656663524E+03  0.52666077510E+03  0.16500000000E+03 0.  0.
<mgrwt>
<rscale>  0 0.68218478E+03</rscale>
<asrwt>0</asrwt>
<pdfrwt beam="1">  1        1 0.21221263E-01 0.68218478E+03</pdfrwt>
<pdfrwt beam="2">  1       -1 0.11188626E+00 0.68218478E+03</pdfrwt>
<totfact> 0.18055956E+02</totfact>
</mgrwt>
</event>
<event>
 4    1  0.2559694E-005  0.3929044E+03  0.7818608E-02  0.1046265E+00
         -1   -1    0    0    0  501 -0.00000000000E+00  0.00000000000E+00  0.83784449696E+02  0.83784449848E+02  0.50400000000E-02 0. -1.
          1   -1    0    0  501    0  0.00000000000E+00 -0.00000000000E+00 -0.46062801030E+03  0.46062801033E+03  0.50400000000E-02 0.  1.
    5000001    1    1    2    0    0 -0.96438088892E+02 -0.19237072267E+02 -0.24551993878E+03  0.31172970709E+03  0.16500000000E+03 0.  0.
   -5000001    1    1    2    0    0  0.96438088892E+02  0.19237072267E+02 -0.13132362182E+03  0.23268275309E+03  0.16500000000E+03 0.  0.
<mgrwt>
<rscale>  0 0.39290439E+03</rscale>
<asrwt>0</asrwt>
<pdfrwt beam="1">  1        1 0.65804000E-01 0.39290439E+03</pdfrwt>
<pdfrwt beam="2">  1       -1 0.11969207E-01 0.39290439E+03</pdfrwt>
<totfact> 0.25670688E+03</totfact>
</mgrwt>
</event>
<event>
 4    1  0.2559694E-005  0.9459226E+03  0.7818608E-02  0.9369929E-01
          1   -1    0    0  501    0  0.00000000000E+00  0.00000000000E+00  0.13286690337E+04  0.13286690337E+04  0.50400000000E-02 0. -1.
         -1   -1    0    0    0  501 -0.00000000000E+00 -0.00000000000E+00 -0.16835823830E+03  0.16835823838E+03  0.50400000000E-02 0.  1.
    5000001    1    1    2    0    0 -0.45416439657E+02  0.33964091741E+03  0.10251161313E+04  0.10933922848E+04  0.16500000000E+03 0.  0.
   -5000001    1    1    2    0    0  0.45416439657E+02 -0.33964091741E+03  0.13519466409E+03  0.40363498730E+03  0.16500000000E+03 0.  0.
<mgrwt>
<rscale>  0 0.94592257E+03</rscale>
<asrwt>0</asrwt>
<pdfrwt beam="1">  1        1 0.18980985E+00 0.94592257E+03</pdfrwt>
<pdfrwt beam="2">  1       -1 0.24051178E-01 0.94592257E+03</pdfrwt>
<totfact> 0.15166777E+02</totfact>
</mgrwt>
</event>
<event>
 4    1  0.2559694E-005  0.5673577E+03  0.7818608E-02  0.9975543E-01
          1   -1    0    0  501    0  0.00000000000E+00  0.00000000000E+00  0.25960919409E+04  0.25960919409E+04  0.50400000000E-02 0. -1.
         -1   -1    0    0    0  501 -0.00000000000E+00 -0.00000000000E+00 -0.30998010812E+02  0.30998011222E+02  0.50400000000E-02 0.  1.
    5000001    1    1    2    0    0 -0.45383343258E+02  0.13406455705E+03  0.43864903545E+03  0.48956197728E+03  0.16500000000E+03 0.  0.
   -5000001    1    1    2    0    0  0.45383343258E+02 -0.13406455705E+03  0.21264448947E+04  0.21375279749E+04  0.16500000000E+03 0.  0.
<mgrwt>
<rscale>  0 0.56735769E+03</rscale>
<asrwt>0</asrwt>
<pdfrwt beam="1">  1        1 0.37087030E+00 0.56735769E+03</pdfrwt>
<pdfrwt beam="2">  1       -1 0.44282870E-02 0.56735769E+03</pdfrwt>
<totfact> 0.36918702E+02</totfact>
</mgrwt>
</event>
<event>
 4    1  0.2559694E-005  0.7332745E+03  0.7818608E-02  0.9661962E-01
         -1   -1    0    0    0  501 -0.00000000000E+00  0.00000000000E+00  0.21534352321E+03  0.21534352327E+03  0.50400000000E-02 0.  1.
          1   -1    0    0  501    0  0.00000000000E+00 -0.00000000000E+00 -0.62422529777E+03  0.62422529779E+03  0.50400000000E-02 0. -1.
    5000001    1    1    2    0    0  0.84397258676E+02 -0.31569741293E+03 -0.18125382164E+03  0.40849198481E+03  0.16500000000E+03 0.  0.
   -5000001    1    1    2    0    0 -0.84397258676E+02  0.31569741293E+03 -0.22762795292E+03  0.43107683625E+03  0.16500000000E+03 0.  0.
<mgrwt>
<rscale>  0 0.73327451E+03</rscale>
<asrwt>0</asrwt>
<pdfrwt beam="1">  1        1 0.89175042E-01 0.73327451E+03</pdfrwt>
<pdfrwt beam="2">  1       -1 0.30763361E-01 0.73327451E+03</pdfrwt>
<totfact> 0.35472686E+02</totfact>
</mgrwt>
</event>
<event>
 4    1  0.2559694E-005  0.5172267E+03  0.7818608E-02  0.1009378E+00
         -1   -1    0    0    0  501 -0.00000000000E+00  0.00000000000E+00  0.12807692007E+03  0.12807692017E+03  0.50400000000E-02 0. -1.
          1   -1    0    0  501    0  0.00000000000E+00 -0.00000000000E+00 -0.52219297104E+03  0.52219297107E+03  0.50400000000E-02 0.  1.
    5000001    1    1    2    0    0  0.17886409563E+03 -0.84845384120E+02 -0.16995431632E+03  0.30870790976E+03  0.16500000000E+03 0.  0.
   -5000001    1    1    2    0    0 -0.17886409563E+03  0.84845384120E+02 -0.22416173465E+03  0.34156198148E+03  0.16500000000E+03 0.  0.
<mgrwt>
<rscale>  0 0.51722671E+03</rscale>
<asrwt>0</asrwt>
<pdfrwt beam="1">  1        1 0.74598995E-01 0.51722671E+03</pdfrwt>
<pdfrwt beam="2">  1       -1 0.18296703E-01 0.51722671E+03</pdfrwt>
<totfact> 0.10995703E+03</totfact>
</mgrwt>
</event>
<event>
 4    1  0.2559694E-005  0.5561705E+03  0.7818608E-02  0.1000076E+00
         -1   -1    0    0    0  501 -0.00000000000E+00  0.00000000000E+00  0.12889071217E+04  0.12889071217E+04  0.50400000000E-02 0.  1.
          1   -1    0    0  501    0  0.00000000000E+00 -0.00000000000E+00 -0.59997646170E+02  0.59997646382E+02  0.50400000000E-02 0. -1.
    5000001    1    1    2    0    0 -0.18577874005E+03 -0.99658191712E+02  0.43197441246E+03  0.50820506535E+03  0.16500000000E+03 0.  0.
   -5000001    1    1    2    0    0  0.18577874005E+03  0.99658191712E+02  0.79693506305E+03  0.84069970272E+03  0.16500000000E+03 0.  0.
<mgrwt>
<rscale>  0 0.55617045E+03</rscale>
<asrwt>0</asrwt>
<pdfrwt beam="1">  1        1 0.85710918E-02 0.55617045E+03</pdfrwt>
<pdfrwt beam="2">  1       -1 0.18412960E+00 0.55617045E+03</pdfrwt>
<totfact> 0.16640397E+02</totfact>
</mgrwt>
</event>
<event>
 4    1  0.2559694E-005  0.5132140E+03  0.7818608E-02  0.1010386E+00
         -1   -1    0    0    0  501 -0.00000000000E+00  0.00000000000E+00  0.20889507288E+03  0.20889507294E+03  0.50400000000E-02 0. -1.
          1   -1    0    0  501    0  0.00000000000E+00 -0.00000000000E+00 -0.31521639817E+03  0.31521639821E+03  0.50400000000E-02 0.  1.
    5000001    1    1    2    0    0 -0.18392841003E+03  0.34877409300E+02  0.79092776935E+01  0.24966707906E+03  0.16500000000E+03 0.  0.
   -5000001    1    1    2    0    0  0.18392841003E+03 -0.34877409300E+02 -0.11423060298E+03  0.27444439210E+03  0.16500000000E+03 0.  0.
<mgrwt>
<rscale>  0 0.51321400E+03</rscale>
<asrwt>0</asrwt>
<pdfrwt beam="1">  1        1 0.45030914E-01 0.51321400E+03</pdfrwt>
<pdfrwt beam="2">  1       -1 0.29842153E-01 0.51321400E+03</pdfrwt>
<totfact> 0.93519439E+02</totfact>
</mgrwt>
</event>
<event>
 4    1  0.2559694E-005  0.4086620E+03  0.7818608E-02  0.1040821E+00
          1   -1    0    0  501    0  0.00000000000E+00  0.00000000000E+00  0.67690317407E+03  0.67690317409E+03  0.50400000000E-02 0.  1.
         -1   -1    0    0    0  501 -0.00000000000E+00 -0.00000000000E+00 -0.61679658297E+02  0.61679658503E+02  0.50400000000E-02 0. -1.
    5000001    1    1    2    0    0 -0.83733621694E+02 -0.86311514181E+02  0.32220072084E+03  0.38144370672E+03  0.16500000000E+03 0.  0.
   -5000001    1    1    2    0    0  0.83733621694E+02  0.86311514181E+02  0.29302279493E+03  0.35713912588E+03  0.16500000000E+03 0.  0.
<mgrwt>
<rscale>  0 0.40866200E+03</rscale>
<asrwt>0</asrwt>
<pdfrwt beam="1">  1        1 0.96700445E-01 0.40866200E+03</pdfrwt>
<pdfrwt beam="2">  1       -1 0.88113805E-02 0.40866200E+03</pdfrwt>
<totfact> 0.24547259E+03</totfact>
</mgrwt>
</event>
<event>
 4    1  0.2559694E-005  0.4321398E+03  0.7818608E-02  0.1033186E+00
         -1   -1    0    0    0  501 -0.00000000000E+00  0.00000000000E+00  0.62091277635E+02  0.62091277840E+02  0.50400000000E-02 0. -1.
          1   -1    0    0  501    0  0.00000000000E+00 -0.00000000000E+00 -0.75189642337E+03  0.75189642339E+03  0.50400000000E-02 0.  1.
    5000001    1    1    2    0    0  0.82885968158E+02  0.45995892133E+02 -0.15211412810E+03  0.24361735115E+03  0.16500000000E+03 0.  0.
   -5000001    1    1    2    0    0 -0.82885968158E+02 -0.45995892133E+02 -0.53769101763E+03  0.57037035008E+03  0.16500000000E+03 0.  0.
<mgrwt>
<rscale>  0 0.43213984E+03</rscale>
<asrwt>0</asrwt>
<pdfrwt beam="1">  1        1 0.10741377E+00 0.43213984E+03</pdfrwt>
<pdfrwt beam="2">  1       -1 0.88701830E-02 0.43213984E+03</pdfrwt>
<totfact> 0.20854544E+03</totfact>
</mgrwt>
</event>
<event>
 4    1  0.2559694E-005  0.3688145E+03  0.7818608E-02  0.1055147E+00
         -1   -1    0    0    0  501 -0.00000000000E+00  0.00000000000E+00  0.30141139415E+02  0.30141139836E+02  0.50400000000E-02 0. -1.
          1   -1    0    0  501    0  0.00000000000E+00 -0.00000000000E+00 -0.11282264959E+04  0.11282264959E+04  0.50400000000E-02 0.  1.
    5000001    1    1    2    0    0 -0.56769910404E+02 -0.58031956771E+02 -0.50569281067E+03  0.53808990837E+03  0.16500000000E+03 0.  0.
   -5000001    1    1    2    0    0  0.56769910404E+02  0.58031956771E+02 -0.59239254582E+03  0.62027772737E+03  0.16500000000E+03 0.  0.
<mgrwt>
<rscale>  0 0.36881449E+03</rscale>
<asrwt>0</asrwt>
<pdfrwt beam="1">  1        1 0.16117519E+00 0.36881449E+03</pdfrwt>
<pdfrwt beam="2">  1       -1 0.43058778E-02 0.36881449E+03</pdfrwt>
<totfact> 0.32570983E+03</totfact>
</mgrwt>
</event>
<event>
 4    1  0.2559694E-005  0.5900080E+03  0.7818608E-02  0.9926356E-01
          1   -1    0    0  501    0  0.00000000000E+00  0.00000000000E+00  0.74014042189E+02  0.74014042360E+02  0.50400000000E-02 0.  1.
         -1   -1    0    0    0  501 -0.00000000000E+00 -0.00000000000E+00 -0.11758223435E+04  0.11758223435E+04  0.50400000000E-02 0. -1.
    5000001    1    1    2    0    0  0.20759455878E+03  0.62807091176E+02 -0.79021196879E+03  0.83588287885E+03  0.16500000000E+03 0.  0.
   -5000001    1    1    2    0    0 -0.20759455878E+03 -0.62807091176E+02 -0.31159633255E+03  0.41395350705E+03  0.16500000000E+03 0.  0.
<mgrwt>
<rscale>  0 0.59000802E+03</rscale>
<asrwt>0</asrwt>
<pdfrwt beam="1">  1        1 0.10573435E-01 0.59000802E+03</pdfrwt>
<pdfrwt beam="2">  1       -1 0.16797461E+00 0.59000802E+03</pdfrwt>
<totfact> 0.16237085E+02</totfact>
</mgrwt>
</event>
<event>
 4    1  0.2559694E-005  0.4184639E+03  0.7818608E-02  0.1037567E+00
         -1   -1    0    0    0  501 -0.00000000000E+00  0.00000000000E+00  0.63088950062E+02  0.63088950264E+02  0.50400000000E-02 0. -1.
          1   -1    0    0  501    0  0.00000000000E+00 -0.00000000000E+00 -0.69390931385E+03  0.69390931387E+03  0.50400000000E-02 0.  1.
    5000001    1    1    2    0    0 -0.78151749347E+02  0.10184648472E+03 -0.29999571931E+03  0.36565398122E+03  0.16500000000E+03 0.  0.
   -5000001    1    1    2    0    0  0.78151749347E+02 -0.10184648472E+03 -0.33082464448E+03  0.39134428291E+03  0.16500000000E+03 0.  0.
<mgrwt>
<rscale>  0 0.41846391E+03</rscale>
<asrwt>0</asrwt>
<pdfrwt beam="1">  1        1 0.99129898E-01 0.41846391E+03</pdfrwt>
<pdfrwt beam="2">  1       -1 0.90127076E-02 0.41846391E+03</pdfrwt>
<totfact> 0.22874822E+03</totfact>
</mgrwt>
</event>
<event>
 4    1  0.2559694E-005  0.3506480E+03  0.7818608E-02  0.1062349E+00
         -1   -1    0    0    0  501 -0.00000000000E+00  0.00000000000E+00  0.54737553348E+02  0.54737553580E+02  0.50400000000E-02 0.  1.
          1   -1    0    0  501    0  0.00000000000E+00 -0.00000000000E+00 -0.56156146237E+03  0.56156146239E+03  0.50400000000E-02 0. -1.
    5000001    1    1    2    0    0 -0.17850522878E+02  0.56010523797E+02 -0.26676053777E+03  0.31912694097E+03  0.16500000000E+03 0.  0.
   -5000001    1    1    2    0    0  0.17850522878E+02 -0.56010523797E+02 -0.24006337125E+03  0.29717207500E+03  0.16500000000E+03 0.  0.
<mgrwt>
<rscale>  0 0.35064797E+03</rscale>
<asrwt>0</asrwt>
<pdfrwt beam="1">  1        1 0.80223063E-01 0.35064797E+03</pdfrwt>
<pdfrwt beam="2">  1       -1 0.78196508E-02 0.35064797E+03</pdfrwt>
<totfact> 0.38184215E+03</totfact>
</mgrwt>
</event>
<event>
 4    1  0.2559694E-005  0.7879993E+03  0.7818608E-02  0.9577552E-01
          1   -1    0    0  501    0  0.00000000000E+00  0.00000000000E+00  0.54800255554E+03  0.54800255556E+03  0.50400000000E-02 0.  1.
         -1   -1    0    0    0  501 -0.00000000000E+00 -0.00000000000E+00 -0.28327556190E+03  0.28327556194E+03  0.50400000000E-02 0. -1.
    5000001    1    1    2    0    0  0.33258795895E+03  0.10286672826E+03  0.21944679709E+03  0.44337141425E+03  0.16500000000E+03 0.  0.
   -5000001    1    1    2    0    0 -0.33258795895E+03 -0.10286672826E+03  0.45280196550E+02  0.38790670325E+03  0.16500000000E+03 0.  0.
<mgrwt>
<rscale>  0 0.78799932E+03</rscale>
<asrwt>0</asrwt>
<pdfrwt beam="1">  1        1 0.78286079E-01 0.78799932E+03</pdfrwt>
<pdfrwt beam="2">  1       -1 0.40467938E-01 0.78799932E+03</pdfrwt>
<totfact> 0.26045549E+02</totfact>
</mgrwt>
</event>
<event>
 4    1  0.2559694E-005  0.3661672E+03  0.7818608E-02  0.1056168E+00
         -1   -1    0    0    0  501 -0.00000000000E+00  0.00000000000E+00  0.28703785495E+02  0.28703785937E+02  0.50400000000E-02 0.  1.
          1   -1    0    0  501    0  0.00000000000E+00 -0.00000000000E+00 -0.11677762134E+04  0.11677762134E+04  0.50400000000E-02 0. -1.
    5000001    1    1    2    0    0  0.23389806615E+02 -0.70635227294E+02 -0.47956322350E+03  0.51258394798E+03  0.16500000000E+03 0.  0.
   -5000001    1    1    2    0    0 -0.23389806615E+02  0.70635227294E+02 -0.65950920441E+03  0.68389605137E+03  0.16500000000E+03 0.  0.
<mgrwt>
<rscale>  0 0.36616717E+03</rscale>
<asrwt>0</asrwt>
<pdfrwt beam="1">  1        1 0.16682514E+00 0.36616717E+03</pdfrwt>
<pdfrwt beam="2">  1       -1 0.41005415E-02 0.36616717E+03</pdfrwt>
<totfact> 0.32930978E+03</totfact>
</mgrwt>
</event>
<event>
 4    1  0.2559694E-005  0.7388329E+03  0.7818608E-02  0.9653034E-01
         -1   -1    0    0    0  501 -0.00000000000E+00  0.00000000000E+00  0.78482844469E+03  0.78482844471E+03  0.50400000000E-02 0.  1.
          1   -1    0    0  501    0  0.00000000000E+00 -0.00000000000E+00 -0.17388325490E+03  0.17388325497E+03  0.50400000000E-02 0. -1.
    5000001    1    1    2    0    0 -0.20236062323E+03 -0.22908656105E+03  0.14229910236E+03  0.37537249343E+03  0.16500000000E+03 0.  0.
   -5000001    1    1    2    0    0  0.20236062323E+03  0.22908656105E+03  0.46864608744E+03  0.58333920626E+03  0.16500000000E+03 0.  0.
<mgrwt>
<rscale>  0 0.73883293E+03</rscale>
<asrwt>0</asrwt>
<pdfrwt beam="1">  1        1 0.24840465E-01 0.73883293E+03</pdfrwt>
<pdfrwt beam="2">  1       -1 0.11211835E+00 0.73883293E+03</pdfrwt>
<totfact> 0.14569408E+02</totfact>
</mgrwt>
</event>
<event>
 4    1  0.2559694E-005  0.6903275E+03  0.7818608E-02  0.9733918E-01
         -1   -1    0    0    0  501 -0.00000000000E+00  0.00000000000E+00  0.81184205824E+03  0.81184205826E+03  0.50400000000E-02 0. -1.
          1   -1    0    0  501    0  0.00000000000E+00 -0.00000000000E+00 -0.14675022759E+03  0.14675022767E+03  0.50400000000E-02 0.  1.
    5000001    1    1    2    0    0  0.27634314177E+03 -0.41913313195E+02  0.16947643146E+03  0.36615504727E+03  0.16500000000E+03 0.  0.
   -5000001    1    1    2    0    0 -0.27634314177E+03  0.41913313195E+02  0.49561539920E+03  0.59243723866E+03  0.16500000000E+03 0.  0.
<mgrwt>
<rscale>  0 0.69032748E+03</rscale>
<asrwt>0</asrwt>
<pdfrwt beam="1">  1        1 0.20964318E-01 0.69032748E+03</pdfrwt>
<pdfrwt beam="2">  1       -1 0.11597744E+00 0.69032748E+03</pdfrwt>
<totfact> 0.16839128E+02</totfact>
</mgrwt>
</event>
<event>
 4    1  0.2559694E-005  0.5228507E+03  0.7818608E-02  0.1007981E+00
          1   -1    0    0  501    0  0.00000000000E+00  0.00000000000E+00  0.14839255981E+04  0.14839255981E+04  0.50400000000E-02 0.  1.
         -1   -1    0    0    0  501 -0.00000000000E+00 -0.00000000000E+00 -0.46055693090E+02  0.46055693366E+02  0.50400000000E-02 0. -1.
    5000001    1    1    2    0    0 -0.46814553510E+02 -0.18723374081E+03  0.90097715234E+03  0.93607313024E+03  0.16500000000E+03 0.  0.
   -5000001    1    1    2    0    0  0.46814553510E+02  0.18723374081E+03  0.53689275271E+03  0.59390816128E+03  0.16500000000E+03 0.  0.
<mgrwt>
<rscale>  0 0.52285073E+03</rscale>
<asrwt>0</asrwt>
<pdfrwt beam="1">  1        1 0.21198938E+00 0.52285073E+03</pdfrwt>
<pdfrwt beam="2">  1       -1 0.65793843E-02 0.52285073E+03</pdfrwt>
<totfact> 0.99134659E+02</totfact>
</mgrwt>
</event>
<event>
 4    1  0.2559694E-005  0.5070965E+03  0.7818608E-02  0.1011943E+00
         -1   -1    0    0    0  501 -0.00000000000E+00  0.00000000000E+00  0.59582633631E+03  0.59582633633E+03  0.50400000000E-02 0. -1.
          1   -1    0    0  501    0  0.00000000000E+00 -0.00000000000E+00 -0.10789507099E+03  0.10789507110E+03  0.50400000000E-02 0.  1.
    5000001    1    1    2    0    0  0.13751219587E+03  0.91077037178E+02  0.38174512162E+03  0.44739129249E+03  0.16500000000E+03 0.  0.
   -5000001    1    1    2    0    0 -0.13751219587E+03 -0.91077037178E+02  0.10618614370E+03  0.25633011495E+03  0.16500000000E+03 0.  0.
<mgrwt>
<rscale>  0 0.50709654E+03</rscale>
<asrwt>0</asrwt>
<pdfrwt beam="1">  1        1 0.15413582E-01 0.50709654E+03</pdfrwt>
<pdfrwt beam="2">  1       -1 0.85118045E-01 0.50709654E+03</pdfrwt>
<totfact> 0.51399097E+02</totfact>
</mgrwt>
</event>
<event>
 4    1  0.2559694E-005  0.7316398E+03  0.7818608E-02  0.9664603E-01
          1   -1    0    0  501    0  0.00000000000E+00  0.00000000000E+00  0.30425744908E+03  0.30425744912E+03  0.50400000000E-02 0.  1.
         -1   -1    0    0    0  501 -0.00000000000E+00 -0.00000000000E+00 -0.43983869350E+03  0.43983869353E+03  0.50400000000E-02 0. -1.
    5000001    1    1    2    0    0  0.26675517048E+02  0.32029046659E+03 -0.93525190038E+01  0.36140010489E+03  0.16500000000E+03 0.  0.
   -5000001    1    1    2    0    0 -0.26675517048E+02 -0.32029046659E+03 -0.12622872542E+03  0.38269603776E+03  0.16500000000E+03 0.  0.
<mgrwt>
<rscale>  0 0.73163980E+03</rscale>
<asrwt>0</asrwt>
<pdfrwt beam="1">  1        1 0.43465350E-01 0.73163980E+03</pdfrwt>
<pdfrwt beam="2">  1       -1 0.62834099E-01 0.73163980E+03</pdfrwt>
<totfact> 0.24662369E+02</totfact>
</mgrwt>
</event>
<event>
 4    1  0.2559694E-005  0.3799743E+03  0.7818608E-02  0.1050943E+00
         -1   -1    0    0    0  501 -0.00000000000E+00  0.00000000000E+00  0.30592324414E+02  0.30592324829E+02  0.50400000000E-02 0. -1.
          1   -1    0    0  501    0  0.00000000000E+00 -0.00000000000E+00 -0.11798750100E+04  0.11798750101E+04  0.50400000000E-02 0.  1.
    5000001    1    1    2    0    0  0.23491348706E+02 -0.90684974287E+02 -0.54367137722E+03  0.57582911913E+03  0.16500000000E+03 0.  0.
   -5000001    1    1    2    0    0 -0.23491348706E+02  0.90684974287E+02 -0.60561130841E+03  0.63463821575E+03  0.16500000000E+03 0.  0.
<mgrwt>
<rscale>  0 0.37997431E+03</rscale>
<asrwt>0</asrwt>
<pdfrwt beam="1">  1        1 0.16855354E+00 0.37997431E+03</pdfrwt>
<pdfrwt beam="2">  1       -1 0.43703328E-02 0.37997431E+03</pdfrwt>
<totfact> 0.29366447E+03</totfact>
</mgrwt>
</event>
<event>
 4    1  0.2559694E-005  0.3559120E+03  0.7818608E-02  0.1060214E+00
         -1   -1    0    0    0  501 -0.00000000000E+00  0.00000000000E+00  0.10954631602E+02  0.10954632761E+02  0.50400000000E-02 0. -1.
          1   -1    0    0  501    0  0.00000000000E+00 -0.00000000000E+00 -0.28908626861E+04  0.28908626861E+04  0.50400000000E-02 0.  1.
    5000001    1    1    2    0    0 -0.50237772971E+02 -0.12781287081E+02 -0.10982836778E+04  0.11118179851E+04  0.16500000000E+03 0.  0.
   -5000001    1    1    2    0    0  0.50237772971E+02  0.12781287081E+02 -0.17816243767E+04  0.17899993338E+04  0.16500000000E+03 0.  0.
<mgrwt>
<rscale>  0 0.35591200E+03</rscale>
<asrwt>0</asrwt>
<pdfrwt beam="1">  1        1 0.41297990E+00 0.35591200E+03</pdfrwt>
<pdfrwt beam="2">  1       -1 0.15649493E-02 0.35591200E+03</pdfrwt>
<totfact> 0.11611165E+03</totfact>
</mgrwt>
</event>
<event>
 4    1  0.2559694E-005  0.3687110E+03  0.7818608E-02  0.1055187E+00
          1   -1    0    0  501    0  0.00000000000E+00  0.00000000000E+00  0.20056033250E+03  0.20056033256E+03  0.50400000000E-02 0.  1.
         -1   -1    0    0    0  501 -0.00000000000E+00 -0.00000000000E+00 -0.16946001102E+03  0.16946001109E+03  0.50400000000E-02 0. -1.
    5000001    1    1    2    0    0  0.27916347991E+01  0.81671501247E+02  0.63563601534E+01  0.18423743011E+03  0.16500000000E+03 0.  0.
   -5000001    1    1    2    0    0 -0.27916347991E+01 -0.81671501247E+02  0.24743961332E+02  0.18578291354E+03  0.16500000000E+03 0.  0.
<mgrwt>
<rscale>  0 0.36871103E+03</rscale>
<asrwt>0</asrwt>
<pdfrwt beam="1">  1        1 0.28651476E-01 0.36871103E+03</pdfrwt>
<pdfrwt beam="2">  1       -1 0.24208573E-01 0.36871103E+03</pdfrwt>
<totfact> 0.23715862E+03</totfact>
</mgrwt>
</event>
<event>
 4    1  0.2559694E-005  0.7244939E+03  0.7818608E-02  0.9676238E-01
         -1   -1    0    0    0  501 -0.00000000000E+00  0.00000000000E+00  0.15364084696E+03  0.15364084704E+03  0.50400000000E-02 0. -1.
          1   -1    0    0  501    0  0.00000000000E+00 -0.00000000000E+00 -0.85408839549E+03  0.85408839551E+03  0.50400000000E-02 0.  1.
    5000001    1    1    2    0    0 -0.19536675054E+03 -0.25457077299E+03 -0.30572625381E+03  0.47293550083E+03  0.16500000000E+03 0.  0.
   -5000001    1    1    2    0    0  0.19536675054E+03  0.25457077299E+03 -0.39472129472E+03  0.53479374172E+03  0.16500000000E+03 0.  0.
<mgrwt>
<rscale>  0 0.72449393E+03</rscale>
<asrwt>0</asrwt>
<pdfrwt beam="1">  1        1 0.12201262E+00 0.72449393E+03</pdfrwt>
<pdfrwt beam="2">  1       -1 0.21948693E-01 0.72449393E+03</pdfrwt>
<totfact> 0.39559777E+02</totfact>
</mgrwt>
</event>
<event>
 4    1  0.2559694E-005  0.7896948E+03  0.7818608E-02  0.9575054E-01
         -1   -1    0    0    0  501 -0.00000000000E+00  0.00000000000E+00  0.26299235862E+03  0.26299235867E+03  0.50400000000E-02 0.  1.
          1   -1    0    0  501    0  0.00000000000E+00 -0.00000000000E+00 -0.59280992660E+03  0.59280992662E+03  0.50400000000E-02 0. -1.
    5000001    1    1    2    0    0  0.33083288444E+03 -0.10069054462E+03 -0.26823439369E+03  0.46772179034E+03  0.16500000000E+03 0.  0.
   -5000001    1    1    2    0    0 -0.33083288444E+03  0.10069054462E+03 -0.61583174285E+02  0.38808049494E+03  0.16500000000E+03 0.  0.
<mgrwt>
<rscale>  0 0.78969483E+03</rscale>
<asrwt>0</asrwt>
<pdfrwt beam="1">  1        1 0.84687132E-01 0.78969483E+03</pdfrwt>
<pdfrwt beam="2">  1       -1 0.37570337E-01 0.78969483E+03</pdfrwt>
<totfact> 0.26706335E+02</totfact>
</mgrwt>
</event>
<event>
 4    1  0.2559694E-005  0.6651752E+03  0.7818608E-02  0.9778713E-01
          1   -1    0    0  501    0  0.00000000000E+00  0.00000000000E+00  0.51220614330E+03  0.51220614333E+03  0.50400000000E-02 0.  1.
         -1   -1    0    0    0  501 -0.00000000000E+00 -0.00000000000E+00 -0.21595700928E+03  0.21595700934E+03  0.50400000000E-02 0. -1.
    5000001    1    1    2    0    0  0.78634432080E+02  0.26334330044E+03  0.51094678432E+02  0.32460550513E+03  0.16500000000E+03 0.  0.
   -5000001    1    1    2    0    0 -0.78634432080E+02 -0.26334330044E+03  0.24515445559E+03  0.40355764754E+03  0.16500000000E+03 0.  0.
<mgrwt>
<rscale>  0 0.66517519E+03</rscale>
<asrwt>0</asrwt>
<pdfrwt beam="1">  1        1 0.73172307E-01 0.66517519E+03</pdfrwt>
<pdfrwt beam="2">  1       -1 0.30851001E-01 0.66517519E+03</pdfrwt>
<totfact> 0.46556144E+02</totfact>
</mgrwt>
</event>
<event>
 4    1  0.2559694E-005  0.5072594E+03  0.7818608E-02  0.1011901E+00
         -1   -1    0    0    0  501 -0.00000000000E+00  0.00000000000E+00  0.27101161110E+03  0.27101161114E+03  0.50400000000E-02 0.  1.
          1   -1    0    0  501    0  0.00000000000E+00 -0.00000000000E+00 -0.23736257892E+03  0.23736257897E+03  0.50400000000E-02 0. -1.
    5000001    1    1    2    0    0  0.43247631848E+02 -0.15301773488E+03  0.12577512044E+03  0.26139848081E+03  0.16500000000E+03 0.  0.
   -5000001    1    1    2    0    0 -0.43247631848E+02  0.15301773488E+03 -0.92126088262E+02  0.24697570931E+03  0.16500000000E+03 0.  0.
<mgrwt>
<rscale>  0 0.50725936E+03</rscale>
<asrwt>0</asrwt>
<pdfrwt beam="1">  1        1 0.33908940E-01 0.50725936E+03</pdfrwt>
<pdfrwt beam="2">  1       -1 0.38715945E-01 0.50725936E+03</pdfrwt>
<totfact> 0.85084848E+02</totfact>
</mgrwt>
</event>
<event>
 4    1  0.2559694E-005  0.6539464E+03  0.7818608E-02  0.9799402E-01
          1   -1    0    0  501    0  0.00000000000E+00  0.00000000000E+00  0.19548069520E+04  0.19548069520E+04  0.50400000000E-02 0.  1.
         -1   -1    0    0    0  501 -0.00000000000E+00 -0.00000000000E+00 -0.54691574238E+02  0.54691574470E+02  0.50400000000E-02 0. -1.
    5000001    1    1    2    0    0  0.12713063316E+03 -0.11411179144E+03  0.25949493593E+03  0.35177595228E+03  0.16500000000E+03 0.  0.
   -5000001    1    1    2    0    0 -0.12713063316E+03  0.11411179144E+03  0.16406204419E+04  0.16577225742E+04  0.16500000000E+03 0.  0.
<mgrwt>
<rscale>  0 0.65394639E+03</rscale>
<asrwt>0</asrwt>
<pdfrwt beam="1">  1        1 0.27925807E+00 0.65394639E+03</pdfrwt>
<pdfrwt beam="2">  1       -1 0.78130839E-02 0.65394639E+03</pdfrwt>
<totfact> 0.38188997E+02</totfact>
</mgrwt>
</event>
<event>
 4    1  0.2559694E-005  0.5739634E+03  0.7818608E-02  0.9960946E-01
          1   -1    0    0  501    0  0.00000000000E+00  0.00000000000E+00  0.14513500740E+04  0.14513500741E+04  0.50400000000E-02 0.  1.
         -1   -1    0    0    0  501 -0.00000000000E+00 -0.00000000000E+00 -0.56746128374E+02  0.56746128598E+02  0.50400000000E-02 0. -1.
    5000001    1    1    2    0    0  0.16996660844E+03 -0.15246992021E+03  0.55344058964E+03  0.62101305205E+03  0.16500000000E+03 0.  0.
   -5000001    1    1    2    0    0 -0.16996660844E+03  0.15246992021E+03  0.84116335604E+03  0.88708315061E+03  0.16500000000E+03 0.  0.
<mgrwt>
<rscale>  0 0.57396341E+03</rscale>
<asrwt>0</asrwt>
<pdfrwt beam="1">  1        1 0.20733573E+00 0.57396341E+03</pdfrwt>
<pdfrwt beam="2">  1       -1 0.81065896E-02 0.57396341E+03</pdfrwt>
<totfact> 0.75099572E+02</totfact>
</mgrwt>
</event>
<event>
 4    1  0.2559694E-005  0.5098478E+03  0.7818608E-02  0.1011240E+00
         -1   -1    0    0    0  501 -0.00000000000E+00  0.00000000000E+00  0.66287779541E+02  0.66287779733E+02  0.50400000000E-02 0.  1.
          1   -1    0    0  501    0  0.00000000000E+00 -0.00000000000E+00 -0.98036477318E+03  0.98036477319E+03  0.50400000000E-02 0. -1.
    5000001    1    1    2    0    0 -0.16274119733E+03  0.10155748606E+03 -0.52072995988E+03  0.57895018041E+03  0.16500000000E+03 0.  0.
   -5000001    1    1    2    0    0  0.16274119733E+03 -0.10155748606E+03 -0.39334703376E+03  0.46770237251E+03  0.16500000000E+03 0.  0.
<mgrwt>
<rscale>  0 0.50984784E+03</rscale>
<asrwt>0</asrwt>
<pdfrwt beam="1">  1        1 0.14005210E+00 0.50984784E+03</pdfrwt>
<pdfrwt beam="2">  1       -1 0.94696834E-02 0.50984784E+03</pdfrwt>
<totfact> 0.12399882E+03</totfact>
</mgrwt>
</event>
<event>
 4    1  0.2559694E-005  0.4248973E+03  0.7818608E-02  0.1035484E+00
         -1   -1    0    0    0  501 -0.00000000000E+00  0.00000000000E+00  0.39492180624E+02  0.39492180945E+02  0.50400000000E-02 0. -1.
          1   -1    0    0  501    0  0.00000000000E+00 -0.00000000000E+00 -0.11428699285E+04  0.11428699285E+04  0.50400000000E-02 0.  1.
    5000001    1    1    2    0    0 -0.10050951789E+03  0.31942835545E+02 -0.32244230462E+03  0.37724865505E+03  0.16500000000E+03 0.  0.
   -5000001    1    1    2    0    0  0.10050951789E+03 -0.31942835545E+02 -0.78093544324E+03  0.80511345439E+03  0.16500000000E+03 0.  0.
<mgrwt>
<rscale>  0 0.42489729E+03</rscale>
<asrwt>0</asrwt>
<pdfrwt beam="1">  1        1 0.16326711E+00 0.42489729E+03</pdfrwt>
<pdfrwt beam="2">  1       -1 0.56417408E-02 0.42489729E+03</pdfrwt>
<totfact> 0.21145074E+03</totfact>
</mgrwt>
</event>
<event>
 4    1  0.2559694E-005  0.4333205E+03  0.7818608E-02  0.1032816E+00
          1   -1    0    0  501    0  0.00000000000E+00  0.00000000000E+00  0.44291784831E+03  0.44291784834E+03  0.50400000000E-02 0.  1.
         -1   -1    0    0    0  501 -0.00000000000E+00 -0.00000000000E+00 -0.10598279321E+03  0.10598279333E+03  0.50400000000E-02 0. -1.
    5000001    1    1    2    0    0 -0.94128245735E+02 -0.85354389735E+02  0.24416648040E+03  0.32091707440E+03  0.16500000000E+03 0.  0.
   -5000001    1    1    2    0    0  0.94128245735E+02  0.85354389735E+02  0.92768574699E+02  0.22798356727E+03  0.16500000000E+03 0.  0.
<mgrwt>
<rscale>  0 0.43332053E+03</rscale>
<asrwt>0</asrwt>
<pdfrwt beam="1">  1        1 0.63273978E-01 0.43332053E+03</pdfrwt>
<pdfrwt beam="2">  1       -1 0.15140399E-01 0.43332053E+03</pdfrwt>
<totfact> 0.18604947E+03</totfact>
</mgrwt>
</event>
<event>
 4    1  0.2559694E-005  0.3618229E+03  0.7818608E-02  0.1057864E+00
          1   -1    0    0  501    0  0.00000000000E+00  0.00000000000E+00  0.82950821881E+03  0.82950821883E+03  0.50400000000E-02 0.  1.
         -1   -1    0    0    0  501 -0.00000000000E+00 -0.00000000000E+00 -0.39455842672E+02  0.39455842994E+02  0.50400000000E-02 0. -1.
    5000001    1    1    2    0    0  0.82388013913E+01  0.55786356138E+02  0.51080237747E+03  0.53974444343E+03  0.16500000000E+03 0.  0.
   -5000001    1    1    2    0    0 -0.82388013913E+01 -0.55786356138E+02  0.27924999867E+03  0.32921961840E+03  0.16500000000E+03 0.  0.
<mgrwt>
<rscale>  0 0.36182286E+03</rscale>
<asrwt>0</asrwt>
<pdfrwt beam="1">  1        1 0.11850117E+00 0.36182286E+03</pdfrwt>
<pdfrwt beam="2">  1       -1 0.56365490E-02 0.36182286E+03</pdfrwt>
<totfact> 0.36024371E+03</totfact>
</mgrwt>
</event>
<event>
 4    1  0.2559694E-005  0.4152199E+03  0.7818608E-02  0.1038633E+00
          1   -1    0    0  501    0  0.00000000000E+00  0.00000000000E+00  0.11406211363E+03  0.11406211374E+03  0.50400000000E-02 0. -1.
         -1   -1    0    0    0  501 -0.00000000000E+00 -0.00000000000E+00 -0.37788091580E+03  0.37788091584E+03  0.50400000000E-02 0.  1.
    5000001    1    1    2    0    0 -0.38239133337E+01  0.12276934479E+03 -0.16520904848E+03  0.26382942223E+03  0.16500000000E+03 0.  0.
   -5000001    1    1    2    0    0  0.38239133337E+01 -0.12276934479E+03 -0.98609753693E+02  0.22811360734E+03  0.16500000000E+03 0.  0.
<mgrwt>
<rscale>  0 0.41521992E+03</rscale>
<asrwt>0</asrwt>
<pdfrwt beam="1">  1        1 0.16294588E-01 0.41521992E+03</pdfrwt>
<pdfrwt beam="2">  1       -1 0.53982987E-01 0.41521992E+03</pdfrwt>
<totfact> 0.11944093E+03</totfact>
</mgrwt>
</event>
<event>
 4    1  0.2559694E-005  0.4142537E+03  0.7818608E-02  0.1038953E+00
          1   -1    0    0  501    0  0.00000000000E+00  0.00000000000E+00  0.23825185545E+04  0.23825185545E+04  0.50400000000E-02 0. -1.
         -1   -1    0    0    0  501 -0.00000000000E+00 -0.00000000000E+00 -0.18006798480E+02  0.18006799185E+02  0.50400000000E-02 0.  1.
    5000001    1    1    2    0    0  0.22741726816E+02  0.10583867276E+03  0.15468012117E+04  0.15593389623E+04  0.16500000000E+03 0.  0.
   -5000001    1    1    2    0    0 -0.22741726816E+02 -0.10583867276E+03  0.81771054428E+03  0.84118639137E+03  0.16500000000E+03 0.  0.
<mgrwt>
<rscale>  0 0.41425370E+03</rscale>
<asrwt>0</asrwt>
<pdfrwt beam="1">  1        1 0.34035964E+00 0.41425370E+03</pdfrwt>
<pdfrwt beam="2">  1       -1 0.25724010E-02 0.41425370E+03</pdfrwt>
<totfact> 0.11483054E+03</totfact>
</mgrwt>
</event>
<event>
 4    1  0.2559694E-005  0.5346006E+03  0.7818608E-02  0.1005122E+00
          1   -1    0    0  501    0  0.00000000000E+00  0.00000000000E+00  0.30699981028E+03  0.30699981032E+03  0.50400000000E-02 0. -1.
         -1   -1    0    0    0  501 -0.00000000000E+00 -0.00000000000E+00 -0.23273454215E+03  0.23273454220E+03  0.50400000000E-02 0.  1.
    5000001    1    1    2    0    0  0.15035357333E+03 -0.53473589366E+02  0.17541078427E+03  0.28889369154E+03  0.16500000000E+03 0.  0.
   -5000001    1    1    2    0    0 -0.15035357333E+03  0.53473589366E+02 -0.10114551613E+03  0.25084066099E+03  0.16500000000E+03 0.  0.
<mgrwt>
<rscale>  0 0.53460064E+03</rscale>
<asrwt>0</asrwt>
<pdfrwt beam="1">  1        1 0.43857116E-01 0.53460064E+03</pdfrwt>
<pdfrwt beam="2">  1       -1 0.33247792E-01 0.53460064E+03</pdfrwt>
<totfact> 0.80130162E+02</totfact>
</mgrwt>
</event>
<event>
 4    1  0.2559694E-005  0.6794094E+03  0.7818608E-02  0.9753107E-01
         -1   -1    0    0    0  501 -0.00000000000E+00  0.00000000000E+00  0.55681809357E+03  0.55681809359E+03  0.50400000000E-02 0. -1.
          1   -1    0    0  501    0  0.00000000000E+00 -0.00000000000E+00 -0.20724773935E+03  0.20724773941E+03  0.50400000000E-02 0.  1.
    5000001    1    1    2    0    0 -0.10309212897E+03 -0.22186531062E+03  0.36404648964E+03  0.46862250238E+03  0.16500000000E+03 0.  0.
   -5000001    1    1    2    0    0  0.10309212897E+03  0.22186531062E+03 -0.14476135426E+02  0.29544333063E+03  0.16500000000E+03 0.  0.
<mgrwt>
<rscale>  0 0.67940942E+03</rscale>
<asrwt>0</asrwt>
<pdfrwt beam="1">  1        1 0.29606820E-01 0.67940942E+03</pdfrwt>
<pdfrwt beam="2">  1       -1 0.79545443E-01 0.67940942E+03</pdfrwt>
<totfact> 0.25039018E+02</totfact>
</mgrwt>
</event>
<event>
 4    1  0.2559694E-005  0.7315433E+03  0.7818608E-02  0.9664759E-01
         -1   -1    0    0    0  501 -0.00000000000E+00  0.00000000000E+00  0.40718722897E+03  0.40718722900E+03  0.50400000000E-02 0.  1.
          1   -1    0    0  501    0  0.00000000000E+00 -0.00000000000E+00 -0.32856849239E+03  0.32856849243E+03  0.50400000000E-02 0. -1.
    5000001    1    1    2    0    0  0.18366153806E+03  0.24864842262E+03  0.14482436789E+03  0.37915260275E+03  0.16500000000E+03 0.  0.
   -5000001    1    1    2    0    0 -0.18366153806E+03 -0.24864842262E+03 -0.66205631311E+02  0.35660311868E+03  0.16500000000E+03 0.  0.
<mgrwt>
<rscale>  0 0.73154328E+03</rscale>
<asrwt>0</asrwt>
<pdfrwt beam="1">  1        1 0.46938356E-01 0.73154328E+03</pdfrwt>
<pdfrwt beam="2">  1       -1 0.58169604E-01 0.73154328E+03</pdfrwt>
<totfact> 0.25994700E+02</totfact>
</mgrwt>
</event>
<event>
 4    1  0.2559694E-005  0.7032132E+03  0.7818608E-02  0.9711753E-01
          1   -1    0    0  501    0  0.00000000000E+00  0.00000000000E+00  0.62429835897E+03  0.62429835899E+03  0.50400000000E-02 0.  1.
         -1   -1    0    0    0  501 -0.00000000000E+00 -0.00000000000E+00 -0.19802580981E+03  0.19802580988E+03  0.50400000000E-02 0. -1.
    5000001    1    1    2    0    0 -0.21491825376E+03  0.13740718081E+03  0.42012531114E+03  0.51846009123E+03  0.16500000000E+03 0.  0.
   -5000001    1    1    2    0    0  0.21491825376E+03 -0.13740718081E+03  0.61472380089E+01  0.30386407763E+03  0.16500000000E+03 0.  0.
<mgrwt>
<rscale>  0 0.70321316E+03</rscale>
<asrwt>0</asrwt>
<pdfrwt beam="1">  1        1 0.89185480E-01 0.70321316E+03</pdfrwt>
<pdfrwt beam="2">  1       -1 0.28289401E-01 0.70321316E+03</pdfrwt>
<totfact> 0.41077640E+02</totfact>
</mgrwt>
</event>
<event>
 4    1  0.2559694E-005  0.3963608E+03  0.7818608E-02  0.1045047E+00
          1   -1    0    0  501    0  0.00000000000E+00  0.00000000000E+00  0.65648148373E+03  0.65648148375E+03  0.50400000000E-02 0. -1.
         -1   -1    0    0    0  501 -0.00000000000E+00 -0.00000000000E+00 -0.59827228563E+02  0.59827228775E+02  0.50400000000E-02 0.  1.
    5000001    1    1    2    0    0  0.10972840611E+03 -0.15443562358E+01  0.29329290484E+03  0.35396106590E+03  0.16500000000E+03 0.  0.
   -5000001    1    1    2    0    0 -0.10972840611E+03  0.15443562358E+01  0.30336135032E+03  0.36234764662E+03  0.16500000000E+03 0.  0.
<mgrwt>
<rscale>  0 0.39636078E+03</rscale>
<asrwt>0</asrwt>
<pdfrwt beam="1">  1        1 0.93783073E-01 0.39636078E+03</pdfrwt>
<pdfrwt beam="2">  1       -1 0.85467466E-02 0.39636078E+03</pdfrwt>
<totfact> 0.26873435E+03</totfact>
</mgrwt>
</event>
<event>
 4    1  0.2559694E-005  0.4393900E+03  0.7818608E-02  0.1030934E+00
         -1   -1    0    0    0  501 -0.00000000000E+00  0.00000000000E+00  0.23415207996E+03  0.23415208002E+03  0.50400000000E-02 0. -1.
          1   -1    0    0  501    0  0.00000000000E+00 -0.00000000000E+00 -0.20613052996E+03  0.20613053002E+03  0.50400000000E-02 0.  1.
    5000001    1    1    2    0    0  0.32448777632E+02  0.55297551045E+02  0.14439101320E+03  0.22843928518E+03  0.16500000000E+03 0.  0.
   -5000001    1    1    2    0    0 -0.32448777632E+02 -0.55297551045E+02 -0.11636946319E+03  0.21184332485E+03  0.16500000000E+03 0.  0.
<mgrwt>
<rscale>  0 0.43939000E+03</rscale>
<asrwt>0</asrwt>
<pdfrwt beam="1">  1        1 0.29447219E-01 0.43939000E+03</pdfrwt>
<pdfrwt beam="2">  1       -1 0.33450297E-01 0.43939000E+03</pdfrwt>
<totfact> 0.13205900E+03</totfact>
</mgrwt>
</event>
<event>
 4    1  0.2559694E-005  0.3917712E+03  0.7818608E-02  0.1046667E+00
         -1   -1    0    0    0  501 -0.00000000000E+00  0.00000000000E+00  0.40310097032E+02  0.40310097348E+02  0.50400000000E-02 0. -1.
          1   -1    0    0  501    0  0.00000000000E+00 -0.00000000000E+00 -0.95189962384E+03  0.95189962386E+03  0.50400000000E-02 0.  1.
    5000001    1    1    2    0    0  0.67883120459E+02 -0.72741561126E+02 -0.54521881266E+03  0.57826292155E+03  0.16500000000E+03 0.  0.
   -5000001    1    1    2    0    0 -0.67883120459E+02  0.72741561126E+02 -0.36637071415E+03  0.41394679965E+03  0.16500000000E+03 0.  0.
<mgrwt>
<rscale>  0 0.39177119E+03</rscale>
<asrwt>0</asrwt>
<pdfrwt beam="1">  1        1 0.13598565E+00 0.39177119E+03</pdfrwt>
<pdfrwt beam="2">  1       -1 0.57585859E-02 0.39177119E+03</pdfrwt>
<totfact> 0.28070876E+03</totfact>
</mgrwt>
</event>
<event>
 4    1  0.2559694E-005  0.4677493E+03  0.7818608E-02  0.1022557E+00
         -1   -1    0    0    0  501 -0.00000000000E+00  0.00000000000E+00  0.19367747488E+03  0.19367747495E+03  0.50400000000E-02 0. -1.
          1   -1    0    0  501    0  0.00000000000E+00 -0.00000000000E+00 -0.28241462729E+03  0.28241462733E+03  0.50400000000E-02 0.  1.
    5000001    1    1    2    0    0  0.41876801613E+02  0.42798846730E+01 -0.20754127695E+03  0.26845924377E+03  0.16500000000E+03 0.  0.
   -5000001    1    1    2    0    0 -0.41876801613E+02 -0.42798846730E+01  0.11880412455E+03  0.20763285852E+03  0.16500000000E+03 0.  0.
<mgrwt>
<rscale>  0 0.46774930E+03</rscale>
<asrwt>0</asrwt>
<pdfrwt beam="1">  1        1 0.40344947E-01 0.46774930E+03</pdfrwt>
<pdfrwt beam="2">  1       -1 0.27668211E-01 0.46774930E+03</pdfrwt>
<totfact> 0.12258354E+03</totfact>
</mgrwt>
</event>
<event>
 4    1  0.2559694E-005  0.3690187E+03  0.7818608E-02  0.1055069E+00
         -1   -1    0    0    0  501 -0.00000000000E+00  0.00000000000E+00  0.29333421232E+04  0.29333421232E+04  0.50400000000E-02 0.  1.
          1   -1    0    0  501    0  0.00000000000E+00 -0.00000000000E+00 -0.11605770215E+02  0.11605771309E+02  0.50400000000E-02 0. -1.
    5000001    1    1    2    0    0 -0.37614414865E+02 -0.73333572544E+02  0.15015914821E+04  0.15128762792E+04  0.16500000000E+03 0.  0.
   -5000001    1    1    2    0    0  0.37614414865E+02  0.73333572544E+02  0.14201448709E+04  0.14320716153E+04  0.16500000000E+03 0.  0.
<mgrwt>
<rscale>  0 0.36901868E+03</rscale>
<asrwt>0</asrwt>
<pdfrwt beam="1">  1        1 0.16579646E-02 0.36901868E+03</pdfrwt>
<pdfrwt beam="2">  1       -1 0.41904955E+00 0.36901868E+03</pdfrwt>
<totfact> 0.50879549E+01</totfact>
</mgrwt>
</event>
<event>
 4    1  0.2559694E-005  0.5377292E+03  0.7818608E-02  0.1004375E+00
          1   -1    0    0  501    0  0.00000000000E+00  0.00000000000E+00  0.37925320756E+03  0.37925320759E+03  0.50400000000E-02 0.  1.
         -1   -1    0    0    0  501 -0.00000000000E+00 -0.00000000000E+00 -0.19060662327E+03  0.19060662333E+03  0.50400000000E-02 0. -1.
    5000001    1    1    2    0    0 -0.11342874090E+03 -0.14887600355E+03  0.20047340754E+03  0.32006988429E+03  0.16500000000E+03 0.  0.
   -5000001    1    1    2    0    0  0.11342874090E+03  0.14887600355E+03 -0.11826823251E+02  0.24978994664E+03  0.16500000000E+03 0.  0.
<mgrwt>
<rscale>  0 0.53772920E+03</rscale>
<asrwt>0</asrwt>
<pdfrwt beam="1">  1        1 0.54179030E-01 0.53772920E+03</pdfrwt>
<pdfrwt beam="2">  1       -1 0.27229518E-01 0.53772920E+03</pdfrwt>
<totfact> 0.86223582E+02</totfact>
</mgrwt>
</event>
<event>
 4    1  0.2559694E-005  0.3353412E+03  0.7818608E-02  0.1068798E+00
         -1   -1    0    0    0  501 -0.00000000000E+00  0.00000000000E+00  0.20299783926E+02  0.20299784552E+02  0.50400000000E-02 0. -1.
          1   -1    0    0  501    0  0.00000000000E+00 -0.00000000000E+00 -0.13849129508E+04  0.13849129509E+04  0.50400000000E-02 0.  1.
    5000001    1    1    2    0    0  0.25487524065E+02 -0.15163616131E+02 -0.69479717620E+03  0.71473608080E+03  0.16500000000E+03 0.  0.
   -5000001    1    1    2    0    0 -0.25487524065E+02  0.15163616131E+02 -0.66981599072E+03  0.69047665461E+03  0.16500000000E+03 0.  0.
<mgrwt>
<rscale>  0 0.33534122E+03</rscale>
<asrwt>0</asrwt>
<pdfrwt beam="1">  1        1 0.19784465E+00 0.33534122E+03</pdfrwt>
<pdfrwt beam="2">  1       -1 0.28999701E-02 0.33534122E+03</pdfrwt>
<totfact> 0.39690115E+03</totfact>
</mgrwt>
</event>
<event>
 4    1  0.2559694E-005  0.3834679E+03  0.7818608E-02  0.1049659E+00
          1   -1    0    0  501    0  0.00000000000E+00  0.00000000000E+00  0.10534034963E+03  0.10534034975E+03  0.50400000000E-02 0.  1.
         -1   -1    0    0    0  501 -0.00000000000E+00 -0.00000000000E+00 -0.34898219289E+03  0.34898219292E+03  0.50400000000E-02 0. -1.
    5000001    1    1    2    0    0 -0.93766132528E+00 -0.68908283332E+02 -0.20379898111E+03  0.27112405910E+03  0.16500000000E+03 0.  0.
   -5000001    1    1    2    0    0  0.93766132528E+00  0.68908283332E+02 -0.39842862147E+02  0.18319848358E+03  0.16500000000E+03 0.  0.
<mgrwt>
<rscale>  0 0.38346789E+03</rscale>
<asrwt>0</asrwt>
<pdfrwt beam="1">  1        1 0.15048622E-01 0.38346789E+03</pdfrwt>
<pdfrwt beam="2">  1       -1 0.49854598E-01 0.38346789E+03</pdfrwt>
<totfact> 0.15403940E+03</totfact>
</mgrwt>
</event>
<event>
 4    1  0.2559694E-005  0.4901264E+03  0.7818608E-02  0.1016389E+00
          1   -1    0    0  501    0  0.00000000000E+00  0.00000000000E+00  0.22514538617E+03  0.22514538622E+03  0.50400000000E-02 0.  1.
         -1   -1    0    0    0  501 -0.00000000000E+00 -0.00000000000E+00 -0.26674306213E+03  0.26674306217E+03  0.50400000000E-02 0. -1.
    5000001    1    1    2    0    0  0.17402355298E+03  0.47062816118E+02 -0.25162078112E+01  0.24439811160E+03  0.16500000000E+03 0.  0.
   -5000001    1    1    2    0    0 -0.17402355298E+03 -0.47062816118E+02 -0.39081468147E+02  0.24749033679E+03  0.16500000000E+03 0.  0.
<mgrwt>
<rscale>  0 0.49012639E+03</rscale>
<asrwt>0</asrwt>
<pdfrwt beam="1">  1        1 0.32163627E-01 0.49012639E+03</pdfrwt>
<pdfrwt beam="2">  1       -1 0.38106152E-01 0.49012639E+03</pdfrwt>
<totfact> 0.93687117E+02</totfact>
</mgrwt>
</event>
<event>
 4    1  0.2559694E-005  0.8423041E+03  0.7818608E-02  0.9500725E-01
          1   -1    0    0  501    0  0.00000000000E+00  0.00000000000E+00  0.13161678852E+03  0.13161678862E+03  0.50400000000E-02 0. -1.
         -1   -1    0    0    0  501 -0.00000000000E+00 -0.00000000000E+00 -0.13476172461E+04  0.13476172461E+04  0.50400000000E-02 0.  1.
    5000001    1    1    2    0    0 -0.27082259871E+03 -0.25770951045E+03 -0.78696636109E+03  0.88673565691E+03  0.16500000000E+03 0.  0.
   -5000001    1    1    2    0    0  0.27082259871E+03  0.25770951045E+03 -0.42903409644E+03  0.59249837777E+03  0.16500000000E+03 0.  0.
<mgrwt>
<rscale>  0 0.84230411E+03</rscale>
<asrwt>0</asrwt>
<pdfrwt beam="1">  1        1 0.18802399E-01 0.84230411E+03</pdfrwt>
<pdfrwt beam="2">  1       -1 0.19251674E+00 0.84230411E+03</pdfrwt>
<totfact> 0.49061248E+01</totfact>
</mgrwt>
</event>
<event>
 4    1  0.2559694E-005  0.4742945E+03  0.7818608E-02  0.1020715E+00
         -1   -1    0    0    0  501 -0.00000000000E+00  0.00000000000E+00  0.27203153537E+03  0.27203153542E+03  0.50400000000E-02 0.  1.
          1   -1    0    0  501    0  0.00000000000E+00 -0.00000000000E+00 -0.20673643523E+03  0.20673643529E+03  0.50400000000E-02 0. -1.
    5000001    1    1    2    0    0 -0.73940056759E+02 -0.78641958961E+02 -0.10036070146E+03  0.22124411879E+03  0.16500000000E+03 0.  0.
   -5000001    1    1    2    0    0  0.73940056759E+02  0.78641958961E+02  0.16565580160E+03  0.25752385192E+03  0.16500000000E+03 0.  0.
<mgrwt>
<rscale>  0 0.47429455E+03</rscale>
<asrwt>0</asrwt>
<pdfrwt beam="1">  1        1 0.29533776E-01 0.47429455E+03</pdfrwt>
<pdfrwt beam="2">  1       -1 0.38861648E-01 0.47429455E+03</pdfrwt>
<totfact> 0.10092127E+03</totfact>
</mgrwt>
</event>
<event>
 4    1  0.2559694E-005  0.5317348E+03  0.7818608E-02  0.1005812E+00
         -1   -1    0    0    0  501 -0.00000000000E+00  0.00000000000E+00  0.48579786555E+02  0.48579786817E+02  0.50400000000E-02 0. -1.
          1   -1    0    0  501    0  0.00000000000E+00 -0.00000000000E+00 -0.14550386443E+04  0.14550386443E+04  0.50400000000E-02 0.  1.
    5000001    1    1    2    0    0  0.14439999581E+03  0.12668576607E+03 -0.93225749249E+03  0.96603813300E+03  0.16500000000E+03 0.  0.
   -5000001    1    1    2    0    0 -0.14439999581E+03 -0.12668576607E+03 -0.47420136523E+03  0.53758029809E+03  0.16500000000E+03 0.  0.
<mgrwt>
<rscale>  0 0.53173477E+03</rscale>
<asrwt>0</asrwt>
<pdfrwt beam="1">  1        1 0.20786264E+00 0.53173477E+03</pdfrwt>
<pdfrwt beam="2">  1       -1 0.69399704E-02 0.53173477E+03</pdfrwt>
<totfact> 0.95243513E+02</totfact>
</mgrwt>
</event>
<event>
 4    1  0.2559694E-005  0.6244402E+03  0.7818608E-02  0.9855959E-01
          1   -1    0    0  501    0  0.00000000000E+00  0.00000000000E+00  0.18294302546E+03  0.18294302553E+03  0.50400000000E-02 0.  1.
         -1   -1    0    0    0  501 -0.00000000000E+00 -0.00000000000E+00 -0.53285108770E+03  0.53285108772E+03  0.50400000000E-02 0. -1.
    5000001    1    1    2    0    0  0.15514457614E+03  0.16165182766E+03 -0.33728865971E+03  0.43725255044E+03  0.16500000000E+03 0.  0.
   -5000001    1    1    2    0    0 -0.15514457614E+03 -0.16165182766E+03 -0.12619402534E+02  0.27854156281E+03  0.16500000000E+03 0.  0.
<mgrwt>
<rscale>  0 0.62444020E+03</rscale>
<asrwt>0</asrwt>
<pdfrwt beam="1">  1        1 0.26134718E-01 0.62444020E+03</pdfrwt>
<pdfrwt beam="2">  1       -1 0.76121583E-01 0.62444020E+03</pdfrwt>
<totfact> 0.32358895E+02</totfact>
</mgrwt>
</event>
<event>
 4    1  0.2559694E-005  0.5541305E+03  0.7818608E-02  0.1000542E+00
         -1   -1    0    0    0  501 -0.00000000000E+00  0.00000000000E+00  0.59548312570E+02  0.59548312784E+02  0.50400000000E-02 0. -1.
          1   -1    0    0  501    0  0.00000000000E+00 -0.00000000000E+00 -0.12891236787E+04  0.12891236787E+04  0.50400000000E-02 0.  1.
    5000001    1    1    2    0    0 -0.46987816317E+02 -0.21340193602E+03 -0.71781468230E+03  0.76826503194E+03  0.16500000000E+03 0.  0.
   -5000001    1    1    2    0    0  0.46987816317E+02  0.21340193602E+03 -0.51176068380E+03  0.58040695952E+03  0.16500000000E+03 0.  0.
<mgrwt>
<rscale>  0 0.55413045E+03</rscale>
<asrwt>0</asrwt>
<pdfrwt beam="1">  1        1 0.18416051E+00 0.55413045E+03</pdfrwt>
<pdfrwt beam="2">  1       -1 0.85069026E-02 0.55413045E+03</pdfrwt>
<totfact> 0.89057318E+02</totfact>
</mgrwt>
</event>
<event>
 4    1  0.2559694E-005  0.7589534E+03  0.7818608E-02  0.9621408E-01
         -1   -1    0    0    0  501 -0.00000000000E+00  0.00000000000E+00  0.83105102594E+02  0.83105102747E+02  0.50400000000E-02 0. -1.
          1   -1    0    0  501    0  0.00000000000E+00 -0.00000000000E+00 -0.17327766015E+04  0.17327766015E+04  0.50400000000E-02 0.  1.
    5000001    1    1    2    0    0  0.34003886429E+03  0.16249508401E+01 -0.74375096261E+03  0.83427786982E+03  0.16500000000E+03 0.  0.
   -5000001    1    1    2    0    0 -0.34003886429E+03 -0.16249508401E+01 -0.90592053630E+03  0.98160383443E+03  0.16500000000E+03 0.  0.
<mgrwt>
<rscale>  0 0.75895343E+03</rscale>
<asrwt>0</asrwt>
<pdfrwt beam="1">  1        1 0.24753949E+00 0.75895343E+03</pdfrwt>
<pdfrwt beam="2">  1       -1 0.11872159E-01 0.75895343E+03</pdfrwt>
<totfact> 0.26926338E+02</totfact>
</mgrwt>
</event>
<event>
 4    1  0.2559694E-005  0.7634511E+03  0.7818608E-02  0.9614481E-01
         -1   -1    0    0    0  501 -0.00000000000E+00  0.00000000000E+00  0.56228734107E+02  0.56228734333E+02  0.50400000000E-02 0. -1.
          1   -1    0    0  501    0  0.00000000000E+00 -0.00000000000E+00 -0.25914580679E+04  0.25914580679E+04  0.50400000000E-02 0.  1.
    5000001    1    1    2    0    0 -0.30289073012E+01 -0.29485678365E+03 -0.18835203550E+04  0.19135891996E+04  0.16500000000E+03 0.  0.
   -5000001    1    1    2    0    0  0.30289073012E+01  0.29485678365E+03 -0.65170897876E+03  0.73409760260E+03  0.16500000000E+03 0.  0.
<mgrwt>
<rscale>  0 0.76345113E+03</rscale>
<asrwt>0</asrwt>
<pdfrwt beam="1">  1        1 0.37020822E+00 0.76345113E+03</pdfrwt>
<pdfrwt beam="2">  1       -1 0.80326780E-02 0.76345113E+03</pdfrwt>
<totfact> 0.14554938E+02</totfact>
</mgrwt>
</event>
<event>
 4    1  0.2559694E-005  0.7808696E+03  0.7818608E-02  0.9588128E-01
         -1   -1    0    0    0  501 -0.00000000000E+00  0.00000000000E+00  0.26457369559E+03  0.26457369564E+03  0.50400000000E-02 0. -1.
          1   -1    0    0  501    0  0.00000000000E+00 -0.00000000000E+00 -0.57616967916E+03  0.57616967918E+03  0.50400000000E-02 0.  1.
    5000001    1    1    2    0    0  0.90525489528E+02  0.34196266563E+03 -0.16548881486E+03  0.42396329650E+03  0.16500000000E+03 0.  0.
   -5000001    1    1    2    0    0 -0.90525489528E+02 -0.34196266563E+03 -0.14610716871E+03  0.41678007832E+03  0.16500000000E+03 0.  0.
<mgrwt>
<rscale>  0 0.78086962E+03</rscale>
<asrwt>0</asrwt>
<pdfrwt beam="1">  1        1 0.82309954E-01 0.78086962E+03</pdfrwt>
<pdfrwt beam="2">  1       -1 0.37796242E-01 0.78086962E+03</pdfrwt>
<totfact> 0.27505684E+02</totfact>
</mgrwt>
</event>
<event>
 4    1  0.2559694E-005  0.3797148E+03  0.7818608E-02  0.1051039E+00
         -1   -1    0    0    0  501 -0.00000000000E+00  0.00000000000E+00  0.58160281019E+02  0.58160281237E+02  0.50400000000E-02 0. -1.
          1   -1    0    0  501    0  0.00000000000E+00 -0.00000000000E+00 -0.61976712924E+03  0.61976712926E+03  0.50400000000E-02 0.  1.
    5000001    1    1    2    0    0 -0.42137754720E+02 -0.82135572941E+02 -0.31167454449E+03  0.36453787787E+03  0.16500000000E+03 0.  0.
   -5000001    1    1    2    0    0  0.42137754720E+02  0.82135572941E+02 -0.24993230373E+03  0.31338953263E+03  0.16500000000E+03 0.  0.
<mgrwt>
<rscale>  0 0.37971479E+03</rscale>
<asrwt>0</asrwt>
<pdfrwt beam="1">  1        1 0.88538158E-01 0.37971479E+03</pdfrwt>
<pdfrwt beam="2">  1       -1 0.83086119E-02 0.37971479E+03</pdfrwt>
<totfact> 0.30417793E+03</totfact>
</mgrwt>
</event>
<event>
 4    1  0.2559694E-005  0.7390602E+03  0.7818608E-02  0.9652671E-01
          1   -1    0    0  501    0  0.00000000000E+00  0.00000000000E+00  0.46604896041E+03  0.46604896044E+03  0.50400000000E-02 0.  1.
         -1   -1    0    0    0  501 -0.00000000000E+00 -0.00000000000E+00 -0.29300035372E+03  0.29300035377E+03  0.50400000000E-02 0. -1.
    5000001    1    1    2    0    0  0.22353567953E+00  0.33063452868E+03  0.89477621081E+02  0.38019795660E+03  0.16500000000E+03 0.  0.
   -5000001    1    1    2    0    0 -0.22353567953E+00 -0.33063452868E+03  0.83570985605E+02  0.37885135761E+03  0.16500000000E+03 0.  0.
<mgrwt>
<rscale>  0 0.73906024E+03</rscale>
<asrwt>0</asrwt>
<pdfrwt beam="1">  1        1 0.66578422E-01 0.73906024E+03</pdfrwt>
<pdfrwt beam="2">  1       -1 0.41857194E-01 0.73906024E+03</pdfrwt>
<totfact> 0.30576310E+02</totfact>
</mgrwt>
</event>
<event>
 4    1  0.2559694E-005  0.5736285E+03  0.7818608E-02  0.9961681E-01
         -1   -1    0    0    0  501 -0.00000000000E+00  0.00000000000E+00  0.10249039432E+04  0.10249039432E+04  0.50400000000E-02 0. -1.
          1   -1    0    0  501    0  0.00000000000E+00 -0.00000000000E+00 -0.80263544591E+02  0.80263544749E+02  0.50400000000E-02 0.  1.
    5000001    1    1    2    0    0  0.17824969151E+03 -0.12883042452E+03  0.62963473633E+03  0.68704812932E+03  0.16500000000E+03 0.  0.
   -5000001    1    1    2    0    0 -0.17824969151E+03  0.12883042452E+03  0.31500566228E+03  0.41811935865E+03  0.16500000000E+03 0.  0.
<mgrwt>
<rscale>  0 0.57362853E+03</rscale>
<asrwt>0</asrwt>
<pdfrwt beam="1">  1        1 0.11466221E-01 0.57362853E+03</pdfrwt>
<pdfrwt beam="2">  1       -1 0.14641485E+00 0.57362853E+03</pdfrwt>
<totfact> 0.21170962E+02</totfact>
</mgrwt>
</event>
<event>
 4    1  0.2559694E-005  0.5557441E+03  0.7818608E-02  0.1000173E+00
         -1   -1    0    0    0  501 -0.00000000000E+00  0.00000000000E+00  0.80191845018E+02  0.80191845176E+02  0.50400000000E-02 0. -1.
          1   -1    0    0  501    0  0.00000000000E+00 -0.00000000000E+00 -0.96285200425E+03  0.96285200427E+03  0.50400000000E-02 0.  1.
    5000001    1    1    2    0    0  0.11556125662E+03 -0.16036890014E+03 -0.24524463822E+03  0.35558757112E+03  0.16500000000E+03 0.  0.
   -5000001    1    1    2    0    0 -0.11556125662E+03  0.16036890014E+03 -0.63741552102E+03  0.68745627832E+03  0.16500000000E+03 0.  0.
<mgrwt>
<rscale>  0 0.55574411E+03</rscale>
<asrwt>0</asrwt>
<pdfrwt beam="1">  1        1 0.13755028E+00 0.55574411E+03</pdfrwt>
<pdfrwt beam="2">  1       -1 0.11455978E-01 0.55574411E+03</pdfrwt>
<totfact> 0.94536292E+02</totfact>
</mgrwt>
</event>
<event>
 4    1  0.2559694E-005  0.7205892E+03  0.7818608E-02  0.9682656E-01
         -1   -1    0    0    0  501 -0.00000000000E+00  0.00000000000E+00  0.23675587864E+03  0.23675587870E+03  0.50400000000E-02 0. -1.
          1   -1    0    0  501    0  0.00000000000E+00 -0.00000000000E+00 -0.54829558604E+03  0.54829558606E+03  0.50400000000E-02 0.  1.
    5000001    1    1    2    0    0  0.40010341866E+02  0.25839240359E+03  0.45764336554E+02  0.31254893407E+03  0.16500000000E+03 0.  0.
   -5000001    1    1    2    0    0 -0.40010341866E+02 -0.25839240359E+03 -0.35730404395E+03  0.47250253069E+03  0.16500000000E+03 0.  0.
<mgrwt>
<rscale>  0 0.72058921E+03</rscale>
<asrwt>0</asrwt>
<pdfrwt beam="1">  1        1 0.78327941E-01 0.72058921E+03</pdfrwt>
<pdfrwt beam="2">  1       -1 0.33822269E-01 0.72058921E+03</pdfrwt>
<totfact> 0.36018834E+02</totfact>
</mgrwt>
</event>
<event>
 4    1  0.2559694E-005  0.4371063E+03  0.7818608E-02  0.1031638E+00
          1   -1    0    0  501    0  0.00000000000E+00  0.00000000000E+00  0.62291097908E+03  0.62291097910E+03  0.50400000000E-02 0.  1.
         -1   -1    0    0    0  501 -0.00000000000E+00 -0.00000000000E+00 -0.76681065744E+02  0.76681065910E+02  0.50400000000E-02 0. -1.
    5000001    1    1    2    0    0 -0.11247318728E+03 -0.82615542324E+02  0.22088510825E+03  0.30901581956E+03  0.16500000000E+03 0.  0.
   -5000001    1    1    2    0    0  0.11247318728E+03  0.82615542324E+02  0.32534480509E+03  0.39057622546E+03  0.16500000000E+03 0.  0.
<mgrwt>
<rscale>  0 0.43710629E+03</rscale>
<asrwt>0</asrwt>
<pdfrwt beam="1">  1        1 0.88987281E-01 0.43710629E+03</pdfrwt>
<pdfrwt beam="2">  1       -1 0.10954438E-01 0.43710629E+03</pdfrwt>
<totfact> 0.19655260E+03</totfact>
</mgrwt>
</event>
<event>
 4    1  0.2559694E-005  0.4806543E+03  0.7818608E-02  0.1018956E+00
         -1   -1    0    0    0  501 -0.00000000000E+00  0.00000000000E+00  0.63380386175E+02  0.63380386375E+02  0.50400000000E-02 0.  1.
          1   -1    0    0  501    0  0.00000000000E+00 -0.00000000000E+00 -0.91127770788E+03  0.91127770789E+03  0.50400000000E-02 0. -1.
    5000001    1    1    2    0    0 -0.11230294941E+03 -0.13377809899E+03 -0.41409757665E+03  0.47875916200E+03  0.16500000000E+03 0.  0.
   -5000001    1    1    2    0    0  0.11230294941E+03  0.13377809899E+03 -0.43379974506E+03  0.49589893227E+03  0.16500000000E+03 0.  0.
<mgrwt>
<rscale>  0 0.48065428E+03</rscale>
<asrwt>0</asrwt>
<pdfrwt beam="1">  1        1 0.13018252E+00 0.48065428E+03</pdfrwt>
<pdfrwt beam="2">  1       -1 0.90543414E-02 0.48065428E+03</pdfrwt>
<totfact> 0.15006136E+03</totfact>
</mgrwt>
</event>
<event>
 4    1  0.2559694E-005  0.1027246E+04  0.7818608E-02  0.9279156E-01
         -1   -1    0    0    0  501 -0.00000000000E+00  0.00000000000E+00  0.55112247398E+03  0.55112247400E+03  0.50400000000E-02 0.  1.
          1   -1    0    0  501    0  0.00000000000E+00 -0.00000000000E+00 -0.47867522412E+03  0.47867522414E+03  0.50400000000E-02 0. -1.
    5000001    1    1    2    0    0  0.25270517543E+03  0.36743881410E+03 -0.15845576051E+03  0.50120296870E+03  0.16500000000E+03 0.  0.
   -5000001    1    1    2    0    0 -0.25270517543E+03 -0.36743881410E+03  0.23090301037E+03  0.52859472944E+03  0.16500000000E+03 0.  0.
<mgrwt>
<rscale>  0 0.10272462E+04</rscale>
<asrwt>0</asrwt>
<pdfrwt beam="1">  1        1 0.68382175E-01 0.10272462E+04</pdfrwt>
<pdfrwt beam="2">  1       -1 0.78731782E-01 0.10272462E+04</pdfrwt>
<totfact> 0.84191160E+01</totfact>
</mgrwt>
</event>
<event>
 4    1  0.2559694E-005  0.4144339E+03  0.7818608E-02  0.1038893E+00
          1   -1    0    0  501    0  0.00000000000E+00  0.00000000000E+00  0.12947123564E+04  0.12947123564E+04  0.50400000000E-02 0. -1.
         -1   -1    0    0    0  501 -0.00000000000E+00 -0.00000000000E+00 -0.33164784536E+02  0.33164784919E+02  0.50400000000E-02 0.  1.
    5000001    1    1    2    0    0 -0.11864708520E+02  0.12123734519E+03  0.72552946915E+03  0.75396105720E+03  0.16500000000E+03 0.  0.
   -5000001    1    1    2    0    0  0.11864708520E+02 -0.12123734519E+03  0.53601810269E+03  0.57391608410E+03  0.16500000000E+03 0.  0.
<mgrwt>
<rscale>  0 0.41443386E+03</rscale>
<asrwt>0</asrwt>
<pdfrwt beam="1">  1        1 0.18495891E+00 0.41443386E+03</pdfrwt>
<pdfrwt beam="2">  1       -1 0.47378265E-02 0.41443386E+03</pdfrwt>
<totfact> 0.21783476E+03</totfact>
</mgrwt>
</event>
<event>
 4    1  0.2559694E-005  0.6086826E+03  0.7818608E-02  0.9887554E-01
          1   -1    0    0  501    0  0.00000000000E+00  0.00000000000E+00  0.15888398078E+03  0.15888398086E+03  0.50400000000E-02 0.  1.
         -1   -1    0    0    0  501 -0.00000000000E+00 -0.00000000000E+00 -0.58296391082E+03  0.58296391084E+03  0.50400000000E-02 0. -1.
    5000001    1    1    2    0    0 -0.24444021425E+03 -0.21854585290E+02 -0.29967316016E+03  0.42101976695E+03  0.16500000000E+03 0.  0.
   -5000001    1    1    2    0    0  0.24444021425E+03  0.21854585290E+02 -0.12440676988E+03  0.32082812475E+03  0.16500000000E+03 0.  0.
<mgrwt>
<rscale>  0 0.60868260E+03</rscale>
<asrwt>0</asrwt>
<pdfrwt beam="1">  1        1 0.22697712E-01 0.60868260E+03</pdfrwt>
<pdfrwt beam="2">  1       -1 0.83280558E-01 0.60868260E+03</pdfrwt>
<totfact> 0.32194446E+02</totfact>
</mgrwt>
</event>
<event>
 4    1  0.2559694E-005  0.3952295E+03  0.7818608E-02  0.1045444E+00
         -1   -1    0    0    0  501 -0.00000000000E+00  0.00000000000E+00  0.22404923850E+03  0.22404923856E+03  0.50400000000E-02 0. -1.
          1   -1    0    0  501    0  0.00000000000E+00 -0.00000000000E+00 -0.17429912526E+03  0.17429912533E+03  0.50400000000E-02 0.  1.
    5000001    1    1    2    0    0  0.10366027851E+03 -0.25961277789E+02  0.45212121284E+02  0.20171409766E+03  0.16500000000E+03 0.  0.
   -5000001    1    1    2    0    0 -0.10366027851E+03  0.25961277789E+02  0.45379919587E+01  0.19663426623E+03  0.16500000000E+03 0.  0.
<mgrwt>
<rscale>  0 0.39522948E+03</rscale>
<asrwt>0</asrwt>
<pdfrwt beam="1">  1        1 0.24899875E-01 0.39522948E+03</pdfrwt>
<pdfrwt beam="2">  1       -1 0.32007034E-01 0.39522948E+03</pdfrwt>
<totfact> 0.17674547E+03</totfact>
</mgrwt>
</event>
<event>
 4    1  0.2559694E-005  0.3987359E+03  0.7818608E-02  0.1044218E+00
         -1   -1    0    0    0  501 -0.00000000000E+00  0.00000000000E+00  0.32664528748E+03  0.32664528752E+03  0.50400000000E-02 0. -1.
          1   -1    0    0  501    0  0.00000000000E+00 -0.00000000000E+00 -0.12168420109E+03  0.12168420119E+03  0.50400000000E-02 0.  1.
    5000001    1    1    2    0    0  0.96454159043E+02  0.45579639242E+02  0.64489528378E+02  0.20679653667E+03  0.16500000000E+03 0.  0.
   -5000001    1    1    2    0    0 -0.96454159043E+02 -0.45579639242E+02  0.14047155801E+03  0.24153295204E+03  0.16500000000E+03 0.  0.
<mgrwt>
<rscale>  0 0.39873586E+03</rscale>
<asrwt>0</asrwt>
<pdfrwt beam="1">  1        1 0.17383457E-01 0.39873586E+03</pdfrwt>
<pdfrwt beam="2">  1       -1 0.46663613E-01 0.39873586E+03</pdfrwt>
<totfact> 0.14398086E+03</totfact>
</mgrwt>
</event>
<event>
 4    1  0.2559694E-005  0.7708206E+03  0.7818608E-02  0.9603241E-01
         -1   -1    0    0    0  501 -0.00000000000E+00  0.00000000000E+00  0.62684034883E+02  0.62684035085E+02  0.50400000000E-02 0.  1.
          1   -1    0    0  501    0  0.00000000000E+00 -0.00000000000E+00 -0.23696797910E+04  0.23696797910E+04  0.50400000000E-02 0. -1.
    5000001    1    1    2    0    0 -0.15510681443E+02  0.28987244237E+03 -0.17608859736E+04  0.17922642177E+04  0.16500000000E+03 0.  0.
   -5000001    1    1    2    0    0  0.15510681443E+02 -0.28987244237E+03 -0.54610978255E+03  0.64009960840E+03  0.16500000000E+03 0.  0.
<mgrwt>
<rscale>  0 0.77082058E+03</rscale>
<asrwt>0</asrwt>
<pdfrwt beam="1">  1        1 0.33852563E+00 0.77082058E+03</pdfrwt>
<pdfrwt beam="2">  1       -1 0.89548637E-02 0.77082058E+03</pdfrwt>
<totfact> 0.16887129E+02</totfact>
</mgrwt>
</event>
<event>
 4    1  0.2559694E-005  0.5390810E+03  0.7818608E-02  0.1004053E+00
          1   -1    0    0  501    0  0.00000000000E+00  0.00000000000E+00  0.12597982164E+04  0.12597982164E+04  0.50400000000E-02 0.  1.
         -1   -1    0    0    0  501 -0.00000000000E+00 -0.00000000000E+00 -0.57669613935E+02  0.57669614155E+02  0.50400000000E-02 0. -1.
    5000001    1    1    2    0    0 -0.83214137449E+02 -0.14424612951E+03  0.92616499555E+03  0.95537329748E+03  0.16500000000E+03 0.  0.
   -5000001    1    1    2    0    0  0.83214137449E+02  0.14424612951E+03  0.27596360692E+03  0.36209453309E+03  0.16500000000E+03 0.  0.
<mgrwt>
<rscale>  0 0.53908098E+03</rscale>
<asrwt>0</asrwt>
<pdfrwt beam="1">  1        1 0.17997116E+00 0.53908098E+03</pdfrwt>
<pdfrwt beam="2">  1       -1 0.82385169E-02 0.53908098E+03</pdfrwt>
<totfact> 0.98004766E+02</totfact>
</mgrwt>
</event>
<event>
 4    1  0.2559694E-005  0.1201465E+04  0.7818608E-02  0.9111575E-01
         -1   -1    0    0    0  501 -0.00000000000E+00  0.00000000000E+00  0.17011880141E+04  0.17011880141E+04  0.50400000000E-02 0. -1.
          1   -1    0    0  501    0  0.00000000000E+00 -0.00000000000E+00 -0.21213387076E+03  0.21213387082E+03  0.50400000000E-02 0.  1.
    5000001    1    1    2    0    0  0.14267471873E+03 -0.55415677205E+03  0.87000881356E+03  0.10543178548E+04  0.16500000000E+03 0.  0.
   -5000001    1    1    2    0    0 -0.14267471873E+03  0.55415677205E+03  0.61904532977E+03  0.85900403008E+03  0.16500000000E+03 0.  0.
<mgrwt>
<rscale>  0 0.12014651E+04</rscale>
<asrwt>0</asrwt>
<pdfrwt beam="1">  1        1 0.30304840E-01 0.12014651E+04</pdfrwt>
<pdfrwt beam="2">  1       -1 0.24302685E+00 0.12014651E+04</pdfrwt>
<totfact> 0.11663973E+01</totfact>
</mgrwt>
</event>
<event>
 4    1  0.2559694E-005  0.5886286E+03  0.7818608E-02  0.9929283E-01
          1   -1    0    0  501    0  0.00000000000E+00  0.00000000000E+00  0.77815401541E+03  0.77815401542E+03  0.50400000000E-02 0.  1.
         -1   -1    0    0    0  501 -0.00000000000E+00 -0.00000000000E+00 -0.11131590820E+03  0.11131590832E+03  0.50400000000E-02 0. -1.
    5000001    1    1    2    0    0 -0.22475800796E+03 -0.74213401278E+02  0.42116802280E+03  0.51052061124E+03  0.16500000000E+03 0.  0.
   -5000001    1    1    2    0    0  0.22475800796E+03  0.74213401278E+02  0.24567008440E+03  0.37894931250E+03  0.16500000000E+03 0.  0.
<mgrwt>
<rscale>  0 0.58862865E+03</rscale>
<asrwt>0</asrwt>
<pdfrwt beam="1">  1        1 0.11116486E+00 0.58862865E+03</pdfrwt>
<pdfrwt beam="2">  1       -1 0.15902273E-01 0.58862865E+03</pdfrwt>
<totfact> 0.78222017E+02</totfact>
</mgrwt>
</event>
<event>
 4    1  0.2559694E-005  0.4531614E+03  0.7818608E-02  0.1026783E+00
         -1   -1    0    0    0  501 -0.00000000000E+00  0.00000000000E+00  0.27736176845E+02  0.27736177303E+02  0.50400000000E-02 0. -1.
          1   -1    0    0  501    0  0.00000000000E+00 -0.00000000000E+00 -0.18509694302E+04  0.18509694302E+04  0.50400000000E-02 0.  1.
    5000001    1    1    2    0    0 -0.95520101070E+02  0.11791219283E+03 -0.77496686530E+03  0.80673788633E+03  0.16500000000E+03 0.  0.
   -5000001    1    1    2    0    0  0.95520101070E+02 -0.11791219283E+03 -0.10482663880E+04  0.10719677211E+04  0.16500000000E+03 0.  0.
<mgrwt>
<rscale>  0 0.45316141E+03</rscale>
<asrwt>0</asrwt>
<pdfrwt beam="1">  1        1 0.26442413E+00 0.45316141E+03</pdfrwt>
<pdfrwt beam="2">  1       -1 0.39623122E-02 0.45316141E+03</pdfrwt>
<totfact> 0.12695537E+03</totfact>
</mgrwt>
</event>
<event>
 4    1  0.2559694E-005  0.6881143E+03  0.7818608E-02  0.9737777E-01
         -1   -1    0    0    0  501 -0.00000000000E+00  0.00000000000E+00  0.79148397732E+02  0.79148397892E+02  0.50400000000E-02 0. -1.
          1   -1    0    0  501    0  0.00000000000E+00 -0.00000000000E+00 -0.14956121899E+04  0.14956121899E+04  0.50400000000E-02 0.  1.
    5000001    1    1    2    0    0  0.22938238312E+03  0.99049228808E+02 -0.32037545861E+03  0.43851164396E+03  0.16500000000E+03 0.  0.
   -5000001    1    1    2    0    0 -0.22938238312E+03 -0.99049228808E+02 -0.10960883336E+04  0.11362489439E+04  0.16500000000E+03 0.  0.
<mgrwt>
<rscale>  0 0.68811426E+03</rscale>
<asrwt>0</asrwt>
<pdfrwt beam="1">  1        1 0.21365887E+00 0.68811426E+03</pdfrwt>
<pdfrwt beam="2">  1       -1 0.11306915E-01 0.68811426E+03</pdfrwt>
<totfact> 0.41375816E+02</totfact>
</mgrwt>
</event>
<event>
 4    1  0.2559694E-005  0.6588827E+03  0.7818608E-02  0.9790253E-01
          1   -1    0    0  501    0  0.00000000000E+00  0.00000000000E+00  0.13999345233E+04  0.13999345233E+04  0.50400000000E-02 0.  1.
         -1   -1    0    0    0  501 -0.00000000000E+00 -0.00000000000E+00 -0.77526210370E+02  0.77526210534E+02  0.50400000000E-02 0. -1.
    5000001    1    1    2    0    0 -0.88615173299E+01 -0.72225295372E+02  0.42977473383E+02  0.18538361038E+03  0.16500000000E+03 0.  0.
   -5000001    1    1    2    0    0  0.88615173299E+01  0.72225295372E+02  0.12794308396E+04  0.12920771235E+04  0.16500000000E+03 0.  0.
<mgrwt>
<rscale>  0 0.65888275E+03</rscale>
<asrwt>0</asrwt>
<pdfrwt beam="1">  1        1 0.19999065E+00 0.65888275E+03</pdfrwt>
<pdfrwt beam="2">  1       -1 0.11075173E-01 0.65888275E+03</pdfrwt>
<totfact> 0.49416142E+02</totfact>
</mgrwt>
</event>
<event>
 4    1  0.2559694E-005  0.3375510E+03  0.7818608E-02  0.1067844E+00
         -1   -1    0    0    0  501 -0.00000000000E+00  0.00000000000E+00  0.46724612358E+02  0.46724612630E+02  0.50400000000E-02 0. -1.
          1   -1    0    0  501    0  0.00000000000E+00 -0.00000000000E+00 -0.60963940621E+03  0.60963940623E+03  0.50400000000E-02 0.  1.
    5000001    1    1    2    0    0  0.21900522243E+02 -0.27210458380E+02 -0.26914046075E+03  0.31761868574E+03  0.16500000000E+03 0.  0.
   -5000001    1    1    2    0    0 -0.21900522243E+02  0.27210458380E+02 -0.29377433310E+03  0.33874533312E+03  0.16500000000E+03 0.  0.
<mgrwt>
<rscale>  0 0.33755097E+03</rscale>
<asrwt>0</asrwt>
<pdfrwt beam="1">  1        1 0.87091339E-01 0.33755097E+03</pdfrwt>
<pdfrwt beam="2">  1       -1 0.66749450E-02 0.33755097E+03</pdfrwt>
<totfact> 0.43455151E+03</totfact>
</mgrwt>
</event>
<event>
 4    1  0.2559694E-005  0.6417250E+03  0.7818608E-02  0.9822432E-01
         -1   -1    0    0    0  501 -0.00000000000E+00  0.00000000000E+00  0.53531501509E+02  0.53531501746E+02  0.50400000000E-02 0. -1.
          1   -1    0    0  501    0  0.00000000000E+00 -0.00000000000E+00 -0.19232181829E+04  0.19232181830E+04  0.50400000000E-02 0.  1.
    5000001    1    1    2    0    0 -0.18025378801E+03  0.26146381553E+02 -0.29941551134E+03  0.38736250437E+03  0.16500000000E+03 0.  0.
   -5000001    1    1    2    0    0  0.18025378801E+03 -0.26146381553E+02 -0.15702711701E+04  0.15893871803E+04  0.16500000000E+03 0.  0.
<mgrwt>
<rscale>  0 0.64172504E+03</rscale>
<asrwt>0</asrwt>
<pdfrwt beam="1">  1        1 0.27474541E+00 0.64172504E+03</pdfrwt>
<pdfrwt beam="2">  1       -1 0.76473586E-02 0.64172504E+03</pdfrwt>
<totfact> 0.41344090E+02</totfact>
</mgrwt>
</event>
<event>
 4    1  0.2559694E-005  0.5518627E+03  0.7818608E-02  0.1001064E+00
         -1   -1    0    0    0  501 -0.00000000000E+00  0.00000000000E+00  0.29673519435E+03  0.29673519439E+03  0.50400000000E-02 0. -1.
          1   -1    0    0  501    0  0.00000000000E+00 -0.00000000000E+00 -0.25658605024E+03  0.25658605029E+03  0.50400000000E-02 0.  1.
    5000001    1    1    2    0    0 -0.90864470153E+02 -0.19399393455E+03  0.75202730447E+02  0.28066073692E+03  0.16500000000E+03 0.  0.
   -5000001    1    1    2    0    0  0.90864470153E+02  0.19399393455E+03 -0.35053586337E+02  0.27266050776E+03  0.16500000000E+03 0.  0.
<mgrwt>
<rscale>  0 0.55186271E+03</rscale>
<asrwt>0</asrwt>
<pdfrwt beam="1">  1        1 0.36655150E-01 0.55186271E+03</pdfrwt>
<pdfrwt beam="2">  1       -1 0.42390742E-01 0.55186271E+03</pdfrwt>
<totfact> 0.65302930E+02</totfact>
</mgrwt>
</event>
<event>
 4    1  0.2559694E-005  0.5340389E+03  0.7818608E-02  0.1005257E+00
          1   -1    0    0  501    0  0.00000000000E+00  0.00000000000E+00  0.42530789395E+03  0.42530789398E+03  0.50400000000E-02 0.  1.
         -1   -1    0    0    0  501 -0.00000000000E+00 -0.00000000000E+00 -0.16764182916E+03  0.16764182924E+03  0.50400000000E-02 0. -1.
    5000001    1    1    2    0    0 -0.20202266935E+03 -0.72051251721E+01  0.19173315728E+03  0.32380808569E+03  0.16500000000E+03 0.  0.
   -5000001    1    1    2    0    0  0.20202266935E+03  0.72051251721E+01  0.65932907505E+02  0.26914163753E+03  0.16500000000E+03 0.  0.
<mgrwt>
<rscale>  0 0.53403892E+03</rscale>
<asrwt>0</asrwt>
<pdfrwt beam="1">  1        1 0.60758270E-01 0.53403892E+03</pdfrwt>
<pdfrwt beam="2">  1       -1 0.23948833E-01 0.53403892E+03</pdfrwt>
<totfact> 0.92332533E+02</totfact>
</mgrwt>
</event>
<event>
 4    1  0.2559694E-005  0.5735624E+03  0.7818608E-02  0.9961826E-01
         -1   -1    0    0    0  501 -0.00000000000E+00  0.00000000000E+00  0.88644440164E+03  0.88644440166E+03  0.50400000000E-02 0. -1.
          1   -1    0    0  501    0  0.00000000000E+00 -0.00000000000E+00 -0.92779020952E+02  0.92779021089E+02  0.50400000000E-02 0.  1.
    5000001    1    1    2    0    0 -0.85880725692E-01 -0.23451647719E+03  0.38911057456E+03  0.48335289870E+03  0.16500000000E+03 0.  0.
   -5000001    1    1    2    0    0  0.85880725692E-01  0.23451647719E+03  0.40455480613E+03  0.49587052404E+03  0.16500000000E+03 0.  0.
<mgrwt>
<rscale>  0 0.57356236E+03</rscale>
<asrwt>0</asrwt>
<pdfrwt beam="1">  1        1 0.13254146E-01 0.57356236E+03</pdfrwt>
<pdfrwt beam="2">  1       -1 0.12663491E+00 0.57356236E+03</pdfrwt>
<totfact> 0.25201145E+02</totfact>
</mgrwt>
</event>
<event>
 4    1  0.2559694E-005  0.6003245E+03  0.7818608E-02  0.9904733E-01
          1   -1    0    0  501    0  0.00000000000E+00  0.00000000000E+00  0.30115493982E+04  0.30115493982E+04  0.50400000000E-02 0.  1.
         -1   -1    0    0    0  501 -0.00000000000E+00 -0.00000000000E+00 -0.29917281015E+02  0.29917281440E+02  0.50400000000E-02 0. -1.
    5000001    1    1    2    0    0 -0.17378935215E+03  0.11589739521E+03  0.21935169125E+04  0.22096100087E+04  0.16500000000E+03 0.  0.
   -5000001    1    1    2    0    0  0.17378935215E+03 -0.11589739521E+03  0.78811520474E+03  0.83185667099E+03  0.16500000000E+03 0.  0.
<mgrwt>
<rscale>  0 0.60032448E+03</rscale>
<asrwt>0</asrwt>
<pdfrwt beam="1">  1        1 0.43022149E+00 0.60032448E+03</pdfrwt>
<pdfrwt beam="2">  1       -1 0.42738959E-02 0.60032448E+03</pdfrwt>
<totfact> 0.21137757E+02</totfact>
</mgrwt>
</event>
<event>
 4    1  0.2559694E-005  0.8226622E+03  0.7818608E-02  0.9527782E-01
         -1   -1    0    0    0  501 -0.00000000000E+00  0.00000000000E+00  0.27857633566E+03  0.27857633570E+03  0.50400000000E-02 0. -1.
          1   -1    0    0  501    0  0.00000000000E+00 -0.00000000000E+00 -0.60734979040E+03  0.60734979043E+03  0.50400000000E-02 0.  1.
    5000001    1    1    2    0    0 -0.26891401854E+02 -0.35359461274E+03 -0.30152149637E+03  0.49385474629E+03  0.16500000000E+03 0.  0.
   -5000001    1    1    2    0    0  0.26891401854E+02  0.35359461274E+03 -0.27251958371E+02  0.39207137984E+03  0.16500000000E+03 0.  0.
<mgrwt>
<rscale>  0 0.82266221E+03</rscale>
<asrwt>0</asrwt>
<pdfrwt beam="1">  1        1 0.86764256E-01 0.82266221E+03</pdfrwt>
<pdfrwt beam="2">  1       -1 0.39796619E-01 0.82266221E+03</pdfrwt>
<totfact> 0.23219707E+02</totfact>
</mgrwt>
</event>
<event>
 4    1  0.2559694E-005  0.4603458E+03  0.7818608E-02  0.1024681E+00
          1   -1    0    0  501    0  0.00000000000E+00  0.00000000000E+00  0.11874573457E+04  0.11874573457E+04  0.50400000000E-02 0.  1.
         -1   -1    0    0    0  501 -0.00000000000E+00 -0.00000000000E+00 -0.44615975977E+02  0.44615976262E+02  0.50400000000E-02 0. -1.
    5000001    1    1    2    0    0 -0.57840114877E+02  0.13232080537E+03  0.75877488149E+03  0.78982187562E+03  0.16500000000E+03 0.  0.
   -5000001    1    1    2    0    0  0.57840114877E+02 -0.13232080537E+03  0.38406648826E+03  0.44225144639E+03  0.16500000000E+03 0.  0.
<mgrwt>
<rscale>  0 0.46034582E+03</rscale>
<asrwt>0</asrwt>
<pdfrwt beam="1">  1        1 0.16963678E+00 0.46034582E+03</pdfrwt>
<pdfrwt beam="2">  1       -1 0.63737104E-02 0.46034582E+03</pdfrwt>
<totfact> 0.16346958E+03</totfact>
</mgrwt>
</event>
<event>
 4    1  0.2559694E-005  0.5710646E+03  0.7818608E-02  0.9967326E-01
         -1   -1    0    0    0  501 -0.00000000000E+00  0.00000000000E+00  0.23596473693E+03  0.23596473698E+03  0.50400000000E-02 0. -1.
          1   -1    0    0  501    0  0.00000000000E+00 -0.00000000000E+00 -0.34551221307E+03  0.34551221310E+03  0.50400000000E-02 0.  1.
    5000001    1    1    2    0    0 -0.36996726755E+01 -0.21878436711E+03  0.26833772508E+02  0.27536401039E+03  0.16500000000E+03 0.  0.
   -5000001    1    1    2    0    0  0.36996726755E+01  0.21878436711E+03 -0.13638124865E+03  0.30611293970E+03  0.16500000000E+03 0.  0.
<mgrwt>
<rscale>  0 0.57106461E+03</rscale>
<asrwt>0</asrwt>
<pdfrwt beam="1">  1        1 0.49358887E-01 0.57106461E+03</pdfrwt>
<pdfrwt beam="2">  1       -1 0.33709248E-01 0.57106461E+03</pdfrwt>
<totfact> 0.67134844E+02</totfact>
</mgrwt>
</event>
<event>
 4    1  0.2559694E-005  0.9248700E+03  0.7818608E-02  0.9395016E-01
         -1   -1    0    0    0  501 -0.00000000000E+00  0.00000000000E+00  0.57677670082E+02  0.57677670302E+02  0.50400000000E-02 0. -1.
          1   -1    0    0  501    0  0.00000000000E+00 -0.00000000000E+00 -0.37076070945E+04  0.37076070945E+04  0.50400000000E-02 0.  1.
    5000001    1    1    2    0    0 -0.32705817083E+03  0.22164703505E+03 -0.11136579463E+04  0.11931276029E+04  0.16500000000E+03 0.  0.
   -5000001    1    1    2    0    0  0.32705817083E+03 -0.22164703505E+03 -0.25362714781E+04  0.25721571620E+04  0.16500000000E+03 0.  0.
<mgrwt>
<rscale>  0 0.92487002E+03</rscale>
<asrwt>0</asrwt>
<pdfrwt beam="1">  1        1 0.52965801E+00 0.92487002E+03</pdfrwt>
<pdfrwt beam="2">  1       -1 0.82396695E-02 0.92487002E+03</pdfrwt>
<totfact> 0.24880398E+01</totfact>
</mgrwt>
</event>
<event>
 4    1  0.2559694E-005  0.5726825E+03  0.7818608E-02  0.9963760E-01
         -1   -1    0    0    0  501 -0.00000000000E+00  0.00000000000E+00  0.39548191776E+03  0.39548191780E+03  0.50400000000E-02 0. -1.
          1   -1    0    0  501    0  0.00000000000E+00 -0.00000000000E+00 -0.20731997336E+03  0.20731997342E+03  0.50400000000E-02 0.  1.
    5000001    1    1    2    0    0  0.18106745371E+03 -0.12261504822E+03  0.63523140301E+01  0.27401683295E+03  0.16500000000E+03 0.  0.
   -5000001    1    1    2    0    0 -0.18106745371E+03  0.12261504822E+03  0.18180963037E+03  0.32878505827E+03  0.16500000000E+03 0.  0.
<mgrwt>
<rscale>  0 0.57268246E+03</rscale>
<asrwt>0</asrwt>
<pdfrwt beam="1">  1        1 0.29617139E-01 0.57268246E+03</pdfrwt>
<pdfrwt beam="2">  1       -1 0.56497417E-01 0.57268246E+03</pdfrwt>
<totfact> 0.50104904E+02</totfact>
</mgrwt>
</event>
<event>
 4    1  0.2559694E-005  0.6895925E+03  0.7818608E-02  0.9735198E-01
          1   -1    0    0  501    0  0.00000000000E+00  0.00000000000E+00  0.13264557582E+04  0.13264557583E+04  0.50400000000E-02 0.  1.
         -1   -1    0    0    0  501 -0.00000000000E+00 -0.00000000000E+00 -0.89625653830E+02  0.89625653972E+02  0.50400000000E-02 0. -1.
    5000001    1    1    2    0    0  0.88622770388E+02  0.18748249856E+03  0.16545187139E+03  0.31241479550E+03  0.16500000000E+03 0.  0.
   -5000001    1    1    2    0    0 -0.88622770388E+02 -0.18748249856E+03  0.10713782330E+04  0.11036666167E+04  0.16500000000E+03 0.  0.
<mgrwt>
<rscale>  0 0.68959253E+03</rscale>
<asrwt>0</asrwt>
<pdfrwt beam="1">  1        1 0.18949366E+00 0.68959253E+03</pdfrwt>
<pdfrwt beam="2">  1       -1 0.12803666E-01 0.68959253E+03</pdfrwt>
<totfact> 0.43751358E+02</totfact>
</mgrwt>
</event>
<event>
 4    1  0.2559694E-005  0.9390150E+03  0.7818608E-02  0.9378083E-01
          1   -1    0    0  501    0  0.00000000000E+00  0.00000000000E+00  0.72008324895E+03  0.72008324897E+03  0.50400000000E-02 0.  1.
         -1   -1    0    0    0  501 -0.00000000000E+00 -0.00000000000E+00 -0.30612752027E+03  0.30612752032E+03  0.50400000000E-02 0. -1.
    5000001    1    1    2    0    0  0.35821074631E+03 -0.24138522420E+03  0.11798846187E+03  0.47720859419E+03  0.16500000000E+03 0.  0.
   -5000001    1    1    2    0    0 -0.35821074631E+03  0.24138522420E+03  0.29596726681E+03  0.54900217509E+03  0.16500000000E+03 0.  0.
<mgrwt>
<rscale>  0 0.93901501E+03</rscale>
<asrwt>0</asrwt>
<pdfrwt beam="1">  1        1 0.10286904E+00 0.93901501E+03</pdfrwt>
<pdfrwt beam="2">  1       -1 0.43732502E-01 0.93901501E+03</pdfrwt>
<totfact> 0.15155828E+02</totfact>
</mgrwt>
</event>
<event>
 4    1  0.2559694E-005  0.5689083E+03  0.7818608E-02  0.9972097E-01
         -1   -1    0    0    0  501 -0.00000000000E+00  0.00000000000E+00  0.60833138000E+02  0.60833138209E+02  0.50400000000E-02 0. -1.
          1   -1    0    0  501    0  0.00000000000E+00 -0.00000000000E+00 -0.13301001359E+04  0.13301001359E+04  0.50400000000E-02 0.  1.
    5000001    1    1    2    0    0 -0.15299574300E+03  0.19200477061E+02 -0.10574896232E+04  0.10813351279E+04  0.16500000000E+03 0.  0.
   -5000001    1    1    2    0    0  0.15299574300E+03 -0.19200477061E+02 -0.21177737469E+03  0.30959814619E+03  0.16500000000E+03 0.  0.
<mgrwt>
<rscale>  0 0.56890831E+03</rscale>
<asrwt>0</asrwt>
<pdfrwt beam="1">  1        1 0.19001429E+00 0.56890831E+03</pdfrwt>
<pdfrwt beam="2">  1       -1 0.86904491E-02 0.56890831E+03</pdfrwt>
<totfact> 0.80857692E+02</totfact>
</mgrwt>
</event>
<event>
 4    1  0.2559694E-005  0.3809929E+03  0.7818608E-02  0.1050567E+00
         -1   -1    0    0    0  501 -0.00000000000E+00  0.00000000000E+00  0.11530771108E+03  0.11530771119E+03  0.50400000000E-02 0.  1.
          1   -1    0    0  501    0  0.00000000000E+00 -0.00000000000E+00 -0.31471351881E+03  0.31471351885E+03  0.50400000000E-02 0. -1.
    5000001    1    1    2    0    0  0.68302821198E+02  0.62257311993E+02 -0.73899478515E+02  0.20304526886E+03  0.16500000000E+03 0.  0.
   -5000001    1    1    2    0    0 -0.68302821198E+02 -0.62257311993E+02 -0.12550632922E+03  0.22697596118E+03  0.16500000000E+03 0.  0.
<mgrwt>
<rscale>  0 0.38099289E+03</rscale>
<asrwt>0</asrwt>
<pdfrwt beam="1">  1        1 0.44959074E-01 0.38099289E+03</pdfrwt>
<pdfrwt beam="2">  1       -1 0.16472530E-01 0.38099289E+03</pdfrwt>
<totfact> 0.25172154E+03</totfact>
</mgrwt>
</event>
<event>
 4    1  0.2559694E-005  0.5055991E+03  0.7818608E-02  0.1012328E+00
          1   -1    0    0  501    0  0.00000000000E+00  0.00000000000E+00  0.84690063036E+03  0.84690063037E+03  0.50400000000E-02 0.  1.
         -1   -1    0    0    0  501 -0.00000000000E+00 -0.00000000000E+00 -0.75460589619E+02  0.75460589788E+02  0.50400000000E-02 0. -1.
    5000001    1    1    2    0    0  0.26246308164E+02  0.13396975411E+03  0.63078625233E+03  0.66614792640E+03  0.16500000000E+03 0.  0.
   -5000001    1    1    2    0    0 -0.26246308164E+02 -0.13396975411E+03  0.14065378840E+03  0.25621329376E+03  0.16500000000E+03 0.  0.
<mgrwt>
<rscale>  0 0.50559913E+03</rscale>
<asrwt>0</asrwt>
<pdfrwt beam="1">  1        1 0.12098580E+00 0.50559913E+03</pdfrwt>
<pdfrwt beam="2">  1       -1 0.10780084E-01 0.50559913E+03</pdfrwt>
<totfact> 0.12816076E+03</totfact>
</mgrwt>
</event>
<event>
 4    1  0.2559694E-005  0.5862875E+03  0.7818608E-02  0.9934271E-01
          1   -1    0    0  501    0  0.00000000000E+00  0.00000000000E+00  0.21860367517E+03  0.21860367523E+03  0.50400000000E-02 0.  1.
         -1   -1    0    0    0  501 -0.00000000000E+00 -0.00000000000E+00 -0.39310065179E+03  0.39310065182E+03  0.50400000000E-02 0. -1.
    5000001    1    1    2    0    0 -0.14491523700E+03 -0.18953560642E+03 -0.43179049085E+02  0.29328075677E+03  0.16500000000E+03 0.  0.
   -5000001    1    1    2    0    0  0.14491523700E+03  0.18953560642E+03 -0.13131792754E+03  0.31842357028E+03  0.16500000000E+03 0.  0.
<mgrwt>
<rscale>  0 0.58628746E+03</rscale>
<asrwt>0</asrwt>
<pdfrwt beam="1">  1        1 0.31229097E-01 0.58628746E+03</pdfrwt>
<pdfrwt beam="2">  1       -1 0.56157236E-01 0.58628746E+03</pdfrwt>
<totfact> 0.47325674E+02</totfact>
</mgrwt>
</event>
<event>
 4    1  0.2559694E-005  0.5632148E+03  0.7818608E-02  0.9984807E-01
          1   -1    0    0  501    0  0.00000000000E+00  0.00000000000E+00  0.18740793667E+03  0.18740793674E+03  0.50400000000E-02 0.  1.
         -1   -1    0    0    0  501 -0.00000000000E+00 -0.00000000000E+00 -0.42315566915E+03  0.42315566918E+03  0.50400000000E-02 0. -1.
    5000001    1    1    2    0    0  0.13528020609E+03  0.12279410531E+03 -0.26611251355E+03  0.36251895996E+03  0.16500000000E+03 0.  0.
   -5000001    1    1    2    0    0 -0.13528020609E+03 -0.12279410531E+03  0.30364781071E+02  0.24804464596E+03  0.16500000000E+03 0.  0.
<mgrwt>
<rscale>  0 0.56321481E+03</rscale>
<asrwt>0</asrwt>
<pdfrwt beam="1">  1        1 0.26772563E-01 0.56321481E+03</pdfrwt>
<pdfrwt beam="2">  1       -1 0.60450809E-01 0.56321481E+03</pdfrwt>
<totfact> 0.50061835E+02</totfact>
</mgrwt>
</event>
<event>
 4    1  0.2559694E-005  0.6497214E+03  0.7818608E-02  0.9807302E-01
          1   -1    0    0  501    0  0.00000000000E+00  0.00000000000E+00  0.86258061756E+03  0.86258061758E+03  0.50400000000E-02 0.  1.
         -1   -1    0    0    0  501 -0.00000000000E+00 -0.00000000000E+00 -0.12234739010E+03  0.12234739020E+03  0.50400000000E-02 0. -1.
    5000001    1    1    2    0    0 -0.17519407739E+03 -0.59510977160E+02  0.51863044285E+02  0.25327711408E+03  0.16500000000E+03 0.  0.
   -5000001    1    1    2    0    0  0.17519407739E+03  0.59510977160E+02  0.68837018318E+03  0.73165089370E+03  0.16500000000E+03 0.  0.
<mgrwt>
<rscale>  0 0.64972144E+03</rscale>
<asrwt>0</asrwt>
<pdfrwt beam="1">  1        1 0.12322580E+00 0.64972144E+03</pdfrwt>
<pdfrwt beam="2">  1       -1 0.17478199E-01 0.64972144E+03</pdfrwt>
<totfact> 0.57013018E+02</totfact>
</mgrwt>
</event>
<event>
 4    1  0.2559694E-005  0.6282647E+03  0.7818608E-02  0.9848441E-01
          1   -1    0    0  501    0  0.00000000000E+00  0.00000000000E+00  0.76244475016E+03  0.76244475018E+03  0.50400000000E-02 0.  1.
         -1   -1    0    0    0  501 -0.00000000000E+00 -0.00000000000E+00 -0.12942464502E+03  0.12942464512E+03  0.50400000000E-02 0. -1.
    5000001    1    1    2    0    0 -0.21790959345E+03 -0.14967468450E+03  0.37270515934E+03  0.48582017032E+03  0.16500000000E+03 0.  0.
   -5000001    1    1    2    0    0  0.21790959345E+03  0.14967468450E+03  0.26031494580E+03  0.40604922498E+03  0.16500000000E+03 0.  0.
<mgrwt>
<rscale>  0 0.62826473E+03</rscale>
<asrwt>0</asrwt>
<pdfrwt beam="1">  1        1 0.10892068E+00 0.62826473E+03</pdfrwt>
<pdfrwt beam="2">  1       -1 0.18489235E-01 0.62826473E+03</pdfrwt>
<totfact> 0.62961582E+02</totfact>
</mgrwt>
</event>
<event>
 4    1  0.2559694E-005  0.5073277E+03  0.7818608E-02  0.1011884E+00
          1   -1    0    0  501    0  0.00000000000E+00  0.00000000000E+00  0.15581488015E+04  0.15581488015E+04  0.50400000000E-02 0.  1.
         -1   -1    0    0    0  501 -0.00000000000E+00 -0.00000000000E+00 -0.41296030124E+02  0.41296030432E+02  0.50400000000E-02 0. -1.
    5000001    1    1    2    0    0 -0.72180136754E+02 -0.17862734307E+03  0.75328425970E+03  0.79484581886E+03  0.16500000000E+03 0.  0.
   -5000001    1    1    2    0    0  0.72180136754E+02  0.17862734307E+03  0.76356851164E+03  0.80459901305E+03  0.16500000000E+03 0.  0.
<mgrwt>
<rscale>  0 0.50732774E+03</rscale>
<asrwt>0</asrwt>
<pdfrwt beam="1">  1        1 0.22259269E+00 0.50732774E+03</pdfrwt>
<pdfrwt beam="2">  1       -1 0.58994327E-02 0.50732774E+03</pdfrwt>
<totfact> 0.10522355E+03</totfact>
</mgrwt>
</event>
<event>
 4    1  0.2559694E-005  0.5216477E+03  0.7818608E-02  0.1008278E+00
          1   -1    0    0  501    0  0.00000000000E+00  0.00000000000E+00  0.45043209459E+03  0.45043209462E+03  0.50400000000E-02 0.  1.
         -1   -1    0    0    0  501 -0.00000000000E+00 -0.00000000000E+00 -0.15103068469E+03  0.15103068478E+03  0.50400000000E-02 0. -1.
    5000001    1    1    2    0    0  0.61810064539E+02  0.16337886212E+03  0.26666648869E+03  0.35895564191E+03  0.16500000000E+03 0.  0.
   -5000001    1    1    2    0    0 -0.61810064539E+02 -0.16337886212E+03  0.32734921208E+02  0.24250713749E+03  0.16500000000E+03 0.  0.
<mgrwt>
<rscale>  0 0.52164765E+03</rscale>
<asrwt>0</asrwt>
<pdfrwt beam="1">  1        1 0.64347442E-01 0.52164765E+03</pdfrwt>
<pdfrwt beam="2">  1       -1 0.21575812E-01 0.52164765E+03</pdfrwt>
<totfact> 0.10198698E+03</totfact>
</mgrwt>
</event>
<event>
 4    1  0.2559694E-005  0.6538414E+03  0.7818608E-02  0.9799598E-01
          1   -1    0    0  501    0  0.00000000000E+00  0.00000000000E+00  0.31180771401E+04  0.31180771401E+04  0.50400000000E-02 0.  1.
         -1   -1    0    0    0  501 -0.00000000000E+00 -0.00000000000E+00 -0.34276614268E+02  0.34276614638E+02  0.50400000000E-02 0. -1.
    5000001    1    1    2    0    0  0.27893154644E+00  0.22558597179E+03  0.23595735363E+04  0.23760684716E+04  0.16500000000E+03 0.  0.
   -5000001    1    1    2    0    0 -0.27893154644E+00 -0.22558597179E+03  0.72422698952E+03  0.77628528314E+03  0.16500000000E+03 0.  0.
<mgrwt>
<rscale>  0 0.65384135E+03</rscale>
<asrwt>0</asrwt>
<pdfrwt beam="1">  1        1 0.44543966E+00 0.65384135E+03</pdfrwt>
<pdfrwt beam="2">  1       -1 0.48966585E-02 0.65384135E+03</pdfrwt>
<totfact> 0.14551107E+02</totfact>
</mgrwt>
</event>
<event>
 4    1  0.2559694E-005  0.7614261E+03  0.7818608E-02  0.9617593E-01
         -1   -1    0    0    0  501 -0.00000000000E+00  0.00000000000E+00  0.17685202644E+03  0.17685202651E+03  0.50400000000E-02 0. -1.
          1   -1    0    0  501    0  0.00000000000E+00 -0.00000000000E+00 -0.81956895532E+03  0.81956895533E+03  0.50400000000E-02 0.  1.
    5000001    1    1    2    0    0 -0.26340436405E+03 -0.21946649366E+03 -0.33842233585E+03  0.50921712289E+03  0.16500000000E+03 0.  0.
   -5000001    1    1    2    0    0  0.26340436405E+03  0.21946649366E+03 -0.30429459302E+03  0.48720385896E+03  0.16500000000E+03 0.  0.
<mgrwt>
<rscale>  0 0.76142611E+03</rscale>
<asrwt>0</asrwt>
<pdfrwt beam="1">  1        1 0.11708128E+00 0.76142611E+03</pdfrwt>
<pdfrwt beam="2">  1       -1 0.25264576E-01 0.76142611E+03</pdfrwt>
<totfact> 0.33211070E+02</totfact>
</mgrwt>
</event>
<event>
 4    1  0.2559694E-005  0.3506503E+03  0.7818608E-02  0.1062348E+00
          1   -1    0    0  501    0  0.00000000000E+00  0.00000000000E+00  0.42369689020E+02  0.42369689320E+02  0.50400000000E-02 0.  1.
         -1   -1    0    0    0  501 -0.00000000000E+00 -0.00000000000E+00 -0.72549301101E+03  0.72549301103E+03  0.50400000000E-02 0. -1.
    5000001    1    1    2    0    0 -0.50934643748E+02  0.19699243136E+02 -0.29107609916E+03  0.33901724678E+03  0.16500000000E+03 0.  0.
   -5000001    1    1    2    0    0  0.50934643748E+02 -0.19699243136E+02 -0.39204722283E+03  0.42884545356E+03  0.16500000000E+03 0.  0.
<mgrwt>
<rscale>  0 0.35065033E+03</rscale>
<asrwt>0</asrwt>
<pdfrwt beam="1">  1        1 0.60528132E-02 0.35065033E+03</pdfrwt>
<pdfrwt beam="2">  1       -1 0.10364185E+00 0.35065033E+03</pdfrwt>
<totfact> 0.11915085E+03</totfact>
</mgrwt>
</event>
<event>
 4    1  0.2559694E-005  0.4606078E+03  0.7818608E-02  0.1024605E+00
         -1   -1    0    0    0  501 -0.00000000000E+00  0.00000000000E+00  0.47707845629E+03  0.47707845631E+03  0.50400000000E-02 0.  1.
          1   -1    0    0  501    0  0.00000000000E+00 -0.00000000000E+00 -0.11117646491E+03  0.11117646502E+03  0.50400000000E-02 0. -1.
    5000001    1    1    2    0    0 -0.25121623302E+02 -0.15657717762E+03  0.14995787718E+03  0.27360532422E+03  0.16500000000E+03 0.  0.
   -5000001    1    1    2    0    0  0.25121623302E+02  0.15657717762E+03  0.21594411420E+03  0.31464959712E+03  0.16500000000E+03 0.  0.
<mgrwt>
<rscale>  0 0.46060784E+03</rscale>
<asrwt>0</asrwt>
<pdfrwt beam="1">  1        1 0.15882352E-01 0.46060784E+03</pdfrwt>
<pdfrwt beam="2">  1       -1 0.68154065E-01 0.46060784E+03</pdfrwt>
<totfact> 0.78380349E+02</totfact>
</mgrwt>
</event>
<event>
 4    1  0.2559694E-005  0.5355136E+03  0.7818608E-02  0.1004904E+00
         -1   -1    0    0    0  501 -0.00000000000E+00  0.00000000000E+00  0.23291917108E+03  0.23291917113E+03  0.50400000000E-02 0. -1.
          1   -1    0    0  501    0  0.00000000000E+00 -0.00000000000E+00 -0.30780510997E+03  0.30780511001E+03  0.50400000000E-02 0.  1.
    5000001    1    1    2    0    0 -0.20016860749E+03 -0.40737284199E+02 -0.90313828724E+02  0.27768432690E+03  0.16500000000E+03 0.  0.
   -5000001    1    1    2    0    0  0.20016860749E+03  0.40737284199E+02  0.15427889830E+02  0.26303995425E+03  0.16500000000E+03 0.  0.
<mgrwt>
<rscale>  0 0.53551363E+03</rscale>
<asrwt>0</asrwt>
<pdfrwt beam="1">  1        1 0.43972158E-01 0.53551363E+03</pdfrwt>
<pdfrwt beam="2">  1       -1 0.33274167E-01 0.53551363E+03</pdfrwt>
<totfact> 0.79749158E+02</totfact>
</mgrwt>
</event>
<event>
 4    1  0.2559694E-005  0.4814311E+03  0.7818608E-02  0.1018743E+00
          1   -1    0    0  501    0  0.00000000000E+00  0.00000000000E+00  0.65089203669E+02  0.65089203864E+02  0.50400000000E-02 0.  1.
         -1   -1    0    0    0  501 -0.00000000000E+00 -0.00000000000E+00 -0.89022401532E+03  0.89022401533E+03  0.50400000000E-02 0. -1.
    5000001    1    1    2    0    0 -0.15325102740E+02 -0.15046005108E+03 -0.23680229489E+03  0.32584261939E+03  0.16500000000E+03 0.  0.
   -5000001    1    1    2    0    0  0.15325102740E+02  0.15046005108E+03 -0.58833251676E+03  0.62947059981E+03  0.16500000000E+03 0.  0.
<mgrwt>
<rscale>  0 0.48143108E+03</rscale>
<asrwt>0</asrwt>
<pdfrwt beam="1">  1        1 0.92984582E-02 0.48143108E+03</pdfrwt>
<pdfrwt beam="2">  1       -1 0.12717485E+00 0.48143108E+03</pdfrwt>
<totfact> 0.40550565E+02</totfact>
</mgrwt>
</event>
<event>
 4    1  0.2559694E-005  0.4939174E+03  0.7818608E-02  0.1015379E+00
         -1   -1    0    0    0  501 -0.00000000000E+00  0.00000000000E+00  0.24856177872E+03  0.24856177878E+03  0.50400000000E-02 0. -1.
          1   -1    0    0  501    0  0.00000000000E+00 -0.00000000000E+00 -0.24536595995E+03  0.24536596000E+03  0.50400000000E-02 0.  1.
    5000001    1    1    2    0    0  0.12498325915E+03  0.12921329116E+03  0.39634343989E+02  0.24720997331E+03  0.16500000000E+03 0.  0.
   -5000001    1    1    2    0    0 -0.12498325915E+03 -0.12921329116E+03 -0.36438525214E+02  0.24671776547E+03  0.16500000000E+03 0.  0.
<mgrwt>
<rscale>  0 0.49391740E+03</rscale>
<asrwt>0</asrwt>
<pdfrwt beam="1">  1        1 0.35052280E-01 0.49391740E+03</pdfrwt>
<pdfrwt beam="2">  1       -1 0.35508826E-01 0.49391740E+03</pdfrwt>
<totfact> 0.95129446E+02</totfact>
</mgrwt>
</event>
<event>
 4    1  0.2559694E-005  0.3402936E+03  0.7818608E-02  0.1066671E+00
          1   -1    0    0  501    0  0.00000000000E+00  0.00000000000E+00  0.29928531544E+03  0.29928531548E+03  0.50400000000E-02 0. -1.
         -1   -1    0    0    0  501 -0.00000000000E+00 -0.00000000000E+00 -0.96730206803E+02  0.96730206935E+02  0.50400000000E-02 0.  1.
    5000001    1    1    2    0    0  0.31681882185E+02  0.25639340514E+02  0.11057392002E+03  0.20276269191E+03  0.16500000000E+03 0.  0.
   -5000001    1    1    2    0    0 -0.31681882185E+02 -0.25639340514E+02  0.91981188614E+02  0.19325283051E+03  0.16500000000E+03 0.  0.
<mgrwt>
<rscale>  0 0.34029358E+03</rscale>
<asrwt>0</asrwt>
<pdfrwt beam="1">  1        1 0.42755045E-01 0.34029358E+03</pdfrwt>
<pdfrwt beam="2">  1       -1 0.13818601E-01 0.34029358E+03</pdfrwt>
<totfact> 0.35459096E+03</totfact>
</mgrwt>
</event>
<event>
 4    1  0.2559694E-005  0.4982899E+03  0.7818608E-02  0.1014226E+00
          1   -1    0    0  501    0  0.00000000000E+00  0.00000000000E+00  0.21672286923E+02  0.21672287509E+02  0.50400000000E-02 0.  1.
         -1   -1    0    0    0  501 -0.00000000000E+00 -0.00000000000E+00 -0.28641742574E+04  0.28641742574E+04  0.50400000000E-02 0. -1.
    5000001    1    1    2    0    0  0.16029447673E+03 -0.67436132597E+02 -0.18143167115E+04  0.18300852660E+04  0.16500000000E+03 0.  0.
   -5000001    1    1    2    0    0 -0.16029447673E+03  0.67436132597E+02 -0.10281852590E+04  0.10557612790E+04  0.16500000000E+03 0.  0.
<mgrwt>
<rscale>  0 0.49828990E+03</rscale>
<asrwt>0</asrwt>
<pdfrwt beam="1">  1        1 0.30960429E-02 0.49828990E+03</pdfrwt>
<pdfrwt beam="2">  1       -1 0.40916751E+00 0.49828990E+03</pdfrwt>
<totfact> 0.23880247E+01</totfact>
</mgrwt>
</event>
<event>
 4    1  0.2559694E-005  0.4870226E+03  0.7818608E-02  0.1017223E+00
         -1   -1    0    0    0  501 -0.00000000000E+00  0.00000000000E+00  0.18690487108E+04  0.18690487108E+04  0.50400000000E-02 0. -1.
          1   -1    0    0  501    0  0.00000000000E+00 -0.00000000000E+00 -0.31726166856E+02  0.31726167257E+02  0.50400000000E-02 0.  1.
    5000001    1    1    2    0    0  0.15906673737E+03 -0.35996431599E+02  0.12074398508E+04  0.12295259100E+04  0.16500000000E+03 0.  0.
   -5000001    1    1    2    0    0 -0.15906673737E+03  0.35996431599E+02  0.62988269312E+03  0.67124896806E+03  0.16500000000E+03 0.  0.
<mgrwt>
<rscale>  0 0.48702259E+03</rscale>
<asrwt>0</asrwt>
<pdfrwt beam="1">  1        1 0.45323103E-02 0.48702259E+03</pdfrwt>
<pdfrwt beam="2">  1       -1 0.26700692E+00 0.48702259E+03</pdfrwt>
<totfact> 0.11614361E+02</totfact>
</mgrwt>
</event>
<event>
 4    1  0.2559694E-005  0.6094281E+03  0.7818608E-02  0.9886037E-01
          1   -1    0    0  501    0  0.00000000000E+00  0.00000000000E+00  0.50945882586E+03  0.50945882588E+03  0.50400000000E-02 0.  1.
         -1   -1    0    0    0  501 -0.00000000000E+00 -0.00000000000E+00 -0.18225346723E+03  0.18225346730E+03  0.50400000000E-02 0. -1.
    5000001    1    1    2    0    0 -0.59215927654E+02  0.18224999010E+03  0.35656940252E+03  0.43713650476E+03  0.16500000000E+03 0.  0.
   -5000001    1    1    2    0    0  0.59215927654E+02 -0.18224999010E+03 -0.29364043897E+02  0.25457578843E+03  0.16500000000E+03 0.  0.
<mgrwt>
<rscale>  0 0.60942805E+03</rscale>
<asrwt>0</asrwt>
<pdfrwt beam="1">  1        1 0.72779834E-01 0.60942805E+03</pdfrwt>
<pdfrwt beam="2">  1       -1 0.26036209E-01 0.60942805E+03</pdfrwt>
<totfact> 0.62946232E+02</totfact>
</mgrwt>
</event>
<event>
 4    1  0.2559694E-005  0.3981411E+03  0.7818608E-02  0.1044425E+00
         -1   -1    0    0    0  501 -0.00000000000E+00  0.00000000000E+00  0.18565623490E+02  0.18565624174E+02  0.50400000000E-02 0. -1.
          1   -1    0    0  501    0  0.00000000000E+00 -0.00000000000E+00 -0.21345408293E+04  0.21345408293E+04  0.50400000000E-02 0.  1.
    5000001    1    1    2    0    0 -0.68316625155E+02  0.29669431110E+02 -0.61018732939E+03  0.63647546171E+03  0.16500000000E+03 0.  0.
   -5000001    1    1    2    0    0  0.68316625155E+02 -0.29669431110E+02 -0.15057878764E+04  0.15166309918E+04  0.16500000000E+03 0.  0.
<mgrwt>
<rscale>  0 0.39814109E+03</rscale>
<asrwt>0</asrwt>
<pdfrwt beam="1">  1        1 0.30493425E+00 0.39814109E+03</pdfrwt>
<pdfrwt beam="2">  1       -1 0.26522333E-02 0.39814109E+03</pdfrwt>
<totfact> 0.15574532E+03</totfact>
</mgrwt>
</event>
<event>
 4    1  0.2559694E-005  0.6212690E+03  0.7818608E-02  0.9862236E-01
          1   -1    0    0  501    0  0.00000000000E+00  0.00000000000E+00  0.24299393771E+04  0.24299393771E+04  0.50400000000E-02 0.  1.
         -1   -1    0    0    0  501 -0.00000000000E+00 -0.00000000000E+00 -0.39710371606E+02  0.39710371925E+02  0.50400000000E-02 0. -1.
    5000001    1    1    2    0    0  0.10451178019E+03 -0.15028971858E+03  0.44340702886E+03  0.50729134129E+03  0.16500000000E+03 0.  0.
   -5000001    1    1    2    0    0 -0.10451178019E+03  0.15028971858E+03  0.19468219767E+04  0.19623584078E+04  0.16500000000E+03 0.  0.
<mgrwt>
<rscale>  0 0.62126901E+03</rscale>
<asrwt>0</asrwt>
<pdfrwt beam="1">  1        1 0.34713430E+00 0.62126901E+03</pdfrwt>
<pdfrwt beam="2">  1       -1 0.56729086E-02 0.62126901E+03</pdfrwt>
<totfact> 0.31931025E+02</totfact>
</mgrwt>
</event>
<event>
 4    1  0.2559694E-005  0.4826941E+03  0.7818608E-02  0.1018397E+00
         -1   -1    0    0    0  501 -0.00000000000E+00  0.00000000000E+00  0.21771523503E+02  0.21771524086E+02  0.50400000000E-02 0. -1.
          1   -1    0    0  501    0  0.00000000000E+00 -0.00000000000E+00 -0.26754392784E+04  0.26754392784E+04  0.50400000000E-02 0.  1.
    5000001    1    1    2    0    0  0.12871109585E+03 -0.51026878053E+02 -0.71847628469E+03  0.75006897026E+03  0.16500000000E+03 0.  0.
   -5000001    1    1    2    0    0 -0.12871109585E+03  0.51026878053E+02 -0.19351914702E+04  0.19471418322E+04  0.16500000000E+03 0.  0.
<mgrwt>
<rscale>  0 0.48269406E+03</rscale>
<asrwt>0</asrwt>
<pdfrwt beam="1">  1        1 0.38220540E+00 0.48269406E+03</pdfrwt>
<pdfrwt beam="2">  1       -1 0.31102194E-02 0.48269406E+03</pdfrwt>
<totfact> 0.56601653E+02</totfact>
</mgrwt>
</event>
<event>
 4    1  0.2559694E-005  0.3801302E+03  0.7818608E-02  0.1050886E+00
          1   -1    0    0  501    0  0.00000000000E+00  0.00000000000E+00  0.36243737891E+03  0.36243737895E+03  0.50400000000E-02 0.  1.
         -1   -1    0    0    0  501 -0.00000000000E+00 -0.00000000000E+00 -0.99671660885E+02  0.99671661012E+02  0.50400000000E-02 0. -1.
    5000001    1    1    2    0    0 -0.67269447377E+02  0.26060236174E+02  0.20528280102E+03  0.27307570902E+03  0.16500000000E+03 0.  0.
   -5000001    1    1    2    0    0  0.67269447377E+02 -0.26060236174E+02  0.57482917005E+02  0.18903333094E+03  0.16500000000E+03 0.  0.
<mgrwt>
<rscale>  0 0.38013016E+03</rscale>
<asrwt>0</asrwt>
<pdfrwt beam="1">  1        1 0.51776769E-01 0.38013016E+03</pdfrwt>
<pdfrwt beam="2">  1       -1 0.14238808E-01 0.38013016E+03</pdfrwt>
<totfact> 0.26561172E+03</totfact>
</mgrwt>
</event>
<event>
 4    1  0.2559694E-005  0.5512618E+03  0.7818608E-02  0.1001202E+00
         -1   -1    0    0    0  501 -0.00000000000E+00  0.00000000000E+00  0.72307478046E+02  0.72307478221E+02  0.50400000000E-02 0. -1.
          1   -1    0    0  501    0  0.00000000000E+00 -0.00000000000E+00 -0.10506850545E+04  0.10506850545E+04  0.50400000000E-02 0.  1.
    5000001    1    1    2    0    0  0.21702289669E+03 -0.37788859552E+02 -0.51943528283E+03  0.58784772573E+03  0.16500000000E+03 0.  0.
   -5000001    1    1    2    0    0 -0.21702289669E+03  0.37788859552E+02 -0.45894229365E+03  0.53514480703E+03  0.16500000000E+03 0.  0.
<mgrwt>
<rscale>  0 0.55126178E+03</rscale>
<asrwt>0</asrwt>
<pdfrwt beam="1">  1        1 0.15009786E+00 0.55126178E+03</pdfrwt>
<pdfrwt beam="2">  1       -1 0.10329640E-01 0.55126178E+03</pdfrwt>
<totfact> 0.95978387E+02</totfact>
</mgrwt>
</event>
<event>
 4    1  0.2559694E-005  0.4406933E+03  0.7818608E-02  0.1030534E+00
          1   -1    0    0  501    0  0.00000000000E+00  0.00000000000E+00  0.99100960384E+03  0.99100960386E+03  0.50400000000E-02 0.  1.
         -1   -1    0    0    0  501 -0.00000000000E+00 -0.00000000000E+00 -0.48993106031E+02  0.48993106290E+02  0.50400000000E-02 0. -1.
    5000001    1    1    2    0    0 -0.86412158308E+02 -0.11773069673E+03  0.47158959861E+03  0.52052793159E+03  0.16500000000E+03 0.  0.
   -5000001    1    1    2    0    0  0.86412158308E+02  0.11773069673E+03  0.47042689921E+03  0.51947477855E+03  0.16500000000E+03 0.  0.
<mgrwt>
<rscale>  0 0.44069327E+03</rscale>
<asrwt>0</asrwt>
<pdfrwt beam="1">  1        1 0.14157280E+00 0.44069327E+03</pdfrwt>
<pdfrwt beam="2">  1       -1 0.69990153E-02 0.44069327E+03</pdfrwt>
<totfact> 0.19488037E+03</totfact>
</mgrwt>
</event>
<event>
 4    1  0.2559694E-005  0.3549877E+03  0.7818608E-02  0.1060586E+00
         -1   -1    0    0    0  501 -0.00000000000E+00  0.00000000000E+00  0.91470579552E+02  0.91470579691E+02  0.50400000000E-02 0. -1.
          1   -1    0    0  501    0  0.00000000000E+00 -0.00000000000E+00 -0.34441757673E+03  0.34441757677E+03  0.50400000000E-02 0.  1.
    5000001    1    1    2    0    0  0.31395856348E+02  0.57380073334E+02 -0.12764017984E+03  0.21862110630E+03  0.16500000000E+03 0.  0.
   -5000001    1    1    2    0    0 -0.31395856348E+02 -0.57380073334E+02 -0.12530681734E+03  0.21726705015E+03  0.16500000000E+03 0.  0.
<mgrwt>
<rscale>  0 0.35498775E+03</rscale>
<asrwt>0</asrwt>
<pdfrwt beam="1">  1        1 0.49202510E-01 0.35498775E+03</pdfrwt>
<pdfrwt beam="2">  1       -1 0.13067226E-01 0.35498775E+03</pdfrwt>
<totfact> 0.32451098E+03</totfact>
</mgrwt>
</event>
<event>
 4    1  0.2559694E-005  0.3750890E+03  0.7818608E-02  0.1052764E+00
         -1   -1    0    0    0  501 -0.00000000000E+00  0.00000000000E+00  0.16248558795E+03  0.16248558803E+03  0.50400000000E-02 0. -1.
          1   -1    0    0  501    0  0.00000000000E+00 -0.00000000000E+00 -0.21646808185E+03  0.21646808191E+03  0.50400000000E-02 0.  1.
    5000001    1    1    2    0    0 -0.78931697158E+01 -0.65500950572E+02  0.33587088191E+02  0.18084736423E+03  0.16500000000E+03 0.  0.
   -5000001    1    1    2    0    0  0.78931697158E+01  0.65500950572E+02 -0.87569582091E+02  0.19810630571E+03  0.16500000000E+03 0.  0.
<mgrwt>
<rscale>  0 0.37508902E+03</rscale>
<asrwt>0</asrwt>
<pdfrwt beam="1">  1        1 0.30924012E-01 0.37508902E+03</pdfrwt>
<pdfrwt beam="2">  1       -1 0.23212227E-01 0.37508902E+03</pdfrwt>
<totfact> 0.23085247E+03</totfact>
</mgrwt>
</event>
<event>
 4    1  0.2559694E-005  0.5831812E+03  0.7818608E-02  0.9940927E-01
         -1   -1    0    0    0  501 -0.00000000000E+00  0.00000000000E+00  0.79964925385E+03  0.79964925386E+03  0.50400000000E-02 0. -1.
          1   -1    0    0  501    0  0.00000000000E+00 -0.00000000000E+00 -0.10632796285E+03  0.10632796297E+03  0.50400000000E-02 0.  1.
    5000001    1    1    2    0    0 -0.34812412783E+02  0.23495257718E+03  0.28883632417E+03  0.40873712795E+03  0.16500000000E+03 0.  0.
   -5000001    1    1    2    0    0  0.34812412783E+02 -0.23495257718E+03  0.40448496683E+03  0.49724008889E+03  0.16500000000E+03 0.  0.
<mgrwt>
<rscale>  0 0.58318119E+03</rscale>
<asrwt>0</asrwt>
<pdfrwt beam="1">  1        1 0.15189708E-01 0.58318119E+03</pdfrwt>
<pdfrwt beam="2">  1       -1 0.11423561E+00 0.58318119E+03</pdfrwt>
<totfact> 0.26925998E+02</totfact>
</mgrwt>
</event>
<event>
 4    1  0.2559694E-005  0.4450296E+03  0.7818608E-02  0.1029215E+00
         -1   -1    0    0    0  501 -0.00000000000E+00  0.00000000000E+00  0.46360005853E+02  0.46360006127E+02  0.50400000000E-02 0. -1.
          1   -1    0    0  501    0  0.00000000000E+00 -0.00000000000E+00 -0.10680075280E+04  0.10680075280E+04  0.50400000000E-02 0.  1.
    5000001    1    1    2    0    0 -0.24405159510E+02  0.14607036711E+03 -0.46359962073E+03  0.51388887155E+03  0.16500000000E+03 0.  0.
   -5000001    1    1    2    0    0  0.24405159510E+02 -0.14607036711E+03 -0.55804790145E+03  0.60047866263E+03  0.16500000000E+03 0.  0.
<mgrwt>
<rscale>  0 0.44502960E+03</rscale>
<asrwt>0</asrwt>
<pdfrwt beam="1">  1        1 0.15257249E+00 0.44502960E+03</pdfrwt>
<pdfrwt beam="2">  1       -1 0.66228586E-02 0.44502960E+03</pdfrwt>
<totfact> 0.18664709E+03</totfact>
</mgrwt>
</event>
<event>
 4    1  0.2559694E-005  0.4886113E+03  0.7818608E-02  0.1016795E+00
         -1   -1    0    0    0  501 -0.00000000000E+00  0.00000000000E+00  0.60076257852E+02  0.60076258063E+02  0.50400000000E-02 0. -1.
          1   -1    0    0  501    0  0.00000000000E+00 -0.00000000000E+00 -0.99349132191E+03  0.99349132193E+03  0.50400000000E-02 0.  1.
    5000001    1    1    2    0    0  0.67424951571E+02 -0.16261313186E+03 -0.38400515595E+03  0.45351308090E+03  0.16500000000E+03 0.  0.
   -5000001    1    1    2    0    0 -0.67424951571E+02  0.16261313186E+03 -0.54940990811E+03  0.60005449909E+03  0.16500000000E+03 0.  0.
<mgrwt>
<rscale>  0 0.48861126E+03</rscale>
<asrwt>0</asrwt>
<pdfrwt beam="1">  1        1 0.14192732E+00 0.48861126E+03</pdfrwt>
<pdfrwt beam="2">  1       -1 0.85823232E-02 0.48861126E+03</pdfrwt>
<totfact> 0.14146069E+03</totfact>
</mgrwt>
</event>
<event>
 4    1  0.2559694E-005  0.3977688E+03  0.7818608E-02  0.1044555E+00
          1   -1    0    0  501    0  0.00000000000E+00  0.00000000000E+00  0.73410888963E+03  0.73410888965E+03  0.50400000000E-02 0.  1.
         -1   -1    0    0    0  501 -0.00000000000E+00 -0.00000000000E+00 -0.53881665740E+02  0.53881665976E+02  0.50400000000E-02 0. -1.
    5000001    1    1    2    0    0 -0.44273043751E+02 -0.98534043040E+02  0.39104371180E+03  0.43796032306E+03  0.16500000000E+03 0.  0.
   -5000001    1    1    2    0    0  0.44273043751E+02  0.98534043040E+02  0.28918351209E+03  0.35003023256E+03  0.16500000000E+03 0.  0.
<mgrwt>
<rscale>  0 0.39776883E+03</rscale>
<asrwt>0</asrwt>
<pdfrwt beam="1">  1        1 0.10487270E+00 0.39776883E+03</pdfrwt>
<pdfrwt beam="2">  1       -1 0.76973807E-02 0.39776883E+03</pdfrwt>
<totfact> 0.26893554E+03</totfact>
</mgrwt>
</event>
<event>
 4    1  0.2559694E-005  0.4679454E+03  0.7818608E-02  0.1022502E+00
          1   -1    0    0  501    0  0.00000000000E+00  0.00000000000E+00  0.56696901104E+03  0.56696901106E+03  0.50400000000E-02 0.  1.
         -1   -1    0    0    0  501 -0.00000000000E+00 -0.00000000000E+00 -0.96554166324E+02  0.96554166455E+02  0.50400000000E-02 0. -1.
    5000001    1    1    2    0    0 -0.33448912547E+02 -0.15700032428E+03  0.29452942068E+03  0.37381882138E+03  0.16500000000E+03 0.  0.
   -5000001    1    1    2    0    0  0.33448912547E+02  0.15700032428E+03  0.17588542404E+03  0.28970435614E+03  0.16500000000E+03 0.  0.
<mgrwt>
<rscale>  0 0.46794538E+03</rscale>
<asrwt>0</asrwt>
<pdfrwt beam="1">  1        1 0.80995571E-01 0.46794538E+03</pdfrwt>
<pdfrwt beam="2">  1       -1 0.13793453E-01 0.46794538E+03</pdfrwt>
<totfact> 0.15537196E+03</totfact>
</mgrwt>
</event>
<event>
 4    1  0.2559694E-005  0.5353409E+03  0.7818608E-02  0.1004945E+00
          1   -1    0    0  501    0  0.00000000000E+00  0.00000000000E+00  0.11730551427E+03  0.11730551438E+03  0.50400000000E-02 0.  1.
         -1   -1    0    0    0  501 -0.00000000000E+00 -0.00000000000E+00 -0.61077656766E+03  0.61077656768E+03  0.50400000000E-02 0. -1.
    5000001    1    1    2    0    0  0.52253626250E+02 -0.19740361205E+03 -0.31771619794E+03  0.41214949950E+03  0.16500000000E+03 0.  0.
   -5000001    1    1    2    0    0 -0.52253626250E+02  0.19740361205E+03 -0.17575485545E+03  0.31593258256E+03  0.16500000000E+03 0.  0.
<mgrwt>
<rscale>  0 0.53534086E+03</rscale>
<asrwt>0</asrwt>
<pdfrwt beam="1">  1        1 0.16757931E-01 0.53534086E+03</pdfrwt>
<pdfrwt beam="2">  1       -1 0.87253794E-01 0.53534086E+03</pdfrwt>
<totfact> 0.43560404E+02</totfact>
</mgrwt>
</event>
<event>
 4    1  0.2559694E-005  0.8167613E+03  0.7818608E-02  0.9536068E-01
          1   -1    0    0  501    0  0.00000000000E+00  0.00000000000E+00  0.21770774280E+03  0.21770774286E+03  0.50400000000E-02 0.  1.
         -1   -1    0    0    0  501 -0.00000000000E+00 -0.00000000000E+00 -0.76604871561E+03  0.76604871562E+03  0.50400000000E-02 0. -1.
    5000001    1    1    2    0    0  0.34938761748E+03  0.12194694800E+03 -0.21267254147E+03  0.45759957962E+03  0.16500000000E+03 0.  0.
   -5000001    1    1    2    0    0 -0.34938761748E+03 -0.12194694800E+03 -0.33566843134E+03  0.52615687886E+03  0.16500000000E+03 0.  0.
<mgrwt>
<rscale>  0 0.81676125E+03</rscale>
<asrwt>0</asrwt>
<pdfrwt beam="1">  1        1 0.31101107E-01 0.81676125E+03</pdfrwt>
<pdfrwt beam="2">  1       -1 0.10943553E+00 0.81676125E+03</pdfrwt>
<totfact> 0.11461596E+02</totfact>
</mgrwt>
</event>
<event>
 4    1  0.2559694E-005  0.6693275E+03  0.7818608E-02  0.9771173E-01
         -1   -1    0    0    0  501 -0.00000000000E+00  0.00000000000E+00  0.35149276327E+03  0.35149276330E+03  0.50400000000E-02 0.  1.
          1   -1    0    0  501    0  0.00000000000E+00 -0.00000000000E+00 -0.31864047402E+03  0.31864047406E+03  0.50400000000E-02 0. -1.
    5000001    1    1    2    0    0 -0.13129056035E+01 -0.11722467883E+03 -0.25041199594E+03  0.32198527413E+03  0.16500000000E+03 0.  0.
   -5000001    1    1    2    0    0  0.13129056035E+01  0.11722467883E+03  0.28326428518E+03  0.34814796324E+03  0.16500000000E+03 0.  0.
<mgrwt>
<rscale>  0 0.66932749E+03</rscale>
<asrwt>0</asrwt>
<pdfrwt beam="1">  1        1 0.45520068E-01 0.66932749E+03</pdfrwt>
<pdfrwt beam="2">  1       -1 0.50213252E-01 0.66932749E+03</pdfrwt>
<totfact> 0.35965850E+02</totfact>
</mgrwt>
</event>
<event>
 4    1  0.2559694E-005  0.4357521E+03  0.7818608E-02  0.1032058E+00
         -1   -1    0    0    0  501 -0.00000000000E+00  0.00000000000E+00  0.14020435645E+03  0.14020435654E+03  0.50400000000E-02 0. -1.
          1   -1    0    0  501    0  0.00000000000E+00 -0.00000000000E+00 -0.33857700802E+03  0.33857700806E+03  0.50400000000E-02 0.  1.
    5000001    1    1    2    0    0  0.10365008405E+03  0.15552821522E+01  0.79018605735E+01  0.19502101996E+03  0.16500000000E+03 0.  0.
   -5000001    1    1    2    0    0 -0.10365008405E+03 -0.15552821522E+01 -0.20627451215E+03  0.28376034463E+03  0.16500000000E+03 0.  0.
<mgrwt>
<rscale>  0 0.43575209E+03</rscale>
<asrwt>0</asrwt>
<pdfrwt beam="1">  1        1 0.48368144E-01 0.43575209E+03</pdfrwt>
<pdfrwt beam="2">  1       -1 0.20029194E-01 0.43575209E+03</pdfrwt>
<totfact> 0.16701685E+03</totfact>
</mgrwt>
</event>
<event>
 4    1  0.2559694E-005  0.9395547E+03  0.7818608E-02  0.9377444E-01
          1   -1    0    0  501    0  0.00000000000E+00  0.00000000000E+00  0.14934859208E+04  0.14934859208E+04  0.50400000000E-02 0.  1.
         -1   -1    0    0    0  501 -0.00000000000E+00 -0.00000000000E+00 -0.14776889833E+03  0.14776889842E+03  0.50400000000E-02 0. -1.
    5000001    1    1    2    0    0 -0.33857754496E+03 -0.21705313268E+03  0.98396807037E+03  0.10757160312E+04  0.16500000000E+03 0.  0.
   -5000001    1    1    2    0    0  0.33857754496E+03  0.21705313268E+03  0.36174895207E+03  0.56553878795E+03  0.16500000000E+03 0.  0.
<mgrwt>
<rscale>  0 0.93955472E+03</rscale>
<asrwt>0</asrwt>
<pdfrwt beam="1">  1        1 0.21335514E+00 0.93955472E+03</pdfrwt>
<pdfrwt beam="2">  1       -1 0.21109841E-01 0.93955472E+03</pdfrwt>
<totfact> 0.14731793E+02</totfact>
</mgrwt>
</event>
<event>
 4    1  0.2559694E-005  0.9059181E+03  0.7818608E-02  0.9418214E-01
         -1   -1    0    0    0  501 -0.00000000000E+00  0.00000000000E+00  0.19825771785E+03  0.19825771791E+03  0.50400000000E-02 0. -1.
          1   -1    0    0  501    0  0.00000000000E+00 -0.00000000000E+00 -0.10348747117E+04  0.10348747117E+04  0.50400000000E-02 0.  1.
    5000001    1    1    2    0    0  0.34075896186E+03 -0.14494158164E+03 -0.69333136676E+03  0.80315510103E+03  0.16500000000E+03 0.  0.
   -5000001    1    1    2    0    0 -0.34075896186E+03  0.14494158164E+03 -0.14328562710E+03  0.42997732860E+03  0.16500000000E+03 0.  0.
<mgrwt>
<rscale>  0 0.90591809E+03</rscale>
<asrwt>0</asrwt>
<pdfrwt beam="1">  1        1 0.14783924E+00 0.90591809E+03</pdfrwt>
<pdfrwt beam="2">  1       -1 0.28322532E-01 0.90591809E+03</pdfrwt>
<totfact> 0.18421196E+02</totfact>
</mgrwt>
</event>
<event>
 4    1  0.2559694E-005  0.3760598E+03  0.7818608E-02  0.1052400E+00
          1   -1    0    0  501    0  0.00000000000E+00  0.00000000000E+00  0.10751643801E+03  0.10751643813E+03  0.50400000000E-02 0.  1.
         -1   -1    0    0    0  501 -0.00000000000E+00 -0.00000000000E+00 -0.32883571783E+03  0.32883571786E+03  0.50400000000E-02 0. -1.
    5000001    1    1    2    0    0 -0.77092504629E+02 -0.17156256770E+02 -0.60180054189E+02  0.19257266249E+03  0.16500000000E+03 0.  0.
   -5000001    1    1    2    0    0  0.77092504629E+02  0.17156256770E+02 -0.16113922563E+03  0.24377949350E+03  0.16500000000E+03 0.  0.
<mgrwt>
<rscale>  0 0.37605981E+03</rscale>
<asrwt>0</asrwt>
<pdfrwt beam="1">  1        1 0.15359491E-01 0.37605981E+03</pdfrwt>
<pdfrwt beam="2">  1       -1 0.46976530E-01 0.37605981E+03</pdfrwt>
<totfact> 0.16735285E+03</totfact>
</mgrwt>
</event>
<event>
 4    1  0.2559694E-005  0.4858359E+03  0.7818608E-02  0.1017544E+00
         -1   -1    0    0    0  501 -0.00000000000E+00  0.00000000000E+00  0.55362956847E+02  0.55362957076E+02  0.50400000000E-02 0. -1.
          1   -1    0    0  501    0  0.00000000000E+00 -0.00000000000E+00 -0.10658596354E+04  0.10658596354E+04  0.50400000000E-02 0.  1.
    5000001    1    1    2    0    0 -0.11819284928E+03  0.12909912263E+03 -0.42705411706E+03  0.49013911493E+03  0.16500000000E+03 0.  0.
   -5000001    1    1    2    0    0  0.11819284928E+03 -0.12909912263E+03 -0.58344256147E+03  0.63108347753E+03  0.16500000000E+03 0.  0.
<mgrwt>
<rscale>  0 0.48583594E+03</rscale>
<asrwt>0</asrwt>
<pdfrwt beam="1">  1        1 0.15226565E+00 0.48583594E+03</pdfrwt>
<pdfrwt beam="2">  1       -1 0.79089945E-02 0.48583594E+03</pdfrwt>
<totfact> 0.14235162E+03</totfact>
</mgrwt>
</event>
<event>
 4    1  0.2559694E-005  0.4565613E+03  0.7818608E-02  0.1025783E+00
          1   -1    0    0  501    0  0.00000000000E+00  0.00000000000E+00  0.11568604303E+04  0.11568604303E+04  0.50400000000E-02 0.  1.
         -1   -1    0    0    0  501 -0.00000000000E+00 -0.00000000000E+00 -0.45046112498E+02  0.45046112780E+02  0.50400000000E-02 0. -1.
    5000001    1    1    2    0    0 -0.61170555366E+02  0.13404800105E+03  0.40754042180E+03  0.46370777309E+03  0.16500000000E+03 0.  0.
   -5000001    1    1    2    0    0  0.61170555366E+02 -0.13404800105E+03  0.70427389599E+03  0.73819876998E+03  0.16500000000E+03 0.  0.
<mgrwt>
<rscale>  0 0.45656134E+03</rscale>
<asrwt>0</asrwt>
<pdfrwt beam="1">  1        1 0.16526577E+00 0.45656134E+03</pdfrwt>
<pdfrwt beam="2">  1       -1 0.64351594E-02 0.45656134E+03</pdfrwt>
<totfact> 0.16905417E+03</totfact>
</mgrwt>
</event>
<event>
 4    1  0.2559694E-005  0.4384125E+03  0.7818608E-02  0.1031235E+00
          1   -1    0    0  501    0  0.00000000000E+00  0.00000000000E+00  0.45428306048E+03  0.45428306051E+03  0.50400000000E-02 0.  1.
         -1   -1    0    0    0  501 -0.00000000000E+00 -0.00000000000E+00 -0.10577408634E+03  0.10577408646E+03  0.50400000000E-02 0. -1.
    5000001    1    1    2    0    0 -0.90566094724E+02  0.51387169081E+02  0.30189578652E+03  0.35945642932E+03  0.16500000000E+03 0.  0.
   -5000001    1    1    2    0    0  0.90566094724E+02 -0.51387169081E+02  0.46613187618E+02  0.20060071764E+03  0.16500000000E+03 0.  0.
<mgrwt>
<rscale>  0 0.43841248E+03</rscale>
<asrwt>0</asrwt>
<pdfrwt beam="1">  1        1 0.64897582E-01 0.43841248E+03</pdfrwt>
<pdfrwt beam="2">  1       -1 0.15110583E-01 0.43841248E+03</pdfrwt>
<totfact> 0.18055614E+03</totfact>
</mgrwt>
</event>
<event>
 4    1  0.2559694E-005  0.4950757E+03  0.7818608E-02  0.1015072E+00
         -1   -1    0    0    0  501 -0.00000000000E+00  0.00000000000E+00  0.50558123722E+02  0.50558123974E+02  0.50400000000E-02 0. -1.
          1   -1    0    0  501    0  0.00000000000E+00 -0.00000000000E+00 -0.12119709979E+04  0.12119709979E+04  0.50400000000E-02 0.  1.
    5000001    1    1    2    0    0 -0.13381151760E+03  0.86976858353E+02 -0.81691758873E+03  0.84855750713E+03  0.16500000000E+03 0.  0.
   -5000001    1    1    2    0    0  0.13381151760E+03 -0.86976858353E+02 -0.34449528548E+03  0.41397161478E+03  0.16500000000E+03 0.  0.
<mgrwt>
<rscale>  0 0.49507567E+03</rscale>
<asrwt>0</asrwt>
<pdfrwt beam="1">  1        1 0.17313870E+00 0.49507567E+03</pdfrwt>
<pdfrwt beam="2">  1       -1 0.72225899E-02 0.49507567E+03</pdfrwt>
<totfact> 0.12966077E+03</totfact>
</mgrwt>
</event>
<event>
 4    1  0.2559694E-005  0.3652007E+03  0.7818608E-02  0.1056543E+00
          1   -1    0    0  501    0  0.00000000000E+00  0.00000000000E+00  0.35516379479E+03  0.35516379482E+03  0.50400000000E-02 0.  1.
         -1   -1    0    0    0  501 -0.00000000000E+00 -0.00000000000E+00 -0.93880293836E+02  0.93880293972E+02  0.50400000000E-02 0. -1.
    5000001    1    1    2    0    0 -0.10066457149E+01  0.76350469457E+02  0.10979412205E+03  0.21239151763E+03  0.16500000000E+03 0.  0.
   -5000001    1    1    2    0    0  0.10066457149E+01 -0.76350469457E+02  0.15148937889E+03  0.23665257117E+03  0.16500000000E+03 0.  0.
<mgrwt>
<rscale>  0 0.36520067E+03</rscale>
<asrwt>0</asrwt>
<pdfrwt beam="1">  1        1 0.50737686E-01 0.36520067E+03</pdfrwt>
<pdfrwt beam="2">  1       -1 0.13411470E-01 0.36520067E+03</pdfrwt>
<totfact> 0.29961289E+03</totfact>
</mgrwt>
</event>
<event>
 4    1  0.2559694E-005  0.5192716E+03  0.7818608E-02  0.1008868E+00
          1   -1    0    0  501    0  0.00000000000E+00  0.00000000000E+00  0.41016350165E+04  0.41016350165E+04  0.50400000000E-02 0. -1.
         -1   -1    0    0    0  501 -0.00000000000E+00 -0.00000000000E+00 -0.16435092920E+02  0.16435093692E+02  0.50400000000E-02 0.  1.
    5000001    1    1    2    0    0  0.15910500071E+03  0.83370320727E+01  0.30074439625E+04  0.30161777293E+04  0.16500000000E+03 0.  0.
   -5000001    1    1    2    0    0 -0.15910500071E+03 -0.83370320727E+01  0.10777559611E+04  0.11018923809E+04  0.16500000000E+03 0.  0.
<mgrwt>
<rscale>  0 0.51927162E+03</rscale>
<asrwt>0</asrwt>
<pdfrwt beam="1">  1        1 0.58594868E+00 0.51927162E+03</pdfrwt>
<pdfrwt beam="2">  1       -1 0.23478672E-02 0.51927162E+03</pdfrwt>
<totfact> 0.92186603E+01</totfact>
</mgrwt>
</event>
<event>
 4    1  0.2559694E-005  0.6476159E+03  0.7818608E-02  0.9811263E-01
         -1   -1    0    0    0  501 -0.00000000000E+00  0.00000000000E+00  0.32222928830E+03  0.32222928833E+03  0.50400000000E-02 0. -1.
          1   -1    0    0  501    0  0.00000000000E+00 -0.00000000000E+00 -0.32539435137E+03  0.32539435141E+03  0.50400000000E-02 0.  1.
    5000001    1    1    2    0    0  0.23998929518E+03  0.25893372444E+02  0.13756388125E+03  0.32313178421E+03  0.16500000000E+03 0.  0.
   -5000001    1    1    2    0    0 -0.23998929518E+03 -0.25893372444E+02 -0.14072894433E+03  0.32449185554E+03  0.16500000000E+03 0.  0.
<mgrwt>
<rscale>  0 0.64761591E+03</rscale>
<asrwt>0</asrwt>
<pdfrwt beam="1">  1        1 0.46484907E-01 0.64761591E+03</pdfrwt>
<pdfrwt beam="2">  1       -1 0.46032756E-01 0.64761591E+03</pdfrwt>
<totfact> 0.41227682E+02</totfact>
</mgrwt>
</event>
<event>
 4    1  0.2559694E-005  0.3378080E+03  0.7818608E-02  0.1067733E+00
          1   -1    0    0  501    0  0.00000000000E+00  0.00000000000E+00  0.12129488884E+03  0.12129488895E+03  0.50400000000E-02 0.  1.
         -1   -1    0    0    0  501 -0.00000000000E+00 -0.00000000000E+00 -0.23520009018E+03  0.23520009023E+03  0.50400000000E-02 0. -1.
    5000001    1    1    2    0    0 -0.33255073648E+02 -0.13531211876E+02 -0.60981540308E+02  0.17953479294E+03  0.16500000000E+03 0.  0.
   -5000001    1    1    2    0    0  0.33255073648E+02  0.13531211876E+02 -0.52923661028E+02  0.17696018624E+03  0.16500000000E+03 0.  0.
<mgrwt>
<rscale>  0 0.33780805E+03</rscale>
<asrwt>0</asrwt>
<pdfrwt beam="1">  1        1 0.17327841E-01 0.33780805E+03</pdfrwt>
<pdfrwt beam="2">  1       -1 0.33600013E-01 0.33780805E+03</pdfrwt>
<totfact> 0.25947188E+03</totfact>
</mgrwt>
</event>
<event>
 4    1  0.2559694E-005  0.7469515E+03  0.7818608E-02  0.9640145E-01
         -1   -1    0    0    0  501 -0.00000000000E+00  0.00000000000E+00  0.90064390433E+02  0.90064390574E+02  0.50400000000E-02 0. -1.
          1   -1    0    0  501    0  0.00000000000E+00 -0.00000000000E+00 -0.15487158341E+04  0.15487158341E+04  0.50400000000E-02 0.  1.
    5000001    1    1    2    0    0  0.10726026280E+03 -0.30877920510E+03 -0.56795737745E+03  0.67575879134E+03  0.16500000000E+03 0.  0.
   -5000001    1    1    2    0    0 -0.10726026280E+03  0.30877920510E+03 -0.89069406617E+03  0.96302143330E+03  0.16500000000E+03 0.  0.
<mgrwt>
<rscale>  0 0.74695153E+03</rscale>
<asrwt>0</asrwt>
<pdfrwt beam="1">  1        1 0.22124510E+00 0.74695153E+03</pdfrwt>
<pdfrwt beam="2">  1       -1 0.12866342E-01 0.74695153E+03</pdfrwt>
<totfact> 0.30992246E+02</totfact>
</mgrwt>
</event>
<event>
 4    1  0.2559694E-005  0.1079992E+04  0.7818608E-02  0.9224915E-01
         -1   -1    0    0    0  501 -0.00000000000E+00  0.00000000000E+00  0.42083756049E+03  0.42083756052E+03  0.50400000000E-02 0. -1.
          1   -1    0    0  501    0  0.00000000000E+00 -0.00000000000E+00 -0.69289376729E+03  0.69289376731E+03  0.50400000000E-02 0.  1.
    5000001    1    1    2    0    0 -0.25945427190E+02  0.51346547564E+03 -0.12868071636E+03  0.55507088433E+03  0.16500000000E+03 0.  0.
   -5000001    1    1    2    0    0  0.25945427190E+02 -0.51346547564E+03 -0.14337549044E+03  0.55866044350E+03  0.16500000000E+03 0.  0.
<mgrwt>
<rscale>  0 0.10799921E+04</rscale>
<asrwt>0</asrwt>
<pdfrwt beam="1">  1        1 0.98984824E-01 0.10799921E+04</pdfrwt>
<pdfrwt beam="2">  1       -1 0.60119652E-01 0.10799921E+04</pdfrwt>
<totfact> 0.86614126E+01</totfact>
</mgrwt>
</event>
<event>
 4    1  0.2559694E-005  0.8719856E+03  0.7818608E-02  0.9461295E-01
         -1   -1    0    0    0  501 -0.00000000000E+00  0.00000000000E+00  0.15883074792E+03  0.15883074800E+03  0.50400000000E-02 0. -1.
          1   -1    0    0  501    0  0.00000000000E+00 -0.00000000000E+00 -0.11968068855E+04  0.11968068855E+04  0.50400000000E-02 0.  1.
    5000001    1    1    2    0    0 -0.24720325665E+03  0.77559011734E+02 -0.10000275647E+04  0.10461381269E+04  0.16500000000E+03 0.  0.
   -5000001    1    1    2    0    0  0.24720325665E+03 -0.77559011734E+02 -0.37948572866E+02  0.30949950659E+03  0.16500000000E+03 0.  0.
<mgrwt>
<rscale>  0 0.87198563E+03</rscale>
<asrwt>0</asrwt>
<pdfrwt beam="1">  1        1 0.17097241E+00 0.87198563E+03</pdfrwt>
<pdfrwt beam="2">  1       -1 0.22690108E-01 0.87198563E+03</pdfrwt>
<totfact> 0.20682135E+02</totfact>
</mgrwt>
</event>
<event>
 4    1  0.2559694E-005  0.5209018E+03  0.7818608E-02  0.1008463E+00
         -1   -1    0    0    0  501 -0.00000000000E+00  0.00000000000E+00  0.23697525869E+02  0.23697526405E+02  0.50400000000E-02 0. -1.
          1   -1    0    0  501    0  0.00000000000E+00 -0.00000000000E+00 -0.28625209147E+04  0.28625209147E+04  0.50400000000E-02 0.  1.
    5000001    1    1    2    0    0 -0.12388819157E+03  0.15618213155E+03 -0.12561201228E+04  0.12824990858E+04  0.16500000000E+03 0.  0.
   -5000001    1    1    2    0    0  0.12388819157E+03 -0.15618213155E+03 -0.15827032660E+04  0.16037193553E+04  0.16500000000E+03 0.  0.
<mgrwt>
<rscale>  0 0.52090177E+03</rscale>
<asrwt>0</asrwt>
<pdfrwt beam="1">  1        1 0.40893134E+00 0.52090177E+03</pdfrwt>
<pdfrwt beam="2">  1       -1 0.33853627E-02 0.52090177E+03</pdfrwt>
<totfact> 0.37819637E+02</totfact>
</mgrwt>
</event>
<event>
 4    1  0.2559694E-005  0.5752630E+03  0.7818608E-02  0.9958099E-01
          1   -1    0    0  501    0  0.00000000000E+00  0.00000000000E+00  0.14696056983E+04  0.14696056983E+04  0.50400000000E-02 0.  1.
         -1   -1    0    0    0  501 -0.00000000000E+00 -0.00000000000E+00 -0.56295294998E+02  0.56295295223E+02  0.50400000000E-02 0. -1.
    5000001    1    1    2    0    0  0.17377165456E+03 -0.15794162028E+03  0.75731383504E+03  0.80987121698E+03  0.16500000000E+03 0.  0.
   -5000001    1    1    2    0    0 -0.17377165456E+03  0.15794162028E+03  0.65599656830E+03  0.71602977659E+03  0.16500000000E+03 0.  0.
<mgrwt>
<rscale>  0 0.57526302E+03</rscale>
<asrwt>0</asrwt>
<pdfrwt beam="1">  1        1 0.20994368E+00 0.57526302E+03</pdfrwt>
<pdfrwt beam="2">  1       -1 0.80421849E-02 0.57526302E+03</pdfrwt>
<totfact> 0.74002074E+02</totfact>
</mgrwt>
</event>
<event>
 4    1  0.2559694E-005  0.8457505E+03  0.7818608E-02  0.9496058E-01
          1   -1    0    0  501    0  0.00000000000E+00  0.00000000000E+00  0.28566744159E+03  0.28566744163E+03  0.50400000000E-02 0.  1.
         -1   -1    0    0    0  501 -0.00000000000E+00 -0.00000000000E+00 -0.62598482036E+03  0.62598482038E+03  0.50400000000E-02 0. -1.
    5000001    1    1    2    0    0 -0.11331369050E+03  0.21672095398E+03  0.15641850550E+03  0.33391572771E+03  0.16500000000E+03 0.  0.
   -5000001    1    1    2    0    0  0.11331369050E+03 -0.21672095398E+03 -0.49673588427E+03  0.57773653431E+03  0.16500000000E+03 0.  0.
<mgrwt>
<rscale>  0 0.84575051E+03</rscale>
<asrwt>0</asrwt>
<pdfrwt beam="1">  1        1 0.40809635E-01 0.84575051E+03</pdfrwt>
<pdfrwt beam="2">  1       -1 0.89426402E-01 0.84575051E+03</pdfrwt>
<totfact> 0.12738852E+02</totfact>
</mgrwt>
</event>
<event>
 4    1  0.2559694E-005  0.3535138E+03  0.7818608E-02  0.1061182E+00
         -1   -1    0    0    0  501 -0.00000000000E+00  0.00000000000E+00  0.79063871757E+02  0.79063871918E+02  0.50400000000E-02 0. -1.
          1   -1    0    0  501    0  0.00000000000E+00 -0.00000000000E+00 -0.39516160949E+03  0.39516160952E+03  0.50400000000E-02 0.  1.
    5000001    1    1    2    0    0 -0.58828506766E+02  0.18709141244E+02 -0.13874011880E+03  0.22424238167E+03  0.16500000000E+03 0.  0.
   -5000001    1    1    2    0    0  0.58828506766E+02 -0.18709141244E+02 -0.17735761893E+03  0.24998309976E+03  0.16500000000E+03 0.  0.
<mgrwt>
<rscale>  0 0.35351383E+03</rscale>
<asrwt>0</asrwt>
<pdfrwt beam="1">  1        1 0.56451657E-01 0.35351383E+03</pdfrwt>
<pdfrwt beam="2">  1       -1 0.11294839E-01 0.35351383E+03</pdfrwt>
<totfact> 0.34244688E+03</totfact>
</mgrwt>
</event>
<event>
 4    1  0.2559694E-005  0.3929113E+03  0.7818608E-02  0.1046262E+00
         -1   -1    0    0    0  501 -0.00000000000E+00  0.00000000000E+00  0.98370903066E+01  0.98370915977E+01  0.50400000000E-02 0. -1.
          1   -1    0    0  501    0  0.00000000000E+00 -0.00000000000E+00 -0.39233973811E+04  0.39233973811E+04  0.50400000000E-02 0.  1.
    5000001    1    1    2    0    0  0.45766488632E+02  0.95245463369E+02 -0.18139605404E+04  0.18245120202E+04  0.16500000000E+03 0.  0.
   -5000001    1    1    2    0    0 -0.45766488632E+02 -0.95245463369E+02 -0.20995997504E+04  0.21087224525E+04  0.16500000000E+03 0.  0.
<mgrwt>
<rscale>  0 0.39291127E+03</rscale>
<asrwt>0</asrwt>
<pdfrwt beam="1">  1        1 0.56048434E+00 0.39291127E+03</pdfrwt>
<pdfrwt beam="2">  1       -1 0.14053012E-02 0.39291127E+03</pdfrwt>
<totfact> 0.27308359E+02</totfact>
</mgrwt>
</event>
<event>
 4    1  0.2559694E-005  0.4823244E+03  0.7818608E-02  0.1018498E+00
          1   -1    0    0  501    0  0.00000000000E+00  0.00000000000E+00  0.86438218973E+02  0.86438219120E+02  0.50400000000E-02 0.  1.
         -1   -1    0    0    0  501 -0.00000000000E+00 -0.00000000000E+00 -0.67284131927E+03  0.67284131929E+03  0.50400000000E-02 0. -1.
    5000001    1    1    2    0    0 -0.36112867096E+02 -0.15882528933E+03 -0.18872582530E+03  0.29895158276E+03  0.16500000000E+03 0.  0.
   -5000001    1    1    2    0    0  0.36112867096E+02  0.15882528933E+03 -0.39767727500E+03  0.46032795565E+03  0.16500000000E+03 0.  0.
<mgrwt>
<rscale>  0 0.48232439E+03</rscale>
<asrwt>0</asrwt>
<pdfrwt beam="1">  1        1 0.12348317E-01 0.48232439E+03</pdfrwt>
<pdfrwt beam="2">  1       -1 0.96120185E-01 0.48232439E+03</pdfrwt>
<totfact> 0.53108346E+02</totfact>
</mgrwt>
</event>
<event>
 4    1  0.2559694E-005  0.4307685E+03  0.7818608E-02  0.1033617E+00
          1   -1    0    0  501    0  0.00000000000E+00  0.00000000000E+00  0.21035849808E+04  0.21035849808E+04  0.50400000000E-02 0.  1.
         -1   -1    0    0    0  501 -0.00000000000E+00 -0.00000000000E+00 -0.22053003386E+02  0.22053003962E+02  0.50400000000E-02 0. -1.
    5000001    1    1    2    0    0  0.13464724149E+03 -0.18804632830E+02  0.11696198081E+04  0.11889991545E+04  0.16500000000E+03 0.  0.
   -5000001    1    1    2    0    0 -0.13464724149E+03  0.18804632830E+02  0.91191216930E+03  0.93663883028E+03  0.16500000000E+03 0.  0.
<mgrwt>
<rscale>  0 0.43076846E+03</rscale>
<asrwt>0</asrwt>
<pdfrwt beam="1">  1        1 0.30051214E+00 0.43076846E+03</pdfrwt>
<pdfrwt beam="2">  1       -1 0.31504291E-02 0.43076846E+03</pdfrwt>
<totfact> 0.12560267E+03</totfact>
</mgrwt>
</event>
<event>
 4    1  0.2559694E-005  0.7317868E+03  0.7818608E-02  0.9664365E-01
          1   -1    0    0  501    0  0.00000000000E+00  0.00000000000E+00  0.68109086494E+03  0.68109086495E+03  0.50400000000E-02 0.  1.
         -1   -1    0    0    0  501 -0.00000000000E+00 -0.00000000000E+00 -0.19656404867E+03  0.19656404873E+03  0.50400000000E-02 0. -1.
    5000001    1    1    2    0    0 -0.15005193801E+03 -0.22509629395E+03  0.22851129115E+02  0.31769655294E+03  0.16500000000E+03 0.  0.
   -5000001    1    1    2    0    0  0.15005193801E+03  0.22509629395E+03  0.46167568716E+03  0.55995836074E+03  0.16500000000E+03 0.  0.
<mgrwt>
<rscale>  0 0.73178679E+03</rscale>
<asrwt>0</asrwt>
<pdfrwt beam="1">  1        1 0.97298697E-01 0.73178679E+03</pdfrwt>
<pdfrwt beam="2">  1       -1 0.28080578E-01 0.73178679E+03</pdfrwt>
<totfact> 0.36663292E+02</totfact>
</mgrwt>
</event>
<event>
 4    1  0.2559694E-005  0.4524462E+03  0.7818608E-02  0.1026995E+00
          1   -1    0    0  501    0  0.00000000000E+00  0.00000000000E+00  0.82522911241E+03  0.82522911243E+03  0.50400000000E-02 0. -1.
         -1   -1    0    0    0  501 -0.00000000000E+00 -0.00000000000E+00 -0.62015360718E+02  0.62015360923E+02  0.50400000000E-02 0.  1.
    5000001    1    1    2    0    0  0.61987491557E+01  0.10466051939E+03  0.15836650244E+03  0.25158934378E+03  0.16500000000E+03 0.  0.
   -5000001    1    1    2    0    0 -0.61987491557E+01 -0.10466051939E+03  0.60484724926E+03  0.63565512957E+03  0.16500000000E+03 0.  0.
<mgrwt>
<rscale>  0 0.45244616E+03</rscale>
<asrwt>0</asrwt>
<pdfrwt beam="1">  1        1 0.11788987E+00 0.45244616E+03</pdfrwt>
<pdfrwt beam="2">  1       -1 0.88593378E-02 0.45244616E+03</pdfrwt>
<totfact> 0.18154627E+03</totfact>
</mgrwt>
</event>
<event>
 4    1  0.2559694E-005  0.4699108E+03  0.7818608E-02  0.1021945E+00
          1   -1    0    0  501    0  0.00000000000E+00  0.00000000000E+00  0.87227400757E+02  0.87227400903E+02  0.50400000000E-02 0.  1.
         -1   -1    0    0    0  501 -0.00000000000E+00 -0.00000000000E+00 -0.63287492620E+03  0.63287492622E+03  0.50400000000E-02 0. -1.
    5000001    1    1    2    0    0  0.11298651994E+03 -0.99498578867E+02 -0.38452381460E+03  0.44469032470E+03  0.16500000000E+03 0.  0.
   -5000001    1    1    2    0    0 -0.11298651994E+03  0.99498578867E+02 -0.16112371084E+03  0.27541200243E+03  0.16500000000E+03 0.  0.
<mgrwt>
<rscale>  0 0.46991078E+03</rscale>
<asrwt>0</asrwt>
<pdfrwt beam="1">  1        1 0.12461058E-01 0.46991078E+03</pdfrwt>
<pdfrwt beam="2">  1       -1 0.90410702E-01 0.46991078E+03</pdfrwt>
<totfact> 0.60052046E+02</totfact>
</mgrwt>
</event>
<event>
 4    1  0.2559694E-005  0.4087920E+03  0.7818608E-02  0.1040777E+00
         -1   -1    0    0    0  501 -0.00000000000E+00  0.00000000000E+00  0.52591521038E+02  0.52591521280E+02  0.50400000000E-02 0. -1.
          1   -1    0    0  501    0  0.00000000000E+00 -0.00000000000E+00 -0.79438132169E+03  0.79438132171E+03  0.50400000000E-02 0.  1.
    5000001    1    1    2    0    0 -0.66808237790E+02 -0.98203920898E+02 -0.32717005654E+03  0.38519163621E+03  0.16500000000E+03 0.  0.
   -5000001    1    1    2    0    0  0.66808237790E+02  0.98203920898E+02 -0.41461974412E+03  0.46178120677E+03  0.16500000000E+03 0.  0.
<mgrwt>
<rscale>  0 0.40879199E+03</rscale>
<asrwt>0</asrwt>
<pdfrwt beam="1">  1        1 0.11348304E+00 0.40879199E+03</pdfrwt>
<pdfrwt beam="2">  1       -1 0.75130750E-02 0.40879199E+03</pdfrwt>
<totfact> 0.24828333E+03</totfact>
</mgrwt>
</event>
<event>
 4    1  0.2559694E-005  0.8733167E+03  0.7818608E-02  0.9459566E-01
          1   -1    0    0  501    0  0.00000000000E+00  0.00000000000E+00  0.12951275153E+03  0.12951275163E+03  0.50400000000E-02 0. -1.
         -1   -1    0    0    0  501 -0.00000000000E+00 -0.00000000000E+00 -0.14722143551E+04  0.14722143552E+04  0.50400000000E-02 0.  1.
    5000001    1    1    2    0    0  0.32203202984E+03  0.23021749992E+03 -0.82193266701E+03  0.92709386505E+03  0.16500000000E+03 0.  0.
   -5000001    1    1    2    0    0 -0.32203202984E+03 -0.23021749992E+03 -0.52076893661E+03  0.67463324173E+03  0.16500000000E+03 0.  0.
<mgrwt>
<rscale>  0 0.87331674E+03</rscale>
<asrwt>0</asrwt>
<pdfrwt beam="1">  1        1 0.18501823E-01 0.87331674E+03</pdfrwt>
<pdfrwt beam="2">  1       -1 0.21031633E+00 0.87331674E+03</pdfrwt>
<totfact> 0.37787209E+01</totfact>
</mgrwt>
</event>
<event>
 4    1  0.2559694E-005  0.3928384E+03  0.7818608E-02  0.1046288E+00
         -1   -1    0    0    0  501 -0.00000000000E+00  0.00000000000E+00  0.24216323862E+03  0.24216323867E+03  0.50400000000E-02 0.  1.
          1   -1    0    0  501    0  0.00000000000E+00 -0.00000000000E+00 -0.15931606791E+03  0.15931606799E+03  0.50400000000E-02 0. -1.
    5000001    1    1    2    0    0  0.99786218816E+02 -0.81755841437E+00  0.79629530645E+02  0.20862363245E+03  0.16500000000E+03 0.  0.
   -5000001    1    1    2    0    0 -0.99786218816E+02  0.81755841437E+00  0.32176400580E+01  0.19285567421E+03  0.16500000000E+03 0.  0.
<mgrwt>
<rscale>  0 0.39283836E+03</rscale>
<asrwt>0</asrwt>
<pdfrwt beam="1">  1        1 0.22759439E-01 0.39283836E+03</pdfrwt>
<pdfrwt beam="2">  1       -1 0.34594748E-01 0.39283836E+03</pdfrwt>
<totfact> 0.17333490E+03</totfact>
</mgrwt>
</event>
<event>
 4    1  0.2559694E-005  0.4037764E+03  0.7818608E-02  0.1042480E+00
         -1   -1    0    0    0  501 -0.00000000000E+00  0.00000000000E+00  0.33535695275E+03  0.33535695279E+03  0.50400000000E-02 0. -1.
          1   -1    0    0  501    0  0.00000000000E+00 -0.00000000000E+00 -0.12153866614E+03  0.12153866625E+03  0.50400000000E-02 0.  1.
    5000001    1    1    2    0    0 -0.61707317936E+02 -0.94086542175E+02  0.73460867192E+02  0.21279466514E+03  0.16500000000E+03 0.  0.
   -5000001    1    1    2    0    0  0.61707317936E+02  0.94086542175E+02  0.14035741941E+03  0.24410095389E+03  0.16500000000E+03 0.  0.
<mgrwt>
<rscale>  0 0.40377636E+03</rscale>
<asrwt>0</asrwt>
<pdfrwt beam="1">  1        1 0.17362667E-01 0.40377636E+03</pdfrwt>
<pdfrwt beam="2">  1       -1 0.47908135E-01 0.40377636E+03</pdfrwt>
<totfact> 0.13737764E+03</totfact>
</mgrwt>
</event>
<event>
 4    1  0.2559694E-005  0.3866667E+03  0.7818608E-02  0.1048497E+00
         -1   -1    0    0    0  501 -0.00000000000E+00  0.00000000000E+00  0.10104740298E+03  0.10104740311E+03  0.50400000000E-02 0.  1.
          1   -1    0    0  501    0  0.00000000000E+00 -0.00000000000E+00 -0.36990353323E+03  0.36990353327E+03  0.50400000000E-02 0. -1.
    5000001    1    1    2    0    0 -0.79002130332E+02 -0.58333382712E+02 -0.16189798951E+03  0.25115747877E+03  0.16500000000E+03 0.  0.
   -5000001    1    1    2    0    0  0.79002130332E+02  0.58333382712E+02 -0.10695814074E+03  0.21979345761E+03  0.16500000000E+03 0.  0.
<mgrwt>
<rscale>  0 0.38666674E+03</rscale>
<asrwt>0</asrwt>
<pdfrwt beam="1">  1        1 0.52843361E-01 0.38666674E+03</pdfrwt>
<pdfrwt beam="2">  1       -1 0.14435343E-01 0.38666674E+03</pdfrwt>
<totfact> 0.25323146E+03</totfact>
</mgrwt>
</event>
<event>
 4    1  0.2559694E-005  0.3734023E+03  0.7818608E-02  0.1053400E+00
          1   -1    0    0  501    0  0.00000000000E+00  0.00000000000E+00  0.22074009907E+04  0.22074009908E+04  0.50400000000E-02 0.  1.
         -1   -1    0    0    0  501 -0.00000000000E+00 -0.00000000000E+00 -0.15791113132E+02  0.15791113936E+02  0.50400000000E-02 0. -1.
    5000001    1    1    2    0    0 -0.51166241890E+02  0.58477916860E+02  0.85804689281E+03  0.87721555009E+03  0.16500000000E+03 0.  0.
   -5000001    1    1    2    0    0  0.51166241890E+02 -0.58477916860E+02  0.13335629848E+04  0.13459765546E+04  0.16500000000E+03 0.  0.
<mgrwt>
<rscale>  0 0.37340230E+03</rscale>
<asrwt>0</asrwt>
<pdfrwt beam="1">  1        1 0.31534299E+00 0.37340230E+03</pdfrwt>
<pdfrwt beam="2">  1       -1 0.22558734E-02 0.37340230E+03</pdfrwt>
<totfact> 0.17899365E+03</totfact>
</mgrwt>
</event>
<event>
 4    1  0.2559694E-005  0.5699111E+03  0.7818608E-02  0.9969875E-01
          1   -1    0    0  501    0  0.00000000000E+00  0.00000000000E+00  0.76256465534E+03  0.76256465535E+03  0.50400000000E-02 0. -1.
         -1   -1    0    0    0  501 -0.00000000000E+00 -0.00000000000E+00 -0.10648235365E+03  0.10648235377E+03  0.50400000000E-02 0.  1.
    5000001    1    1    2    0    0  0.22587268438E+03  0.49538129142E+02  0.36221291279E+03  0.46032128994E+03  0.16500000000E+03 0.  0.
   -5000001    1    1    2    0    0 -0.22587268438E+03 -0.49538129142E+02  0.29386938890E+03  0.40872571918E+03  0.16500000000E+03 0.  0.
<mgrwt>
<rscale>  0 0.56991115E+03</rscale>
<asrwt>0</asrwt>
<pdfrwt beam="1">  1        1 0.10893782E+00 0.56991115E+03</pdfrwt>
<pdfrwt beam="2">  1       -1 0.15211764E-01 0.56991115E+03</pdfrwt>
<totfact> 0.86716630E+02</totfact>
</mgrwt>
</event>
<event>
 4    1  0.2559694E-005  0.4429037E+03  0.7818608E-02  0.1029860E+00
         -1   -1    0    0    0  501 -0.00000000000E+00  0.00000000000E+00  0.70972166430E+02  0.70972166609E+02  0.50400000000E-02 0. -1.
          1   -1    0    0  501    0  0.00000000000E+00 -0.00000000000E+00 -0.69098804984E+03  0.69098804985E+03  0.50400000000E-02 0.  1.
    5000001    1    1    2    0    0  0.13533569324E+03 -0.24757270853E+02 -0.40244900711E+03  0.45620047747E+03  0.16500000000E+03 0.  0.
   -5000001    1    1    2    0    0 -0.13533569324E+03  0.24757270853E+02 -0.21756687630E+03  0.30575973899E+03  0.16500000000E+03 0.  0.
<mgrwt>
<rscale>  0 0.44290369E+03</rscale>
<asrwt>0</asrwt>
<pdfrwt beam="1">  1        1 0.98712575E-01 0.44290369E+03</pdfrwt>
<pdfrwt beam="2">  1       -1 0.10138881E-01 0.44290369E+03</pdfrwt>
<totfact> 0.19154950E+03</totfact>
</mgrwt>
</event>
<event>
 4    1  0.2559694E-005  0.6703865E+03  0.7818608E-02  0.9769260E-01
         -1   -1    0    0    0  501 -0.00000000000E+00  0.00000000000E+00  0.19551394578E+03  0.19551394584E+03  0.50400000000E-02 0. -1.
          1   -1    0    0  501    0  0.00000000000E+00 -0.00000000000E+00 -0.57466236228E+03  0.57466236230E+03  0.50400000000E-02 0.  1.
    5000001    1    1    2    0    0  0.25231242606E+03 -0.13045571170E+03 -0.26620590804E+03  0.42281300658E+03  0.16500000000E+03 0.  0.
   -5000001    1    1    2    0    0 -0.25231242606E+03  0.13045571170E+03 -0.11294250846E+03  0.34736330157E+03  0.16500000000E+03 0.  0.
<mgrwt>
<rscale>  0 0.67038647E+03</rscale>
<asrwt>0</asrwt>
<pdfrwt beam="1">  1        1 0.82094622E-01 0.67038647E+03</pdfrwt>
<pdfrwt beam="2">  1       -1 0.27930564E-01 0.67038647E+03</pdfrwt>
<totfact> 0.47232996E+02</totfact>
</mgrwt>
</event>
<event>
 4    1  0.2559694E-005  0.4790305E+03  0.7818608E-02  0.1019402E+00
         -1   -1    0    0    0  501 -0.00000000000E+00  0.00000000000E+00  0.12774884654E+03  0.12774884664E+03  0.50400000000E-02 0.  1.
          1   -1    0    0  501    0  0.00000000000E+00 -0.00000000000E+00 -0.44906517399E+03  0.44906517402E+03  0.50400000000E-02 0. -1.
    5000001    1    1    2    0    0 -0.11197441542E+03  0.12658349837E+03 -0.20853502725E+03  0.31507698957E+03  0.16500000000E+03 0.  0.
   -5000001    1    1    2    0    0  0.11197441542E+03 -0.12658349837E+03 -0.11278130020E+03  0.26173703109E+03  0.16500000000E+03 0.  0.
<mgrwt>
<rscale>  0 0.47903051E+03</rscale>
<asrwt>0</asrwt>
<pdfrwt beam="1">  1        1 0.64152167E-01 0.47903051E+03</pdfrwt>
<pdfrwt beam="2">  1       -1 0.18249836E-01 0.47903051E+03</pdfrwt>
<totfact> 0.13501907E+03</totfact>
</mgrwt>
</event>
<event>
 4    1  0.2559694E-005  0.4063710E+03  0.7818608E-02  0.1041596E+00
         -1   -1    0    0    0  501 -0.00000000000E+00  0.00000000000E+00  0.48285725339E+03  0.48285725341E+03  0.50400000000E-02 0. -1.
          1   -1    0    0  501    0  0.00000000000E+00 -0.00000000000E+00 -0.85500100444E+02  0.85500100592E+02  0.50400000000E-02 0.  1.
    5000001    1    1    2    0    0 -0.11521312739E+03  0.43894092424E+01  0.15996916183E+03  0.25711566342E+03  0.16500000000E+03 0.  0.
   -5000001    1    1    2    0    0  0.11521312739E+03 -0.43894092424E+01  0.23738799111E+03  0.31124169059E+03  0.16500000000E+03 0.  0.
<mgrwt>
<rscale>  0 0.40637098E+03</rscale>
<asrwt>0</asrwt>
<pdfrwt beam="1">  1        1 0.12214300E-01 0.40637098E+03</pdfrwt>
<pdfrwt beam="2">  1       -1 0.68979606E-01 0.40637098E+03</pdfrwt>
<totfact> 0.10868274E+03</totfact>
</mgrwt>
</event>
<event>
 4    1  0.2559694E-005  0.3648203E+03  0.7818608E-02  0.1056691E+00
         -1   -1    0    0    0  501 -0.00000000000E+00  0.00000000000E+00  0.53450880648E+03  0.53450880650E+03  0.50400000000E-02 0.  1.
          1   -1    0    0  501    0  0.00000000000E+00 -0.00000000000E+00 -0.62250534089E+02  0.62250534293E+02  0.50400000000E-02 0. -1.
    5000001    1    1    2    0    0 -0.41449256748E+02 -0.61642756075E+02  0.27380811867E+03  0.32819773935E+03  0.16500000000E+03 0.  0.
   -5000001    1    1    2    0    0  0.41449256748E+02  0.61642756075E+02  0.19845015372E+03  0.26856160145E+03  0.16500000000E+03 0.  0.
<mgrwt>
<rscale>  0 0.36482028E+03</rscale>
<asrwt>0</asrwt>
<pdfrwt beam="1">  1        1 0.88929328E-02 0.36482028E+03</pdfrwt>
<pdfrwt beam="2">  1       -1 0.76358407E-01 0.36482028E+03</pdfrwt>
<totfact> 0.13576107E+03</totfact>
</mgrwt>
</event>
<event>
 4    1  0.2559694E-005  0.3869498E+03  0.7818608E-02  0.1048395E+00
         -1   -1    0    0    0  501 -0.00000000000E+00  0.00000000000E+00  0.14787695444E+04  0.14787695444E+04  0.50400000000E-02 0. -1.
          1   -1    0    0  501    0  0.00000000000E+00 -0.00000000000E+00 -0.25313300769E+02  0.25313301271E+02  0.50400000000E-02 0.  1.
    5000001    1    1    2    0    0  0.32904171294E+02 -0.90164866095E+02  0.60410803267E+03  0.63354865851E+03  0.16500000000E+03 0.  0.
   -5000001    1    1    2    0    0 -0.32904171294E+02  0.90164866095E+02  0.84934821100E+03  0.87053418721E+03  0.16500000000E+03 0.  0.
<mgrwt>
<rscale>  0 0.38694981E+03</rscale>
<asrwt>0</asrwt>
<pdfrwt beam="1">  1        1 0.36161857E-02 0.38694981E+03</pdfrwt>
<pdfrwt beam="2">  1       -1 0.21125280E+00 0.38694981E+03</pdfrwt>
<totfact> 0.36762771E+02</totfact>
</mgrwt>
</event>
<event>
 4    1  0.2559694E-005  0.5402003E+03  0.7818608E-02  0.1003788E+00
         -1   -1    0    0    0  501 -0.00000000000E+00  0.00000000000E+00  0.14876047728E+03  0.14876047736E+03  0.50400000000E-02 0. -1.
          1   -1    0    0  501    0  0.00000000000E+00 -0.00000000000E+00 -0.49041319585E+03  0.49041319587E+03  0.50400000000E-02 0.  1.
    5000001    1    1    2    0    0  0.76160347917E+02  0.18615786774E+03 -0.25675383711E+03  0.36551700807E+03  0.16500000000E+03 0.  0.
   -5000001    1    1    2    0    0 -0.76160347917E+02 -0.18615786774E+03 -0.84898881464E+02  0.27365666517E+03  0.16500000000E+03 0.  0.
<mgrwt>
<rscale>  0 0.54020034E+03</rscale>
<asrwt>0</asrwt>
<pdfrwt beam="1">  1        1 0.70059027E-01 0.54020034E+03</pdfrwt>
<pdfrwt beam="2">  1       -1 0.21251497E-01 0.54020034E+03</pdfrwt>
<totfact> 0.93400528E+02</totfact>
</mgrwt>
</event>
<event>
 4    1  0.2559694E-005  0.4974763E+03  0.7818608E-02  0.1014440E+00
          1   -1    0    0  501    0  0.00000000000E+00  0.00000000000E+00  0.19257085610E+04  0.19257085610E+04  0.50400000000E-02 0. -1.
         -1   -1    0    0    0  501 -0.00000000000E+00 -0.00000000000E+00 -0.32128779770E+02  0.32128780165E+02  0.50400000000E-02 0.  1.
    5000001    1    1    2    0    0  0.16450723214E+03  0.86488127306E+02  0.90687936182E+03  0.94031803263E+03  0.16500000000E+03 0.  0.
   -5000001    1    1    2    0    0 -0.16450723214E+03 -0.86488127306E+02  0.98670041939E+03  0.10175193085E+04  0.16500000000E+03 0.  0.
<mgrwt>
<rscale>  0 0.49747630E+03</rscale>
<asrwt>0</asrwt>
<pdfrwt beam="1">  1        1 0.27510119E+00 0.49747630E+03</pdfrwt>
<pdfrwt beam="2">  1       -1 0.45898263E-02 0.49747630E+03</pdfrwt>
<totfact> 0.91192734E+02</totfact>
</mgrwt>
</event>
<event>
 4    1  0.2559694E-005  0.8174176E+03  0.7818608E-02  0.9535143E-01
         -1   -1    0    0    0  501 -0.00000000000E+00  0.00000000000E+00  0.86379519291E+03  0.86379519293E+03  0.50400000000E-02 0.  1.
          1   -1    0    0  501    0  0.00000000000E+00 -0.00000000000E+00 -0.19338248998E+03  0.19338249004E+03  0.50400000000E-02 0. -1.
    5000001    1    1    2    0    0 -0.99036629912E+02 -0.35774691695E+03  0.39343069654E+03  0.56551200131E+03  0.16500000000E+03 0.  0.
   -5000001    1    1    2    0    0  0.99036629912E+02  0.35774691695E+03  0.27698200640E+03  0.49166568166E+03  0.16500000000E+03 0.  0.
<mgrwt>
<rscale>  0 0.81741756E+03</rscale>
<asrwt>0</asrwt>
<pdfrwt beam="1">  1        1 0.27626070E-01 0.81741756E+03</pdfrwt>
<pdfrwt beam="2">  1       -1 0.12339931E+00 0.81741756E+03</pdfrwt>
<totfact> 0.10014101E+02</totfact>
</mgrwt>
</event>
<event>
 4    1  0.2559694E-005  0.3696178E+03  0.7818608E-02  0.1054839E+00
         -1   -1    0    0    0  501 -0.00000000000E+00  0.00000000000E+00  0.30193402486E+03  0.30193402490E+03  0.50400000000E-02 0. -1.
          1   -1    0    0  501    0  0.00000000000E+00 -0.00000000000E+00 -0.11311850766E+03  0.11311850777E+03  0.50400000000E-02 0.  1.
    5000001    1    1    2    0    0 -0.51387102238E+02  0.23715401243E+02  0.25860912723E+02  0.17634296510E+03  0.16500000000E+03 0.  0.
   -5000001    1    1    2    0    0  0.51387102238E+02 -0.23715401243E+02  0.16295460448E+03  0.23870956758E+03  0.16500000000E+03 0.  0.
<mgrwt>
<rscale>  0 0.36961778E+03</rscale>
<asrwt>0</asrwt>
<pdfrwt beam="1">  1        1 0.16159787E-01 0.36961778E+03</pdfrwt>
<pdfrwt beam="2">  1       -1 0.43133432E-01 0.36961778E+03</pdfrwt>
<totfact> 0.18286946E+03</totfact>
</mgrwt>
</event>
<event>
 4    1  0.2559694E-005  0.5536654E+03  0.7818608E-02  0.1000649E+00
         -1   -1    0    0    0  501 -0.00000000000E+00  0.00000000000E+00  0.62215536088E+03  0.62215536090E+03  0.50400000000E-02 0. -1.
          1   -1    0    0  501    0  0.00000000000E+00 -0.00000000000E+00 -0.12317880973E+03  0.12317880983E+03  0.50400000000E-02 0.  1.
    5000001    1    1    2    0    0  0.20628885783E+03  0.27275053241E+02  0.14424188702E+03  0.30220811267E+03  0.16500000000E+03 0.  0.
   -5000001    1    1    2    0    0 -0.20628885783E+03 -0.27275053241E+02  0.35473466413E+03  0.44312605805E+03  0.16500000000E+03 0.  0.
<mgrwt>
<rscale>  0 0.55366545E+03</rscale>
<asrwt>0</asrwt>
<pdfrwt beam="1">  1        1 0.17596973E-01 0.55366545E+03</pdfrwt>
<pdfrwt beam="2">  1       -1 0.88879338E-01 0.55366545E+03</pdfrwt>
<totfact> 0.39200027E+02</totfact>
</mgrwt>
</event>
<event>
 4    1  0.2559694E-005  0.1103892E+04  0.7818608E-02  0.9201407E-01
          1   -1    0    0  501    0  0.00000000000E+00  0.00000000000E+00  0.32812754385E+04  0.32812754385E+04  0.50400000000E-02 0.  1.
         -1   -1    0    0    0  501 -0.00000000000E+00 -0.00000000000E+00 -0.92843309298E+02  0.92843309435E+02  0.50400000000E-02 0. -1.
    5000001    1    1    2    0    0 -0.27864571358E+03  0.28780745029E+03  0.26394672359E+04  0.26747876273E+04  0.16500000000E+03 0.  0.
   -5000001    1    1    2    0    0  0.27864571358E+03 -0.28780745029E+03  0.54896489336E+03  0.69933112063E+03  0.16500000000E+03 0.  0.
<mgrwt>
<rscale>  0 0.11038922E+04</rscale>
<asrwt>0</asrwt>
<pdfrwt beam="1">  1        1 0.46875362E+00 0.11038922E+04</pdfrwt>
<pdfrwt beam="2">  1       -1 0.13263330E-01 0.11038922E+04</pdfrwt>
<totfact> 0.22535114E+01</totfact>
</mgrwt>
</event>
<event>
 4    1  0.2559694E-005  0.6991671E+03  0.7818608E-02  0.9718658E-01
         -1   -1    0    0    0  501 -0.00000000000E+00  0.00000000000E+00  0.50707983100E+02  0.50707983351E+02  0.50400000000E-02 0. -1.
          1   -1    0    0  501    0  0.00000000000E+00 -0.00000000000E+00 -0.24100478319E+04  0.24100478319E+04  0.50400000000E-02 0.  1.
    5000001    1    1    2    0    0 -0.73533652038E+02 -0.15918789496E+03 -0.28764766612E+03  0.37511886610E+03  0.16500000000E+03 0.  0.
   -5000001    1    1    2    0    0  0.73533652038E+02  0.15918789496E+03 -0.20716921827E+04  0.20856369491E+04  0.16500000000E+03 0.  0.
<mgrwt>
<rscale>  0 0.69916712E+03</rscale>
<asrwt>0</asrwt>
<pdfrwt beam="1">  1        1 0.34429248E+00 0.69916712E+03</pdfrwt>
<pdfrwt beam="2">  1       -1 0.72439991E-02 0.69916712E+03</pdfrwt>
<totfact> 0.22352138E+02</totfact>
</mgrwt>
</event>
<event>
 4    1  0.2559694E-005  0.4148060E+03  0.7818608E-02  0.1038770E+00
          1   -1    0    0  501    0  0.00000000000E+00  0.00000000000E+00  0.59233415823E+03  0.59233415825E+03  0.50400000000E-02 0. -1.
         -1   -1    0    0    0  501 -0.00000000000E+00 -0.00000000000E+00 -0.72621170803E+02  0.72621170977E+02  0.50400000000E-02 0.  1.
    5000001    1    1    2    0    0  0.10285716061E+03  0.48891333842E+01  0.37531516647E+03  0.42271736810E+03  0.16500000000E+03 0.  0.
   -5000001    1    1    2    0    0 -0.10285716061E+03 -0.48891333842E+01  0.14439782096E+03  0.24223796113E+03  0.16500000000E+03 0.  0.
<mgrwt>
<rscale>  0 0.41480598E+03</rscale>
<asrwt>0</asrwt>
<pdfrwt beam="1">  1        1 0.84619165E-01 0.41480598E+03</pdfrwt>
<pdfrwt beam="2">  1       -1 0.10374453E-01 0.41480598E+03</pdfrwt>
<totfact> 0.22950754E+03</totfact>
</mgrwt>
</event>
<event>
 4    1  0.2559694E-005  0.1460148E+04  0.7818608E-02  0.8911395E-01
         -1   -1    0    0    0  501 -0.00000000000E+00  0.00000000000E+00  0.14149150138E+04  0.14149150138E+04  0.50400000000E-02 0. -1.
          1   -1    0    0  501    0  0.00000000000E+00 -0.00000000000E+00 -0.37670672716E+03  0.37670672720E+03  0.50400000000E-02 0.  1.
    5000001    1    1    2    0    0  0.10665241902E+02 -0.66223335871E+03  0.83698418177E+03  0.10800158746E+04  0.16500000000E+03 0.  0.
   -5000001    1    1    2    0    0 -0.10665241902E+02  0.66223335871E+03  0.20122410487E+03  0.71160586644E+03  0.16500000000E+03 0.  0.
<mgrwt>
<rscale>  0 0.14601479E+04</rscale>
<asrwt>0</asrwt>
<pdfrwt beam="1">  1        1 0.53815247E-01 0.14601479E+04</pdfrwt>
<pdfrwt beam="2">  1       -1 0.20213072E+00 0.14601479E+04</pdfrwt>
<totfact> 0.10137229E+01</totfact>
</mgrwt>
</event>
<event>
 4    1  0.2559694E-005  0.5672263E+03  0.7818608E-02  0.9975835E-01
         -1   -1    0    0    0  501 -0.00000000000E+00  0.00000000000E+00  0.12486984685E+03  0.12486984696E+03  0.50400000000E-02 0. -1.
          1   -1    0    0  501    0  0.00000000000E+00 -0.00000000000E+00 -0.64416207776E+03  0.64416207778E+03  0.50400000000E-02 0.  1.
    5000001    1    1    2    0    0 -0.15437122435E+03  0.59575728287E+02 -0.47754966947E+03  0.53165630732E+03  0.16500000000E+03 0.  0.
   -5000001    1    1    2    0    0  0.15437122435E+03 -0.59575728287E+02 -0.41742561440E+02  0.23737561741E+03  0.16500000000E+03 0.  0.
<mgrwt>
<rscale>  0 0.56722630E+03</rscale>
<asrwt>0</asrwt>
<pdfrwt beam="1">  1        1 0.92023152E-01 0.56722630E+03</pdfrwt>
<pdfrwt beam="2">  1       -1 0.17838550E-01 0.56722630E+03</pdfrwt>
<totfact> 0.85634899E+02</totfact>
</mgrwt>
</event>
<event>
 4    1  0.2559694E-005  0.4180938E+03  0.7818608E-02  0.1037689E+00
         -1   -1    0    0    0  501 -0.00000000000E+00  0.00000000000E+00  0.13939190875E+03  0.13939190884E+03  0.50400000000E-02 0. -1.
          1   -1    0    0  501    0  0.00000000000E+00 -0.00000000000E+00 -0.31350886822E+03  0.31350886826E+03  0.50400000000E-02 0.  1.
    5000001    1    1    2    0    0 -0.61276594184E+00  0.77532829539E+02  0.23750725460E+02  0.18384997171E+03  0.16500000000E+03 0.  0.
   -5000001    1    1    2    0    0  0.61276594184E+00 -0.77532829539E+02 -0.19786768493E+03  0.26905080539E+03  0.16500000000E+03 0.  0.
<mgrwt>
<rscale>  0 0.41809377E+03</rscale>
<asrwt>0</asrwt>
<pdfrwt beam="1">  1        1 0.44786981E-01 0.41809377E+03</pdfrwt>
<pdfrwt beam="2">  1       -1 0.19913130E-01 0.41809377E+03</pdfrwt>
<totfact> 0.18597142E+03</totfact>
</mgrwt>
</event>
<event>
 4    1  0.2559694E-005  0.4432449E+03  0.7818608E-02  0.1029756E+00
          1   -1    0    0  501    0  0.00000000000E+00  0.00000000000E+00  0.23546356875E+03  0.23546356880E+03  0.50400000000E-02 0. -1.
         -1   -1    0    0    0  501 -0.00000000000E+00 -0.00000000000E+00 -0.20859496939E+03  0.20859496945E+03  0.50400000000E-02 0.  1.
    5000001    1    1    2    0    0 -0.30897520287E+02  0.14198796640E+03 -0.14478583318E+02  0.22034034750E+03  0.16500000000E+03 0.  0.
   -5000001    1    1    2    0    0  0.30897520287E+02 -0.14198796640E+03  0.41347182676E+02  0.22371819076E+03  0.16500000000E+03 0.  0.
<mgrwt>
<rscale>  0 0.44324493E+03</rscale>
<asrwt>0</asrwt>
<pdfrwt beam="1">  1        1 0.33637652E-01 0.44324493E+03</pdfrwt>
<pdfrwt beam="2">  1       -1 0.29799282E-01 0.44324493E+03</pdfrwt>
<totfact> 0.13612219E+03</totfact>
</mgrwt>
</event>
<event>
 4    1  0.2559694E-005  0.4755071E+03  0.7818608E-02  0.1020377E+00
          1   -1    0    0  501    0  0.00000000000E+00  0.00000000000E+00  0.10914590430E+03  0.10914590442E+03  0.50400000000E-02 0.  1.
         -1   -1    0    0    0  501 -0.00000000000E+00 -0.00000000000E+00 -0.51790079313E+03  0.51790079316E+03  0.50400000000E-02 0. -1.
    5000001    1    1    2    0    0 -0.44793477149E+02  0.16289273950E+03 -0.24076112328E+03  0.33724089114E+03  0.16500000000E+03 0.  0.
   -5000001    1    1    2    0    0  0.44793477149E+02 -0.16289273950E+03 -0.16799376555E+03  0.28980580643E+03  0.16500000000E+03 0.  0.
<mgrwt>
<rscale>  0 0.47550710E+03</rscale>
<asrwt>0</asrwt>
<pdfrwt beam="1">  1        1 0.15592272E-01 0.47550710E+03</pdfrwt>
<pdfrwt beam="2">  1       -1 0.73985826E-01 0.47550710E+03</pdfrwt>
<totfact> 0.67966135E+02</totfact>
</mgrwt>
</event>
<event>
 4    1  0.2559694E-005  0.5402243E+03  0.7818608E-02  0.1003782E+00
          1   -1    0    0  501    0  0.00000000000E+00  0.00000000000E+00  0.15186126767E+04  0.15186126767E+04  0.50400000000E-02 0.  1.
         -1   -1    0    0    0  501 -0.00000000000E+00 -0.00000000000E+00 -0.48044223018E+02  0.48044223282E+02  0.50400000000E-02 0. -1.
    5000001    1    1    2    0    0  0.11851296082E+03  0.90002611973E+02  0.28987245110E+03  0.36523530765E+03  0.16500000000E+03 0.  0.
   -5000001    1    1    2    0    0 -0.11851296082E+03 -0.90002611973E+02  0.11806960026E+04  0.12014215924E+04  0.16500000000E+03 0.  0.
<mgrwt>
<rscale>  0 0.54022427E+03</rscale>
<asrwt>0</asrwt>
<pdfrwt beam="1">  1        1 0.21694465E+00 0.54022427E+03</pdfrwt>
<pdfrwt beam="2">  1       -1 0.68634611E-02 0.54022427E+03</pdfrwt>
<totfact> 0.88185307E+02</totfact>
</mgrwt>
</event>
<event>
 4    1  0.2559694E-005  0.9396717E+03  0.7818608E-02  0.9377305E-01
          1   -1    0    0  501    0  0.00000000000E+00  0.00000000000E+00  0.23536983520E+04  0.23536983520E+04  0.50400000000E-02 0.  1.
         -1   -1    0    0    0  501 -0.00000000000E+00 -0.00000000000E+00 -0.93786744356E+02  0.93786744492E+02  0.50400000000E-02 0. -1.
    5000001    1    1    2    0    0 -0.27967708735E+03  0.33561655033E+03  0.99554735874E+03  0.10996350693E+04  0.16500000000E+03 0.  0.
   -5000001    1    1    2    0    0  0.27967708735E+03 -0.33561655033E+03  0.12643642489E+04  0.13478500273E+04  0.16500000000E+03 0.  0.
<mgrwt>
<rscale>  0 0.93967166E+03</rscale>
<asrwt>0</asrwt>
<pdfrwt beam="1">  1        1 0.33624261E+00 0.93967166E+03</pdfrwt>
<pdfrwt beam="2">  1       -1 0.13398107E-01 0.93967166E+03</pdfrwt>
<totfact> 0.89503789E+01</totfact>
</mgrwt>
</event>
<event>
 4    1  0.2559694E-005  0.4281367E+03  0.7818608E-02  0.1034450E+00
         -1   -1    0    0    0  501 -0.00000000000E+00  0.00000000000E+00  0.86831565499E+02  0.86831565645E+02  0.50400000000E-02 0. -1.
          1   -1    0    0  501    0  0.00000000000E+00 -0.00000000000E+00 -0.52774879310E+03  0.52774879312E+03  0.50400000000E-02 0.  1.
    5000001    1    1    2    0    0 -0.10460625910E+02 -0.12601919366E+03 -0.29379438033E+03  0.35990332005E+03  0.16500000000E+03 0.  0.
   -5000001    1    1    2    0    0  0.10460625910E+02  0.12601919366E+03 -0.14712284726E+03  0.25467703872E+03  0.16500000000E+03 0.  0.
<mgrwt>
<rscale>  0 0.42813668E+03</rscale>
<asrwt>0</asrwt>
<pdfrwt beam="1">  1        1 0.75392683E-01 0.42813668E+03</pdfrwt>
<pdfrwt beam="2">  1       -1 0.12404510E-01 0.42813668E+03</pdfrwt>
<totfact> 0.20270815E+03</totfact>
</mgrwt>
</event>
<event>
 4    1  0.2559694E-005  0.4935877E+03  0.7818608E-02  0.1015466E+00
          1   -1    0    0  501    0  0.00000000000E+00  0.00000000000E+00  0.48855979305E+02  0.48855979565E+02  0.50400000000E-02 0.  1.
         -1   -1    0    0    0  501 -0.00000000000E+00 -0.00000000000E+00 -0.12466684321E+04  0.12466684321E+04  0.50400000000E-02 0. -1.
    5000001    1    1    2    0    0 -0.26886387467E+02 -0.11662334146E+03 -0.96409309930E+03  0.98540569601E+03  0.16500000000E+03 0.  0.
   -5000001    1    1    2    0    0  0.26886387467E+02  0.11662334146E+03 -0.23371935345E+03  0.31011871563E+03  0.16500000000E+03 0.  0.
<mgrwt>
<rscale>  0 0.49358771E+03</rscale>
<asrwt>0</asrwt>
<pdfrwt beam="1">  1        1 0.69794264E-02 0.49358771E+03</pdfrwt>
<pdfrwt beam="2">  1       -1 0.17809547E+00 0.49358771E+03</pdfrwt>
<totfact> 0.24490839E+02</totfact>
</mgrwt>
</event>
<event>
 4    1  0.2559694E-005  0.5267662E+03  0.7818608E-02  0.1007019E+00
         -1   -1    0    0    0  501 -0.00000000000E+00  0.00000000000E+00  0.14760602873E+03  0.14760602882E+03  0.50400000000E-02 0. -1.
          1   -1    0    0  501    0  0.00000000000E+00 -0.00000000000E+00 -0.46997168026E+03  0.46997168029E+03  0.50400000000E-02 0.  1.
    5000001    1    1    2    0    0  0.15379793475E+03 -0.13457830031E+03 -0.18405292335E+03  0.32072667841E+03  0.16500000000E+03 0.  0.
   -5000001    1    1    2    0    0 -0.15379793475E+03  0.13457830031E+03 -0.13831272817E+03  0.29685103069E+03  0.16500000000E+03 0.  0.
<mgrwt>
<rscale>  0 0.52676618E+03</rscale>
<asrwt>0</asrwt>
<pdfrwt beam="1">  1        1 0.67138811E-01 0.52676618E+03</pdfrwt>
<pdfrwt beam="2">  1       -1 0.21086576E-01 0.52676618E+03</pdfrwt>
<totfact> 0.10015908E+03</totfact>
</mgrwt>
</event>
<event>
 4    1  0.2559694E-005  0.5087972E+03  0.7818608E-02  0.1011508E+00
          1   -1    0    0  501    0  0.00000000000E+00  0.00000000000E+00  0.12506568892E+04  0.12506568892E+04  0.50400000000E-02 0.  1.
         -1   -1    0    0    0  501 -0.00000000000E+00 -0.00000000000E+00 -0.51747733543E+02  0.51747733789E+02  0.50400000000E-02 0. -1.
    5000001    1    1    2    0    0  0.97523939113E+02 -0.18578725462E+02  0.10250050914E+04  0.10429364914E+04  0.16500000000E+03 0.  0.
   -5000001    1    1    2    0    0 -0.97523939113E+02  0.18578725462E+02  0.17390406426E+03  0.25946813158E+03  0.16500000000E+03 0.  0.
<mgrwt>
<rscale>  0 0.50879725E+03</rscale>
<asrwt>0</asrwt>
<pdfrwt beam="1">  1        1 0.17866525E+00 0.50879725E+03</pdfrwt>
<pdfrwt beam="2">  1       -1 0.73925341E-02 0.50879725E+03</pdfrwt>
<totfact> 0.11773431E+03</totfact>
</mgrwt>
</event>
<event>
 4    1  0.2559694E-005  0.7808009E+03  0.7818608E-02  0.9588230E-01
         -1   -1    0    0    0  501 -0.00000000000E+00  0.00000000000E+00  0.20091059300E+03  0.20091059307E+03  0.50400000000E-02 0. -1.
          1   -1    0    0  501    0  0.00000000000E+00 -0.00000000000E+00 -0.75860859212E+03  0.75860859214E+03  0.50400000000E-02 0.  1.
    5000001    1    1    2    0    0  0.24990097680E+03  0.24664739591E+03 -0.22525376634E+03  0.44860862159E+03  0.16500000000E+03 0.  0.
   -5000001    1    1    2    0    0 -0.24990097680E+03 -0.24664739591E+03 -0.33244423278E+03  0.51091056362E+03  0.16500000000E+03 0.  0.
<mgrwt>
<rscale>  0 0.78080088E+03</rscale>
<asrwt>0</asrwt>
<pdfrwt beam="1">  1        1 0.10837265E+00 0.78080088E+03</pdfrwt>
<pdfrwt beam="2">  1       -1 0.28701514E-01 0.78080088E+03</pdfrwt>
<totfact> 0.30007922E+02</totfact>
</mgrwt>
</event>
<event>
 4    1  0.2559694E-005  0.4976926E+03  0.7818608E-02  0.1014383E+00
          1   -1    0    0  501    0  0.00000000000E+00  0.00000000000E+00  0.97979094868E+03  0.97979094869E+03  0.50400000000E-02 0. -1.
         -1   -1    0    0    0  501 -0.00000000000E+00 -0.00000000000E+00 -0.63201733443E+02  0.63201733643E+02  0.50400000000E-02 0.  1.
    5000001    1    1    2    0    0 -0.12241023471E+03 -0.14024092722E+03  0.47276879021E+03  0.53421635338E+03  0.16500000000E+03 0.  0.
   -5000001    1    1    2    0    0  0.12241023471E+03  0.14024092722E+03  0.44382042503E+03  0.50877632895E+03  0.16500000000E+03 0.  0.
<mgrwt>
<rscale>  0 0.49769262E+03</rscale>
<asrwt>0</asrwt>
<pdfrwt beam="1">  1        1 0.13997012E+00 0.49769262E+03</pdfrwt>
<pdfrwt beam="2">  1       -1 0.90288199E-02 0.49769262E+03</pdfrwt>
<totfact> 0.13376575E+03</totfact>
</mgrwt>
</event>
<event>
 4    1  0.2559694E-005  0.4292759E+03  0.7818608E-02  0.1034089E+00
         -1   -1    0    0    0  501 -0.00000000000E+00  0.00000000000E+00  0.71430917056E+03  0.71430917057E+03  0.50400000000E-02 0. -1.
          1   -1    0    0  501    0  0.00000000000E+00 -0.00000000000E+00 -0.64495126019E+02  0.64495126216E+02  0.50400000000E-02 0.  1.
    5000001    1    1    2    0    0 -0.68061857205E+02 -0.11522509233E+03  0.26942540901E+03  0.34310973366E+03  0.16500000000E+03 0.  0.
   -5000001    1    1    2    0    0  0.68061857205E+02  0.11522509233E+03  0.38038863552E+03  0.43569456313E+03  0.16500000000E+03 0.  0.
<mgrwt>
<rscale>  0 0.42927595E+03</rscale>
<asrwt>0</asrwt>
<pdfrwt beam="1">  1        1 0.92135895E-02 0.42927595E+03</pdfrwt>
<pdfrwt beam="2">  1       -1 0.10204417E+00 0.42927595E+03</pdfrwt>
<totfact> 0.69195954E+02</totfact>
</mgrwt>
</event>
<event>
 4    1  0.2559694E-005  0.5354219E+03  0.7818608E-02  0.1004926E+00
          1   -1    0    0  501    0  0.00000000000E+00  0.00000000000E+00  0.30516953488E+04  0.30516953488E+04  0.50400000000E-02 0.  1.
         -1   -1    0    0    0  501 -0.00000000000E+00 -0.00000000000E+00 -0.23485026491E+02  0.23485027032E+02  0.50400000000E-02 0. -1.
    5000001    1    1    2    0    0  0.59309013654E+02 -0.20038010519E+03  0.13542754499E+04  0.13802017026E+04  0.16500000000E+03 0.  0.
   -5000001    1    1    2    0    0 -0.59309013654E+02  0.20038010519E+03  0.16739348724E+04  0.16949786732E+04  0.16500000000E+03 0.  0.
<mgrwt>
<rscale>  0 0.53542188E+03</rscale>
<asrwt>0</asrwt>
<pdfrwt beam="1">  1        1 0.43595628E+00 0.53542188E+03</pdfrwt>
<pdfrwt beam="2">  1       -1 0.33550054E-02 0.53542188E+03</pdfrwt>
<totfact> 0.28935257E+02</totfact>
</mgrwt>
</event>
<event>
 4    1  0.2559694E-005  0.3980952E+03  0.7818608E-02  0.1044441E+00
         -1   -1    0    0    0  501 -0.00000000000E+00  0.00000000000E+00  0.46935390003E+02  0.46935390274E+02  0.50400000000E-02 0.  1.
          1   -1    0    0  501    0  0.00000000000E+00 -0.00000000000E+00 -0.84413785387E+03  0.84413785388E+03  0.50400000000E-02 0. -1.
    5000001    1    1    2    0    0  0.17858664112E+02 -0.15405662430E+02 -0.15505690380E+03  0.22764865415E+03  0.16500000000E+03 0.  0.
   -5000001    1    1    2    0    0 -0.17858664112E+02  0.15405662430E+02 -0.64214556007E+03  0.66342459001E+03  0.16500000000E+03 0.  0.
<mgrwt>
<rscale>  0 0.39809516E+03</rscale>
<asrwt>0</asrwt>
<pdfrwt beam="1">  1        1 0.12059111E+00 0.39809516E+03</pdfrwt>
<pdfrwt beam="2">  1       -1 0.67050563E-02 0.39809516E+03</pdfrwt>
<totfact> 0.26941106E+03</totfact>
</mgrwt>
</event>
<event>
 4    1  0.2559694E-005  0.4681183E+03  0.7818608E-02  0.1022453E+00
          1   -1    0    0  501    0  0.00000000000E+00  0.00000000000E+00  0.53521240409E+02  0.53521240646E+02  0.50400000000E-02 0. -1.
         -1   -1    0    0    0  501 -0.00000000000E+00 -0.00000000000E+00 -0.10235875320E+04  0.10235875320E+04  0.50400000000E-02 0.  1.
    5000001    1    1    2    0    0 -0.26929643841E+02  0.15870374305E+03 -0.57840088055E+03  0.62264328664E+03  0.16500000000E+03 0.  0.
   -5000001    1    1    2    0    0  0.26929643841E+02 -0.15870374305E+03 -0.39166541103E+03  0.45446548601E+03  0.16500000000E+03 0.  0.
<mgrwt>
<rscale>  0 0.46811825E+03</rscale>
<asrwt>0</asrwt>
<pdfrwt beam="1">  1        1 0.76458922E-02 0.46811825E+03</pdfrwt>
<pdfrwt beam="2">  1       -1 0.14622678E+00 0.46811825E+03</pdfrwt>
<totfact> 0.37234308E+02</totfact>
</mgrwt>
</event>
<event>
 4    1  0.2559694E-005  0.4578189E+03  0.7818608E-02  0.1025416E+00
          1   -1    0    0  501    0  0.00000000000E+00  0.00000000000E+00  0.37544144934E+03  0.37544144938E+03  0.50400000000E-02 0.  1.
         -1   -1    0    0    0  501 -0.00000000000E+00 -0.00000000000E+00 -0.13956781342E+03  0.13956781351E+03  0.50400000000E-02 0. -1.
    5000001    1    1    2    0    0 -0.15031617646E+03  0.47870932480E+02  0.13702610547E+03  0.26624750264E+03  0.16500000000E+03 0.  0.
   -5000001    1    1    2    0    0  0.15031617646E+03 -0.47870932480E+02  0.98847530449E+02  0.24876176024E+03  0.16500000000E+03 0.  0.
<mgrwt>
<rscale>  0 0.45781893E+03</rscale>
<asrwt>0</asrwt>
<pdfrwt beam="1">  1        1 0.53634492E-01 0.45781893E+03</pdfrwt>
<pdfrwt beam="2">  1       -1 0.19938259E-01 0.45781893E+03</pdfrwt>
<totfact> 0.14738495E+03</totfact>
</mgrwt>
</event>
<event>
 4    1  0.2559694E-005  0.4692338E+03  0.7818608E-02  0.1022137E+00
         -1   -1    0    0    0  501 -0.00000000000E+00  0.00000000000E+00  0.10150429581E+03  0.10150429594E+03  0.50400000000E-02 0. -1.
          1   -1    0    0  501    0  0.00000000000E+00 -0.00000000000E+00 -0.54229331834E+03  0.54229331836E+03  0.50400000000E-02 0.  1.
    5000001    1    1    2    0    0 -0.44980465664E+02  0.13711732491E+03 -0.10563846762E+03  0.24332876715E+03  0.16500000000E+03 0.  0.
   -5000001    1    1    2    0    0  0.44980465664E+02 -0.13711732491E+03 -0.33515055491E+03  0.40046884715E+03  0.16500000000E+03 0.  0.
<mgrwt>
<rscale>  0 0.46923385E+03</rscale>
<asrwt>0</asrwt>
<pdfrwt beam="1">  1        1 0.77470473E-01 0.46923385E+03</pdfrwt>
<pdfrwt beam="2">  1       -1 0.14500614E-01 0.46923385E+03</pdfrwt>
<totfact> 0.15237504E+03</totfact>
</mgrwt>
</event>
<event>
 4    1  0.2559694E-005  0.4316535E+03  0.7818608E-02  0.1033339E+00
          1   -1    0    0  501    0  0.00000000000E+00  0.00000000000E+00  0.94362718275E+03  0.94362718277E+03  0.50400000000E-02 0. -1.
         -1   -1    0    0    0  501 -0.00000000000E+00 -0.00000000000E+00 -0.49363982658E+02  0.49363982915E+02  0.50400000000E-02 0.  1.
    5000001    1    1    2    0    0  0.72518561136E+02 -0.90670988517E+02  0.62347204464E+03  0.65530341088E+03  0.16500000000E+03 0.  0.
   -5000001    1    1    2    0    0 -0.72518561136E+02  0.90670988517E+02  0.27079115546E+03  0.33768775480E+03  0.16500000000E+03 0.  0.
<mgrwt>
<rscale>  0 0.43165355E+03</rscale>
<asrwt>0</asrwt>
<pdfrwt beam="1">  1        1 0.13480387E+00 0.43165355E+03</pdfrwt>
<pdfrwt beam="2">  1       -1 0.70519981E-02 0.43165355E+03</pdfrwt>
<totfact> 0.20891179E+03</totfact>
</mgrwt>
</event>
<event>
 4    1  0.2559694E-005  0.4420764E+03  0.7818608E-02  0.1030112E+00
         -1   -1    0    0    0  501 -0.00000000000E+00  0.00000000000E+00  0.28468945355E+02  0.28468945801E+02  0.50400000000E-02 0. -1.
          1   -1    0    0  501    0  0.00000000000E+00 -0.00000000000E+00 -0.17161814015E+04  0.17161814015E+04  0.50400000000E-02 0.  1.
    5000001    1    1    2    0    0  0.27137353585E+02 -0.13079820892E+03 -0.10867584228E+04  0.11073000844E+04  0.16500000000E+03 0.  0.
   -5000001    1    1    2    0    0 -0.27137353585E+02  0.13079820892E+03 -0.60095403331E+03  0.63735026286E+03  0.16500000000E+03 0.  0.
<mgrwt>
<rscale>  0 0.44207635E+03</rscale>
<asrwt>0</asrwt>
<pdfrwt beam="1">  1        1 0.24516871E+00 0.44207635E+03</pdfrwt>
<pdfrwt beam="2">  1       -1 0.40669933E-02 0.44207635E+03</pdfrwt>
<totfact> 0.14791618E+03</totfact>
</mgrwt>
</event>
<event>
 4    1  0.2559694E-005  0.3580958E+03  0.7818608E-02  0.1059340E+00
         -1   -1    0    0    0  501 -0.00000000000E+00  0.00000000000E+00  0.17356696944E+04  0.17356696944E+04  0.50400000000E-02 0. -1.
          1   -1    0    0  501    0  0.00000000000E+00 -0.00000000000E+00 -0.18470185811E+02  0.18470186499E+02  0.50400000000E-02 0.  1.
    5000001    1    1    2    0    0 -0.57974414978E+02  0.38365172517E+02  0.85628592585E+03  0.87480483884E+03  0.16500000000E+03 0.  0.
   -5000001    1    1    2    0    0  0.57974414978E+02 -0.38365172517E+02  0.86091358272E+03  0.87933504204E+03  0.16500000000E+03 0.  0.
<mgrwt>
<rscale>  0 0.35809575E+03</rscale>
<asrwt>0</asrwt>
<pdfrwt beam="1">  1        1 0.26385992E-02 0.35809575E+03</pdfrwt>
<pdfrwt beam="2">  1       -1 0.24795270E+00 0.35809575E+03</pdfrwt>
<totfact> 0.33314663E+02</totfact>
</mgrwt>
</event>
