<event>
 4    1  0.5455400E-005  0.8728934E+03  0.7818608E-02  0.9460115E-01
          2   -1    0    0  501    0  0.00000000000E+00  0.00000000000E+00  0.57959889656E+03  0.57959889656E+03  0.25500000000E-02 0.  1.
         -2   -1    0    0    0  501 -0.00000000000E+00 -0.00000000000E+00 -0.32865097584E+03  0.32865097585E+03  0.25500000000E-02 0. -1.
    5000001    1    1    2    0    0 -0.12551927446E+03 -0.24573702811E+03  0.41510081465E+03  0.53414835165E+03  0.19200000000E+03 0.  0.
   -5000001    1    1    2    0    0  0.12551927446E+03  0.24573702811E+03 -0.16415289393E+03  0.37410152076E+03  0.19200000000E+03 0.  0.
<mgrwt>
<rscale>  0 0.87289345E+03</rscale>
<asrwt>0</asrwt>
<pdfrwt beam="1">  1        2 0.82799841E-01 0.87289345E+03</pdfrwt>
<pdfrwt beam="2">  1       -2 0.46950140E-01 0.87289345E+03</pdfrwt>
<totfact> 0.24395100E+02</totfact>
</mgrwt>
</event>
<event>
 4    1  0.5455400E-005  0.9861617E+03  0.7818608E-02  0.9323854E-01
          2   -1    0    0  501    0  0.00000000000E+00  0.00000000000E+00  0.22911638135E+04  0.22911638135E+04  0.25500000000E-02 0.  1.
         -2   -1    0    0    0  501 -0.00000000000E+00 -0.00000000000E+00 -0.10611581997E+03  0.10611582000E+03  0.25500000000E-02 0. -1.
    5000001    1    1    2    0    0  0.39840815101E+03  0.11558706611E+03  0.15419174524E+04  0.16082483809E+04  0.19200000000E+03 0.  0.
   -5000001    1    1    2    0    0 -0.39840815101E+03 -0.11558706611E+03  0.64313054114E+03  0.78903125261E+03  0.19200000000E+03 0.  0.
<mgrwt>
<rscale>  0 0.98616170E+03</rscale>
<asrwt>0</asrwt>
<pdfrwt beam="1">  1        2 0.32730910E+00 0.98616170E+03</pdfrwt>
<pdfrwt beam="2">  1       -2 0.15159404E-01 0.98616170E+03</pdfrwt>
<totfact> 0.19668602E+02</totfact>
</mgrwt>
</event>
<event>
 4    1  0.5455400E-005  0.3972255E+03  0.7818608E-02  0.1044745E+00
         -2   -1    0    0    0  501 -0.00000000000E+00  0.00000000000E+00  0.14763273588E+03  0.14763273590E+03  0.25500000000E-02 0. -1.
          2   -1    0    0  501    0  0.00000000000E+00 -0.00000000000E+00 -0.26719699265E+03  0.26719699266E+03  0.25500000000E-02 0.  1.
    5000001    1    1    2    0    0  0.49652395566E+02 -0.82776696624E+01 -0.52461254389E+02  0.20530480611E+03  0.19200000000E+03 0.  0.
   -5000001    1    1    2    0    0 -0.49652395566E+02  0.82776696624E+01 -0.67103002384E+02  0.20952492245E+03  0.19200000000E+03 0.  0.
<mgrwt>
<rscale>  0 0.39722549E+03</rscale>
<asrwt>0</asrwt>
<pdfrwt beam="1">  1        2 0.38170999E-01 0.39722549E+03</pdfrwt>
<pdfrwt beam="2">  1       -2 0.21090391E-01 0.39722549E+03</pdfrwt>
<totfact> 0.25969309E+03</totfact>
</mgrwt>
</event>
<event>
 4    1  0.5455400E-005  0.8052686E+03  0.7818608E-02  0.9552422E-01
         -2   -1    0    0    0  501 -0.00000000000E+00  0.00000000000E+00  0.15776773584E+04  0.15776773584E+04  0.25500000000E-02 0. -1.
          2   -1    0    0  501    0  0.00000000000E+00 -0.00000000000E+00 -0.10275508889E+03  0.10275508892E+03  0.25500000000E-02 0.  1.
    5000001    1    1    2    0    0  0.18240569315E+03 -0.22103088266E+03  0.30411067874E+03  0.45986279792E+03  0.19200000000E+03 0.  0.
   -5000001    1    1    2    0    0 -0.18240569315E+03  0.22103088266E+03  0.11708115907E+04  0.12205696494E+04  0.19200000000E+03 0.  0.
<mgrwt>
<rscale>  0 0.80526859E+03</rscale>
<asrwt>0</asrwt>
<pdfrwt beam="1">  1        2 0.14679300E-01 0.80526859E+03</pdfrwt>
<pdfrwt beam="2">  1       -2 0.22538246E+00 0.80526859E+03</pdfrwt>
<totfact> 0.38330602E+01</totfact>
</mgrwt>
</event>
<event>
 4    1  0.5455400E-005  0.4608002E+03  0.7818608E-02  0.1024549E+00
          2   -1    0    0  501    0  0.00000000000E+00  0.00000000000E+00  0.25275765801E+04  0.25275765801E+04  0.25500000000E-02 0.  1.
         -2   -1    0    0    0  501 -0.00000000000E+00 -0.00000000000E+00 -0.21002014456E+02  0.21002014611E+02  0.25500000000E-02 0. -1.
    5000001    1    1    2    0    0 -0.29400752290E+01 -0.12353419940E+03  0.10827406536E+04  0.11065535077E+04  0.19200000000E+03 0.  0.
   -5000001    1    1    2    0    0  0.29400752290E+01  0.12353419940E+03  0.14238339120E+04  0.14420250870E+04  0.19200000000E+03 0.  0.
<mgrwt>
<rscale>  0 0.46080017E+03</rscale>
<asrwt>0</asrwt>
<pdfrwt beam="1">  1        2 0.36108222E+00 0.46080017E+03</pdfrwt>
<pdfrwt beam="2">  1       -2 0.30002890E-02 0.46080017E+03</pdfrwt>
<totfact> 0.20276744E+03</totfact>
</mgrwt>
</event>
<event>
 4    1  0.5455400E-005  0.5929792E+03  0.7818608E-02  0.9920080E-01
          2   -1    0    0  501    0  0.00000000000E+00  0.00000000000E+00  0.14976495388E+04  0.14976495388E+04  0.25500000000E-02 0. -1.
         -2   -1    0    0    0  501 -0.00000000000E+00 -0.00000000000E+00 -0.58696021971E+02  0.58696022026E+02  0.25500000000E-02 0.  1.
    5000001    1    1    2    0    0  0.19122710311E+03  0.11955000206E+03  0.68406262348E+03  0.74542986310E+03  0.19200000000E+03 0.  0.
   -5000001    1    1    2    0    0 -0.19122710311E+03 -0.11955000206E+03  0.75489089333E+03  0.81091569771E+03  0.19200000000E+03 0.  0.
<mgrwt>
<rscale>  0 0.59297916E+03</rscale>
<asrwt>0</asrwt>
<pdfrwt beam="1">  1        2 0.21394993E+00 0.59297916E+03</pdfrwt>
<pdfrwt beam="2">  1       -2 0.83851462E-02 0.59297916E+03</pdfrwt>
<totfact> 0.13571360E+03</totfact>
</mgrwt>
</event>
<event>
 4    1  0.5455400E-005  0.8696428E+03  0.7818608E-02  0.9464346E-01
         -2   -1    0    0    0  501 -0.00000000000E+00  0.00000000000E+00  0.54138630470E+02  0.54138630530E+02  0.25500000000E-02 0. -1.
          2   -1    0    0  501    0  0.00000000000E+00 -0.00000000000E+00 -0.34923244934E+04  0.34923244934E+04  0.25500000000E-02 0.  1.
    5000001    1    1    2    0    0 -0.12293792567E+03 -0.30158611001E+03 -0.84313604582E+03  0.92401856425E+03  0.19200000000E+03 0.  0.
   -5000001    1    1    2    0    0  0.12293792567E+03  0.30158611001E+03 -0.25950498171E+04  0.26224445597E+04  0.19200000000E+03 0.  0.
<mgrwt>
<rscale>  0 0.86964284E+03</rscale>
<asrwt>0</asrwt>
<pdfrwt beam="1">  1        2 0.49890336E+00 0.86964284E+03</pdfrwt>
<pdfrwt beam="2">  1       -2 0.77340923E-02 0.86964284E+03</pdfrwt>
<totfact> 0.13254704E+02</totfact>
</mgrwt>
</event>
<event>
 4    1  0.5455400E-005  0.4532928E+03  0.7818608E-02  0.1026745E+00
          2   -1    0    0  501    0  0.00000000000E+00  0.00000000000E+00  0.76182491985E+03  0.76182491985E+03  0.25500000000E-02 0.  1.
         -2   -1    0    0    0  501 -0.00000000000E+00 -0.00000000000E+00 -0.67428330727E+02  0.67428330775E+02  0.25500000000E-02 0. -1.
    5000001    1    1    2    0    0  0.97858530053E+02  0.33625485690E+02  0.23446193560E+03  0.32022392859E+03  0.19200000000E+03 0.  0.
   -5000001    1    1    2    0    0 -0.97858530053E+02 -0.33625485690E+02  0.45993465352E+03  0.50902932204E+03  0.19200000000E+03 0.  0.
<mgrwt>
<rscale>  0 0.45329276E+03</rscale>
<asrwt>0</asrwt>
<pdfrwt beam="1">  1        2 0.10883213E+00 0.45329276E+03</pdfrwt>
<pdfrwt beam="2">  1       -2 0.96326192E-02 0.45329276E+03</pdfrwt>
<totfact> 0.29357033E+03</totfact>
</mgrwt>
</event>
<event>
 4    1  0.5455400E-005  0.6921209E+03  0.7818608E-02  0.9730802E-01
          2   -1    0    0  501    0  0.00000000000E+00  0.00000000000E+00  0.44382616320E+03  0.44382616320E+03  0.25500000000E-02 0.  1.
         -2   -1    0    0    0  501 -0.00000000000E+00 -0.00000000000E+00 -0.26983048811E+03  0.26983048812E+03  0.25500000000E-02 0. -1.
    5000001    1    1    2    0    0  0.27491522299E+03 -0.58518757587E+02  0.15131668913E+03  0.37250981897E+03  0.19200000000E+03 0.  0.
   -5000001    1    1    2    0    0 -0.27491522299E+03  0.58518757587E+02  0.22678985957E+02  0.34114683235E+03  0.19200000000E+03 0.  0.
<mgrwt>
<rscale>  0 0.69212089E+03</rscale>
<asrwt>0</asrwt>
<pdfrwt beam="1">  1        2 0.63403738E-01 0.69212089E+03</pdfrwt>
<pdfrwt beam="2">  1       -2 0.38547212E-01 0.69212089E+03</pdfrwt>
<totfact> 0.49211607E+02</totfact>
</mgrwt>
</event>
<event>
 4    1  0.5455400E-005  0.5359035E+03  0.7818608E-02  0.1004810E+00
         -2   -1    0    0    0  501 -0.00000000000E+00  0.00000000000E+00  0.16134225172E+03  0.16134225174E+03  0.25500000000E-02 0. -1.
          2   -1    0    0  501    0  0.00000000000E+00 -0.00000000000E+00 -0.44500512915E+03  0.44500512916E+03  0.25500000000E-02 0.  1.
    5000001    1    1    2    0    0 -0.54886252211E+02  0.10590619710E+03  0.20977360202E+02  0.22700808996E+03  0.19200000000E+03 0.  0.
   -5000001    1    1    2    0    0  0.54886252211E+02 -0.10590619710E+03 -0.30464023763E+03  0.37933929094E+03  0.19200000000E+03 0.  0.
<mgrwt>
<rscale>  0 0.53590346E+03</rscale>
<asrwt>0</asrwt>
<pdfrwt beam="1">  1        2 0.63572161E-01 0.53590346E+03</pdfrwt>
<pdfrwt beam="2">  1       -2 0.23048893E-01 0.53590346E+03</pdfrwt>
<totfact> 0.12716920E+03</totfact>
</mgrwt>
</event>
<event>
 4    1  0.5455400E-005  0.4926800E+03  0.7818608E-02  0.1015707E+00
          2   -1    0    0  501    0  0.00000000000E+00  0.00000000000E+00  0.11933260839E+04  0.11933260839E+04  0.25500000000E-02 0.  1.
         -2   -1    0    0    0  501 -0.00000000000E+00 -0.00000000000E+00 -0.50852318512E+02  0.50852318576E+02  0.25500000000E-02 0. -1.
    5000001    1    1    2    0    0 -0.15224142769E+03  0.23555176440E+02  0.59480503640E+03  0.64373078998E+03  0.19200000000E+03 0.  0.
   -5000001    1    1    2    0    0  0.15224142769E+03 -0.23555176440E+02  0.54766872896E+03  0.60044761247E+03  0.19200000000E+03 0.  0.
<mgrwt>
<rscale>  0 0.49268001E+03</rscale>
<asrwt>0</asrwt>
<pdfrwt beam="1">  1        2 0.17047513E+00 0.49268001E+03</pdfrwt>
<pdfrwt beam="2">  1       -2 0.72646181E-02 0.49268001E+03</pdfrwt>
<totfact> 0.24881182E+03</totfact>
</mgrwt>
</event>
<event>
 4    1  0.5455400E-005  0.9527503E+03  0.7818608E-02  0.9361942E-01
          2   -1    0    0  501    0  0.00000000000E+00  0.00000000000E+00  0.42656091329E+03  0.42656091329E+03  0.25500000000E-02 0.  1.
         -2   -1    0    0    0  501 -0.00000000000E+00 -0.00000000000E+00 -0.53200672810E+03  0.53200672811E+03  0.25500000000E-02 0. -1.
    5000001    1    1    2    0    0 -0.27316922407E+03 -0.33853372259E+03 -0.23515158590E+02  0.47607086552E+03  0.19200000000E+03 0.  0.
   -5000001    1    1    2    0    0  0.27316922407E+03  0.33853372259E+03 -0.81930656225E+02  0.48249677588E+03  0.19200000000E+03 0.  0.
<mgrwt>
<rscale>  0 0.95275028E+03</rscale>
<asrwt>0</asrwt>
<pdfrwt beam="1">  1        2 0.60937274E-01 0.95275028E+03</pdfrwt>
<pdfrwt beam="2">  1       -2 0.76000961E-01 0.95275028E+03</pdfrwt>
<totfact> 0.12492983E+02</totfact>
</mgrwt>
</event>
<event>
 4    1  0.5455400E-005  0.5109995E+03  0.7818608E-02  0.1010947E+00
         -2   -1    0    0    0  501 -0.00000000000E+00  0.00000000000E+00  0.46993348248E+02  0.46993348317E+02  0.25500000000E-02 0. -1.
          2   -1    0    0  501    0  0.00000000000E+00 -0.00000000000E+00 -0.13891352081E+04  0.13891352081E+04  0.25500000000E-02 0.  1.
    5000001    1    1    2    0    0  0.11939725344E+03  0.85561030767E+02 -0.90350085737E+03  0.93528294830E+03  0.19200000000E+03 0.  0.
   -5000001    1    1    2    0    0 -0.11939725344E+03 -0.85561030767E+02 -0.43864100251E+03  0.50084560815E+03  0.19200000000E+03 0.  0.
<mgrwt>
<rscale>  0 0.51099947E+03</rscale>
<asrwt>0</asrwt>
<pdfrwt beam="1">  1        2 0.19844786E+00 0.51099947E+03</pdfrwt>
<pdfrwt beam="2">  1       -2 0.67133363E-02 0.51099947E+03</pdfrwt>
<totfact> 0.22057336E+03</totfact>
</mgrwt>
</event>
<event>
 4    1  0.5455400E-005  0.1077505E+04  0.7818608E-02  0.9227399E-01
          2   -1    0    0  501    0  0.00000000000E+00  0.00000000000E+00  0.88517739429E+03  0.88517739429E+03  0.25500000000E-02 0.  1.
         -2   -1    0    0    0  501 -0.00000000000E+00 -0.00000000000E+00 -0.32790493175E+03  0.32790493176E+03  0.25500000000E-02 0. -1.
    5000001    1    1    2    0    0  0.41184337490E+03 -0.10359696948E+03  0.58290660157E+03  0.74631856716E+03  0.19200000000E+03 0.  0.
   -5000001    1    1    2    0    0 -0.41184337490E+03  0.10359696948E+03 -0.25634139030E+02  0.46676375890E+03  0.19200000000E+03 0.  0.
<mgrwt>
<rscale>  0 0.10775046E+04</rscale>
<asrwt>0</asrwt>
<pdfrwt beam="1">  1        2 0.12645391E+00 0.10775046E+04</pdfrwt>
<pdfrwt beam="2">  1       -2 0.46843562E-01 0.10775046E+04</pdfrwt>
<totfact> 0.14275767E+02</totfact>
</mgrwt>
</event>
<event>
 4    1  0.5455400E-005  0.4052776E+03  0.7818608E-02  0.1041967E+00
          2   -1    0    0  501    0  0.00000000000E+00  0.00000000000E+00  0.70186621163E+03  0.70186621164E+03  0.25500000000E-02 0.  1.
         -2   -1    0    0    0  501 -0.00000000000E+00 -0.00000000000E+00 -0.58504705264E+02  0.58504705319E+02  0.25500000000E-02 0. -1.
    5000001    1    1    2    0    0  0.49598822433E+02  0.36847757635E+02  0.35828659215E+03  0.41115822082E+03  0.19200000000E+03 0.  0.
   -5000001    1    1    2    0    0 -0.49598822433E+02 -0.36847757635E+02  0.28507491422E+03  0.34921269614E+03  0.19200000000E+03 0.  0.
<mgrwt>
<rscale>  0 0.40527756E+03</rscale>
<asrwt>0</asrwt>
<pdfrwt beam="1">  1        2 0.10026660E+00 0.40527756E+03</pdfrwt>
<pdfrwt beam="2">  1       -2 0.83578155E-02 0.40527756E+03</pdfrwt>
<totfact> 0.40647797E+03</totfact>
</mgrwt>
</event>
<event>
 4    1  0.5455400E-005  0.4610671E+03  0.7818608E-02  0.1024472E+00
          2   -1    0    0  501    0  0.00000000000E+00  0.00000000000E+00  0.46208118084E+03  0.46208118085E+03  0.25500000000E-02 0.  1.
         -2   -1    0    0    0  501 -0.00000000000E+00 -0.00000000000E+00 -0.11501381335E+03  0.11501381338E+03  0.25500000000E-02 0. -1.
    5000001    1    1    2    0    0 -0.79495294043E+02 -0.33733837876E+02  0.55956798602E+02  0.21783626168E+03  0.19200000000E+03 0.  0.
   -5000001    1    1    2    0    0  0.79495294043E+02  0.33733837876E+02  0.29111056889E+03  0.35925873255E+03  0.19200000000E+03 0.  0.
<mgrwt>
<rscale>  0 0.46106710E+03</rscale>
<asrwt>0</asrwt>
<pdfrwt beam="1">  1        2 0.66011597E-01 0.46106710E+03</pdfrwt>
<pdfrwt beam="2">  1       -2 0.16430545E-01 0.46106710E+03</pdfrwt>
<totfact> 0.21878085E+03</totfact>
</mgrwt>
</event>
<event>
 4    1  0.5455400E-005  0.4890379E+03  0.7818608E-02  0.1016680E+00
         -2   -1    0    0    0  501 -0.00000000000E+00  0.00000000000E+00  0.59260255790E+02  0.59260255845E+02  0.25500000000E-02 0. -1.
          2   -1    0    0  501    0  0.00000000000E+00 -0.00000000000E+00 -0.10089310515E+04  0.10089310515E+04  0.25500000000E-02 0.  1.
    5000001    1    1    2    0    0 -0.96695255480E+02 -0.11132932546E+03 -0.39976123203E+03  0.46735129589E+03  0.19200000000E+03 0.  0.
   -5000001    1    1    2    0    0  0.96695255480E+02  0.11132932546E+03 -0.54990956368E+03  0.60084001146E+03  0.19200000000E+03 0.  0.
<mgrwt>
<rscale>  0 0.48903788E+03</rscale>
<asrwt>0</asrwt>
<pdfrwt beam="1">  1        2 0.14413300E+00 0.48903788E+03</pdfrwt>
<pdfrwt beam="2">  1       -2 0.84657515E-02 0.48903788E+03</pdfrwt>
<totfact> 0.24955188E+03</totfact>
</mgrwt>
</event>
<event>
 4    1  0.5455400E-005  0.5007010E+03  0.7818608E-02  0.1013596E+00
         -2   -1    0    0    0  501 -0.00000000000E+00  0.00000000000E+00  0.22102346241E+03  0.22102346243E+03  0.25500000000E-02 0. -1.
          2   -1    0    0  501    0  0.00000000000E+00 -0.00000000000E+00 -0.28356886599E+03  0.28356886600E+03  0.25500000000E-02 0.  1.
    5000001    1    1    2    0    0 -0.14645214161E+03 -0.53442877864E+02  0.78491177705E+01  0.24744692285E+03  0.19200000000E+03 0.  0.
   -5000001    1    1    2    0    0  0.14645214161E+03  0.53442877864E+02 -0.70394521348E+02  0.25714540558E+03  0.19200000000E+03 0.  0.
<mgrwt>
<rscale>  0 0.50070100E+03</rscale>
<asrwt>0</asrwt>
<pdfrwt beam="1">  1        2 0.40509838E-01 0.50070100E+03</pdfrwt>
<pdfrwt beam="2">  1       -2 0.31574781E-01 0.50070100E+03</pdfrwt>
<totfact> 0.11820477E+03</totfact>
</mgrwt>
</event>
<event>
 4    1  0.5455400E-005  0.8849376E+03  0.7818608E-02  0.9444608E-01
         -2   -1    0    0    0  501 -0.00000000000E+00  0.00000000000E+00  0.12530572247E+03  0.12530572249E+03  0.25500000000E-02 0. -1.
          2   -1    0    0  501    0  0.00000000000E+00 -0.00000000000E+00 -0.15624078519E+04  0.15624078519E+04  0.25500000000E-02 0.  1.
    5000001    1    1    2    0    0  0.15289094771E+03  0.26303978189E+03 -0.12098021562E+04  0.12621611727E+04  0.19200000000E+03 0.  0.
   -5000001    1    1    2    0    0 -0.15289094771E+03 -0.26303978189E+03 -0.22729997324E+03  0.42555240169E+03  0.19200000000E+03 0.  0.
<mgrwt>
<rscale>  0 0.88493761E+03</rscale>
<asrwt>0</asrwt>
<pdfrwt beam="1">  1        2 0.22320111E+00 0.88493761E+03</pdfrwt>
<pdfrwt beam="2">  1       -2 0.17900818E-01 0.88493761E+03</pdfrwt>
<totfact> 0.35197946E+02</totfact>
</mgrwt>
</event>
<event>
 4    1  0.5455400E-005  0.9313508E+03  0.7818608E-02  0.9387218E-01
         -2   -1    0    0    0  501 -0.00000000000E+00  0.00000000000E+00  0.28215933195E+03  0.28215933196E+03  0.25500000000E-02 0. -1.
          2   -1    0    0  501    0  0.00000000000E+00 -0.00000000000E+00 -0.76855014984E+03  0.76855014984E+03  0.25500000000E-02 0.  1.
    5000001    1    1    2    0    0  0.20784730016E+03 -0.22960176622E+02 -0.65963940378E+03  0.71813356203E+03  0.19200000000E+03 0.  0.
   -5000001    1    1    2    0    0 -0.20784730016E+03  0.22960176622E+02  0.17324858590E+03  0.33257591977E+03  0.19200000000E+03 0.  0.
<mgrwt>
<rscale>  0 0.93135084E+03</rscale>
<asrwt>0</asrwt>
<pdfrwt beam="1">  1        2 0.10979288E+00 0.93135084E+03</pdfrwt>
<pdfrwt beam="2">  1       -2 0.40308476E-01 0.93135084E+03</pdfrwt>
<totfact> 0.23317607E+02</totfact>
</mgrwt>
</event>
<event>
 4    1  0.5455400E-005  0.7478372E+03  0.7818608E-02  0.9638750E-01
          2   -1    0    0  501    0  0.00000000000E+00  0.00000000000E+00  0.74405897976E+03  0.74405897977E+03  0.25500000000E-02 0.  1.
         -2   -1    0    0    0  501 -0.00000000000E+00 -0.00000000000E+00 -0.18790865145E+03  0.18790865146E+03  0.25500000000E-02 0. -1.
    5000001    1    1    2    0    0 -0.13266844624E+03  0.28467498951E+03  0.35989341564E+03  0.51480873818E+03  0.19200000000E+03 0.  0.
   -5000001    1    1    2    0    0  0.13266844624E+03 -0.28467498951E+03  0.19625691267E+03  0.41715889305E+03  0.19200000000E+03 0.  0.
<mgrwt>
<rscale>  0 0.74783720E+03</rscale>
<asrwt>0</asrwt>
<pdfrwt beam="1">  1        2 0.10629414E+00 0.74783720E+03</pdfrwt>
<pdfrwt beam="2">  1       -2 0.26844093E-01 0.74783720E+03</pdfrwt>
<totfact> 0.52681312E+02</totfact>
</mgrwt>
</event>
<event>
 4    1  0.5455400E-005  0.8772396E+03  0.7818608E-02  0.9454489E-01
          2   -1    0    0  501    0  0.00000000000E+00  0.00000000000E+00  0.23422675934E+04  0.23422675934E+04  0.25500000000E-02 0.  1.
         -2   -1    0    0    0  501 -0.00000000000E+00 -0.00000000000E+00 -0.82137207311E+02  0.82137207351E+02  0.25500000000E-02 0. -1.
    5000001    1    1    2    0    0 -0.12810283529E+03 -0.35163146880E+03  0.14737878094E+04  0.15326348337E+04  0.19200000000E+03 0.  0.
   -5000001    1    1    2    0    0  0.12810283529E+03  0.35163146880E+03  0.78634257668E+03  0.89176996707E+03  0.19200000000E+03 0.  0.
<mgrwt>
<rscale>  0 0.87723958E+03</rscale>
<asrwt>0</asrwt>
<pdfrwt beam="1">  1        2 0.33460962E+00 0.87723958E+03</pdfrwt>
<pdfrwt beam="2">  1       -2 0.11733888E-01 0.87723958E+03</pdfrwt>
<totfact> 0.28677102E+02</totfact>
</mgrwt>
</event>
<event>
 4    1  0.5455400E-005  0.1362808E+04  0.7818608E-02  0.8981189E-01
         -2   -1    0    0    0  501 -0.00000000000E+00  0.00000000000E+00  0.16766222725E+03  0.16766222727E+03  0.25500000000E-02 0. -1.
          2   -1    0    0  501    0  0.00000000000E+00 -0.00000000000E+00 -0.27693282236E+04  0.27693282236E+04  0.25500000000E-02 0.  1.
    5000001    1    1    2    0    0  0.19458508904E+02  0.60841980816E+03 -0.18148797586E+04  0.19238518224E+04  0.19200000000E+03 0.  0.
   -5000001    1    1    2    0    0 -0.19458508904E+02 -0.60841980816E+03 -0.78678623778E+03  0.10131386285E+04  0.19200000000E+03 0.  0.
<mgrwt>
<rscale>  0 0.13628085E+04</rscale>
<asrwt>0</asrwt>
<pdfrwt beam="1">  1        2 0.39561829E+00 0.13628085E+04</pdfrwt>
<pdfrwt beam="2">  1       -2 0.23951748E-01 0.13628085E+04</pdfrwt>
<totfact> 0.48113463E+01</totfact>
</mgrwt>
</event>
<event>
 4    1  0.5455400E-005  0.7005257E+03  0.7818608E-02  0.9716334E-01
         -2   -1    0    0    0  501 -0.00000000000E+00  0.00000000000E+00  0.11709057147E+03  0.11709057150E+03  0.25500000000E-02 0.  1.
          2   -1    0    0  501    0  0.00000000000E+00 -0.00000000000E+00 -0.10477706383E+04  0.10477706383E+04  0.25500000000E-02 0. -1.
    5000001    1    1    2    0    0  0.15997489681E+03 -0.23545627768E+03 -0.58040602393E+03  0.67436398104E+03  0.19200000000E+03 0.  0.
   -5000001    1    1    2    0    0 -0.15997489681E+03  0.23545627768E+03 -0.35027404292E+03  0.49049722879E+03  0.19200000000E+03 0.  0.
<mgrwt>
<rscale>  0 0.70052570E+03</rscale>
<asrwt>0</asrwt>
<pdfrwt beam="1">  1        2 0.14968151E+00 0.70052570E+03</pdfrwt>
<pdfrwt beam="2">  1       -2 0.16727225E-01 0.70052570E+03</pdfrwt>
<totfact> 0.76753681E+02</totfact>
</mgrwt>
</event>
<event>
 4    1  0.5455400E-005  0.8211176E+03  0.7818608E-02  0.9529943E-01
         -2   -1    0    0    0  501 -0.00000000000E+00  0.00000000000E+00  0.26250778608E+03  0.26250778609E+03  0.25500000000E-02 0. -1.
          2   -1    0    0  501    0  0.00000000000E+00 -0.00000000000E+00 -0.64210865525E+03  0.64210865526E+03  0.25500000000E-02 0.  1.
    5000001    1    1    2    0    0 -0.35325122912E+03 -0.14830828524E+02 -0.99703148290E+02  0.41450102790E+03  0.19200000000E+03 0.  0.
   -5000001    1    1    2    0    0  0.35325122912E+03  0.14830828524E+02 -0.27989772088E+03  0.49011541345E+03  0.19200000000E+03 0.  0.
<mgrwt>
<rscale>  0 0.82111758E+03</rscale>
<asrwt>0</asrwt>
<pdfrwt beam="1">  1        2 0.91729807E-01 0.82111758E+03</pdfrwt>
<pdfrwt beam="2">  1       -2 0.37501113E-01 0.82111758E+03</pdfrwt>
<totfact> 0.33672279E+02</totfact>
</mgrwt>
</event>
<event>
 4    1  0.5455400E-005  0.7075984E+03  0.7818608E-02  0.9704326E-01
          2   -1    0    0  501    0  0.00000000000E+00  0.00000000000E+00  0.39300359734E+03  0.39300359735E+03  0.25500000000E-02 0.  1.
         -2   -1    0    0    0  501 -0.00000000000E+00 -0.00000000000E+00 -0.31850562922E+03  0.31850562923E+03  0.25500000000E-02 0. -1.
    5000001    1    1    2    0    0  0.27873276070E+03  0.55236729128E+02  0.12471717293E+03  0.36491289557E+03  0.19200000000E+03 0.  0.
   -5000001    1    1    2    0    0 -0.27873276070E+03 -0.55236729128E+02 -0.50219204808E+02  0.34659633100E+03  0.19200000000E+03 0.  0.
<mgrwt>
<rscale>  0 0.70759836E+03</rscale>
<asrwt>0</asrwt>
<pdfrwt beam="1">  1        2 0.56143371E-01 0.70759836E+03</pdfrwt>
<pdfrwt beam="2">  1       -2 0.45500804E-01 0.70759836E+03</pdfrwt>
<totfact> 0.40706045E+02</totfact>
</mgrwt>
</event>
<event>
 4    1  0.5455400E-005  0.5879297E+03  0.7818608E-02  0.9930769E-01
          2   -1    0    0  501    0  0.00000000000E+00  0.00000000000E+00  0.12843225333E+04  0.12843225333E+04  0.25500000000E-02 0.  1.
         -2   -1    0    0    0  501 -0.00000000000E+00 -0.00000000000E+00 -0.67284748979E+02  0.67284749027E+02  0.25500000000E-02 0. -1.
    5000001    1    1    2    0    0  0.17416865844E+03 -0.88172401322E+02  0.36260650457E+03  0.45437492349E+03  0.19200000000E+03 0.  0.
   -5000001    1    1    2    0    0 -0.17416865844E+03  0.88172401322E+02  0.85443127972E+03  0.89723235882E+03  0.19200000000E+03 0.  0.
<mgrwt>
<rscale>  0 0.58792965E+03</rscale>
<asrwt>0</asrwt>
<pdfrwt beam="1">  1        2 0.18347463E+00 0.58792965E+03</pdfrwt>
<pdfrwt beam="2">  1       -2 0.96121078E-02 0.58792965E+03</pdfrwt>
<totfact> 0.14156782E+03</totfact>
</mgrwt>
</event>
<event>
 4    1  0.5455400E-005  0.6613784E+03  0.7818608E-02  0.9785660E-01
         -2   -1    0    0    0  501 -0.00000000000E+00  0.00000000000E+00  0.17474309459E+03  0.17474309461E+03  0.25500000000E-02 0. -1.
          2   -1    0    0  501    0  0.00000000000E+00 -0.00000000000E+00 -0.62580645185E+03  0.62580645186E+03  0.25500000000E-02 0.  1.
    5000001    1    1    2    0    0 -0.33334796289E+02  0.93680729606E+02  0.77326613497E+02  0.22963164612E+03  0.19200000000E+03 0.  0.
   -5000001    1    1    2    0    0  0.33334796289E+02 -0.93680729606E+02 -0.52838997076E+03  0.57091790035E+03  0.19200000000E+03 0.  0.
<mgrwt>
<rscale>  0 0.66137843E+03</rscale>
<asrwt>0</asrwt>
<pdfrwt beam="1">  1        2 0.89400920E-01 0.66137843E+03</pdfrwt>
<pdfrwt beam="2">  1       -2 0.24963300E-01 0.66137843E+03</pdfrwt>
<totfact> 0.74408205E+02</totfact>
</mgrwt>
</event>
<event>
 4    1  0.5455400E-005  0.4510330E+03  0.7818608E-02  0.1027414E+00
          2   -1    0    0  501    0  0.00000000000E+00  0.00000000000E+00  0.37529811393E+04  0.37529811393E+04  0.25500000000E-02 0.  1.
         -2   -1    0    0    0  501 -0.00000000000E+00 -0.00000000000E+00 -0.13551280764E+02  0.13551281004E+02  0.25500000000E-02 0. -1.
    5000001    1    1    2    0    0  0.10214935900E+03 -0.45131572964E+02  0.21955447051E+04  0.22067514365E+04  0.19200000000E+03 0.  0.
   -5000001    1    1    2    0    0 -0.10214935900E+03  0.45131572964E+02  0.15438851534E+04  0.15597809838E+04  0.19200000000E+03 0.  0.
<mgrwt>
<rscale>  0 0.45103304E+03</rscale>
<asrwt>0</asrwt>
<pdfrwt beam="1">  1        2 0.53614014E+00 0.45103304E+03</pdfrwt>
<pdfrwt beam="2">  1       -2 0.19358974E-02 0.45103304E+03</pdfrwt>
<totfact> 0.81551123E+02</totfact>
</mgrwt>
</event>
<event>
 4    1  0.5455400E-005  0.7721329E+03  0.7818608E-02  0.9601253E-01
         -2   -1    0    0    0  501 -0.00000000000E+00  0.00000000000E+00  0.46739981664E+02  0.46739981734E+02  0.25500000000E-02 0. -1.
          2   -1    0    0  501    0  0.00000000000E+00 -0.00000000000E+00 -0.31888613183E+04  0.31888613183E+04  0.25500000000E-02 0.  1.
    5000001    1    1    2    0    0 -0.31608394578E+03  0.11043493556E+03 -0.15339604621E+04  0.15817723082E+04  0.19200000000E+03 0.  0.
   -5000001    1    1    2    0    0  0.31608394578E+03 -0.11043493556E+03 -0.16081608746E+04  0.16538289919E+04  0.19200000000E+03 0.  0.
<mgrwt>
<rscale>  0 0.77213294E+03</rscale>
<asrwt>0</asrwt>
<pdfrwt beam="1">  1        2 0.45555148E+00 0.77213294E+03</pdfrwt>
<pdfrwt beam="2">  1       -2 0.66771423E-02 0.77213294E+03</pdfrwt>
<totfact> 0.25401444E+02</totfact>
</mgrwt>
</event>
<event>
 4    1  0.5455400E-005  0.1427974E+04  0.7818608E-02  0.8933815E-01
         -2   -1    0    0    0  501 -0.00000000000E+00  0.00000000000E+00  0.65092781190E+03  0.65092781191E+03  0.25500000000E-02 0. -1.
          2   -1    0    0  501    0  0.00000000000E+00 -0.00000000000E+00 -0.78315498457E+03  0.78315498457E+03  0.25500000000E-02 0.  1.
    5000001    1    1    2    0    0 -0.24129636871E+03  0.61914268601E+03 -0.24393534554E+03  0.73343715204E+03  0.19200000000E+03 0.  0.
   -5000001    1    1    2    0    0  0.24129636871E+03 -0.61914268601E+03  0.11170817287E+03  0.70064564444E+03  0.19200000000E+03 0.  0.
<mgrwt>
<rscale>  0 0.14279739E+04</rscale>
<asrwt>0</asrwt>
<pdfrwt beam="1">  1        2 0.11187928E+00 0.14279739E+04</pdfrwt>
<pdfrwt beam="2">  1       -2 0.92989688E-01 0.14279739E+04</pdfrwt>
<totfact> 0.37251810E+01</totfact>
</mgrwt>
</event>
<event>
 4    1  0.5455400E-005  0.1042508E+04  0.7818608E-02  0.9263113E-01
          2   -1    0    0  501    0  0.00000000000E+00  0.00000000000E+00  0.85589527544E+03  0.85589527545E+03  0.25500000000E-02 0.  1.
         -2   -1    0    0    0  501 -0.00000000000E+00 -0.00000000000E+00 -0.31745209793E+03  0.31745209794E+03  0.25500000000E-02 0. -1.
    5000001    1    1    2    0    0 -0.48039179151E+03  0.35680519021E+02  0.20974660936E+03  0.55938091934E+03  0.19200000000E+03 0.  0.
   -5000001    1    1    2    0    0  0.48039179151E+03 -0.35680519021E+02  0.32869656815E+03  0.61396645405E+03  0.19200000000E+03 0.  0.
<mgrwt>
<rscale>  0 0.10425080E+04</rscale>
<asrwt>0</asrwt>
<pdfrwt beam="1">  1        2 0.12227075E+00 0.10425080E+04</pdfrwt>
<pdfrwt beam="2">  1       -2 0.45350300E-01 0.10425080E+04</pdfrwt>
<totfact> 0.15966805E+02</totfact>
</mgrwt>
</event>
<event>
 4    1  0.5455400E-005  0.4513401E+03  0.7818608E-02  0.1027323E+00
          2   -1    0    0  501    0  0.00000000000E+00  0.00000000000E+00  0.10807822902E+04  0.10807822903E+04  0.25500000000E-02 0.  1.
         -2   -1    0    0    0  501 -0.00000000000E+00 -0.00000000000E+00 -0.47120463693E+02  0.47120463762E+02  0.25500000000E-02 0. -1.
    5000001    1    1    2    0    0 -0.59650297139E+02  0.29406928535E+02  0.27146901040E+03  0.33909047318E+03  0.19200000000E+03 0.  0.
   -5000001    1    1    2    0    0  0.59650297139E+02 -0.29406928535E+02  0.76219281615E+03  0.78881228083E+03  0.19200000000E+03 0.  0.
<mgrwt>
<rscale>  0 0.45134006E+03</rscale>
<asrwt>0</asrwt>
<pdfrwt beam="1">  1        2 0.15439744E+00 0.45134006E+03</pdfrwt>
<pdfrwt beam="2">  1       -2 0.67314960E-02 0.45134006E+03</pdfrwt>
<totfact> 0.32494625E+03</totfact>
</mgrwt>
</event>
<event>
 4    1  0.5455400E-005  0.5759594E+03  0.7818608E-02  0.9956577E-01
         -2   -1    0    0    0  501 -0.00000000000E+00  0.00000000000E+00  0.10928240272E+03  0.10928240275E+03  0.25500000000E-02 0. -1.
          2   -1    0    0  501    0  0.00000000000E+00 -0.00000000000E+00 -0.75888066058E+03  0.75888066059E+03  0.25500000000E-02 0.  1.
    5000001    1    1    2    0    0 -0.20620931329E+03  0.55533985014E+02 -0.35719795749E+03  0.45832377771E+03  0.19200000000E+03 0.  0.
   -5000001    1    1    2    0    0  0.20620931329E+03 -0.55533985014E+02 -0.29240030037E+03  0.40983928562E+03  0.19200000000E+03 0.  0.
<mgrwt>
<rscale>  0 0.57595938E+03</rscale>
<asrwt>0</asrwt>
<pdfrwt beam="1">  1        2 0.10841152E+00 0.57595938E+03</pdfrwt>
<pdfrwt beam="2">  1       -2 0.15611772E-01 0.57595938E+03</pdfrwt>
<totfact> 0.13333446E+03</totfact>
</mgrwt>
</event>
<event>
 4    1  0.5455400E-005  0.1058564E+04  0.7818608E-02  0.9246547E-01
          2   -1    0    0  501    0  0.00000000000E+00  0.00000000000E+00  0.45471615788E+03  0.45471615789E+03  0.25500000000E-02 0.  1.
         -2   -1    0    0    0  501 -0.00000000000E+00 -0.00000000000E+00 -0.61607488598E+03  0.61607488599E+03  0.25500000000E-02 0. -1.
    5000001    1    1    2    0    0  0.31268751891E+03  0.37433493189E+03 -0.65175694297E+01  0.52421999621E+03  0.19200000000E+03 0.  0.
   -5000001    1    1    2    0    0 -0.31268751891E+03 -0.37433493189E+03 -0.15484115867E+03  0.54657104766E+03  0.19200000000E+03 0.  0.
<mgrwt>
<rscale>  0 0.10585636E+04</rscale>
<asrwt>0</asrwt>
<pdfrwt beam="1">  1        2 0.64959452E-01 0.10585636E+04</pdfrwt>
<pdfrwt beam="2">  1       -2 0.88010697E-01 0.10585636E+04</pdfrwt>
<totfact> 0.82952809E+01</totfact>
</mgrwt>
</event>
<event>
 4    1  0.5455400E-005  0.4512946E+03  0.7818608E-02  0.1027337E+00
         -2   -1    0    0    0  501 -0.00000000000E+00  0.00000000000E+00  0.12768643965E+03  0.12768643968E+03  0.25500000000E-02 0. -1.
          2   -1    0    0  501    0  0.00000000000E+00 -0.00000000000E+00 -0.39876355992E+03  0.39876355993E+03  0.25500000000E-02 0.  1.
    5000001    1    1    2    0    0 -0.11287040863E+03 -0.30934307297E+02 -0.15754985703E+03  0.27455895171E+03  0.19200000000E+03 0.  0.
   -5000001    1    1    2    0    0  0.11287040863E+03  0.30934307297E+02 -0.11352726323E+03  0.25189104790E+03  0.19200000000E+03 0.  0.
<mgrwt>
<rscale>  0 0.45129458E+03</rscale>
<asrwt>0</asrwt>
<pdfrwt beam="1">  1        2 0.56966222E-01 0.45129458E+03</pdfrwt>
<pdfrwt beam="2">  1       -2 0.18240920E-01 0.45129458E+03</pdfrwt>
<totfact> 0.21559922E+03</totfact>
</mgrwt>
</event>
<event>
 4    1  0.5455400E-005  0.5243739E+03  0.7818608E-02  0.1007606E+00
          2   -1    0    0  501    0  0.00000000000E+00  0.00000000000E+00  0.11216504654E+04  0.11216504654E+04  0.25500000000E-02 0. -1.
         -2   -1    0    0    0  501 -0.00000000000E+00 -0.00000000000E+00 -0.61286480856E+02  0.61286480909E+02  0.25500000000E-02 0.  1.
    5000001    1    1    2    0    0 -0.13413834782E+03 -0.11135783109E+03  0.44326830120E+03  0.51356056093E+03  0.19200000000E+03 0.  0.
   -5000001    1    1    2    0    0  0.13413834782E+03  0.11135783109E+03  0.61709568337E+03  0.66937638540E+03  0.19200000000E+03 0.  0.
<mgrwt>
<rscale>  0 0.52437395E+03</rscale>
<asrwt>0</asrwt>
<pdfrwt beam="1">  1        2 0.16023578E+00 0.52437395E+03</pdfrwt>
<pdfrwt beam="2">  1       -2 0.87552118E-02 0.52437395E+03</pdfrwt>
<totfact> 0.20304043E+03</totfact>
</mgrwt>
</event>
<event>
 4    1  0.5455400E-005  0.7599015E+03  0.7818608E-02  0.9619943E-01
          2   -1    0    0  501    0  0.00000000000E+00  0.00000000000E+00  0.69398162485E+03  0.69398162486E+03  0.25500000000E-02 0.  1.
         -2   -1    0    0    0  501 -0.00000000000E+00 -0.00000000000E+00 -0.20802073359E+03  0.20802073361E+03  0.25500000000E-02 0. -1.
    5000001    1    1    2    0    0  0.23234069041E+03  0.22617025210E+03  0.18527486250E+03  0.41991184078E+03  0.19200000000E+03 0.  0.
   -5000001    1    1    2    0    0 -0.23234069041E+03 -0.22617025210E+03  0.30068602876E+03  0.48209051769E+03  0.19200000000E+03 0.  0.
<mgrwt>
<rscale>  0 0.75990148E+03</rscale>
<asrwt>0</asrwt>
<pdfrwt beam="1">  1        2 0.99140232E-01 0.75990148E+03</pdfrwt>
<pdfrwt beam="2">  1       -2 0.29717248E-01 0.75990148E+03</pdfrwt>
<totfact> 0.47638927E+02</totfact>
</mgrwt>
</event>
<event>
 4    1  0.5455400E-005  0.5113955E+03  0.7818608E-02  0.1010847E+00
          2   -1    0    0  501    0  0.00000000000E+00  0.00000000000E+00  0.10524402644E+04  0.10524402644E+04  0.25500000000E-02 0.  1.
         -2   -1    0    0    0  501 -0.00000000000E+00 -0.00000000000E+00 -0.62123556767E+02  0.62123556819E+02  0.25500000000E-02 0. -1.
    5000001    1    1    2    0    0  0.82716124692E+02 -0.13186382451E+03  0.35245297070E+03  0.43048475241E+03  0.19200000000E+03 0.  0.
   -5000001    1    1    2    0    0 -0.82716124692E+02  0.13186382451E+03  0.63786373690E+03  0.68407906879E+03  0.19200000000E+03 0.  0.
<mgrwt>
<rscale>  0 0.51139547E+03</rscale>
<asrwt>0</asrwt>
<pdfrwt beam="1">  1        2 0.15034860E+00 0.51139547E+03</pdfrwt>
<pdfrwt beam="2">  1       -2 0.88747944E-02 0.51139547E+03</pdfrwt>
<totfact> 0.21801325E+03</totfact>
</mgrwt>
</event>
<event>
 4    1  0.5455400E-005  0.7307669E+03  0.7818608E-02  0.9666017E-01
          2   -1    0    0  501    0  0.00000000000E+00  0.00000000000E+00  0.99340966124E+03  0.99340966125E+03  0.25500000000E-02 0.  1.
         -2   -1    0    0    0  501 -0.00000000000E+00 -0.00000000000E+00 -0.13439074451E+03  0.13439074453E+03  0.25500000000E-02 0. -1.
    5000001    1    1    2    0    0  0.12880101538E+02  0.13001374210E+03 -0.58343877610E+01  0.23230908340E+03  0.19200000000E+03 0.  0.
   -5000001    1    1    2    0    0 -0.12880101538E+02 -0.13001374210E+03  0.86485330450E+03  0.89549132238E+03  0.19200000000E+03 0.  0.
<mgrwt>
<rscale>  0 0.73076690E+03</rscale>
<asrwt>0</asrwt>
<pdfrwt beam="1">  1        2 0.14191567E+00 0.73076690E+03</pdfrwt>
<pdfrwt beam="2">  1       -2 0.19198677E-01 0.73076690E+03</pdfrwt>
<totfact> 0.65238311E+02</totfact>
</mgrwt>
</event>
<event>
 4    1  0.5455400E-005  0.6054542E+03  0.7818608E-02  0.9894155E-01
          2   -1    0    0  501    0  0.00000000000E+00  0.00000000000E+00  0.27939115931E+04  0.27939115931E+04  0.25500000000E-02 0.  1.
         -2   -1    0    0    0  501 -0.00000000000E+00 -0.00000000000E+00 -0.32801215584E+02  0.32801215683E+02  0.25500000000E-02 0. -1.
    5000001    1    1    2    0    0  0.37184415098E+02  0.20727761967E+03  0.90367960756E+03  0.94754816525E+03  0.19200000000E+03 0.  0.
   -5000001    1    1    2    0    0 -0.37184415098E+02 -0.20727761967E+03  0.18574307700E+04  0.18791646436E+04  0.19200000000E+03 0.  0.
<mgrwt>
<rscale>  0 0.60545420E+03</rscale>
<asrwt>0</asrwt>
<pdfrwt beam="1">  1        2 0.39913042E+00 0.60545420E+03</pdfrwt>
<pdfrwt beam="2">  1       -2 0.46858857E-02 0.60545420E+03</pdfrwt>
<totfact> 0.73794491E+02</totfact>
</mgrwt>
</event>
<event>
 4    1  0.5455400E-005  0.9919276E+03  0.7818608E-02  0.9317443E-01
         -2   -1    0    0    0  501 -0.00000000000E+00  0.00000000000E+00  0.14111269425E+03  0.14111269428E+03  0.25500000000E-02 0. -1.
          2   -1    0    0  501    0  0.00000000000E+00 -0.00000000000E+00 -0.17431466159E+04  0.17431466159E+04  0.25500000000E-02 0.  1.
    5000001    1    1    2    0    0  0.44087692784E+03 -0.24710318651E+02 -0.10268453949E+04  0.11341333830E+04  0.19200000000E+03 0.  0.
   -5000001    1    1    2    0    0 -0.44087692784E+03  0.24710318651E+02 -0.57518852671E+03  0.75012592717E+03  0.19200000000E+03 0.  0.
<mgrwt>
<rscale>  0 0.99192765E+03</rscale>
<asrwt>0</asrwt>
<pdfrwt beam="1">  1        2 0.24902093E+00 0.99192765E+03</pdfrwt>
<pdfrwt beam="2">  1       -2 0.20158957E-01 0.99192765E+03</pdfrwt>
<totfact> 0.22913116E+02</totfact>
</mgrwt>
</event>
<event>
 4    1  0.5455400E-005  0.7354602E+03  0.7818608E-02  0.9658441E-01
          2   -1    0    0  501    0  0.00000000000E+00  0.00000000000E+00  0.34017363949E+04  0.34017363949E+04  0.25500000000E-02 0.  1.
         -2   -1    0    0    0  501 -0.00000000000E+00 -0.00000000000E+00 -0.39751887535E+02  0.39751887616E+02  0.25500000000E-02 0. -1.
    5000001    1    1    2    0    0  0.25537289864E+03  0.14194771254E+03  0.11475244792E+04  0.11996003088E+04  0.19200000000E+03 0.  0.
   -5000001    1    1    2    0    0 -0.25537289864E+03 -0.14194771254E+03  0.22144600282E+04  0.22418879737E+04  0.19200000000E+03 0.  0.
<mgrwt>
<rscale>  0 0.73546024E+03</rscale>
<asrwt>0</asrwt>
<pdfrwt beam="1">  1        2 0.48596247E+00 0.73546024E+03</pdfrwt>
<pdfrwt beam="2">  1       -2 0.56788396E-02 0.73546024E+03</pdfrwt>
<totfact> 0.24829556E+02</totfact>
</mgrwt>
</event>
<event>
 4    1  0.5455400E-005  0.8767572E+03  0.7818608E-02  0.9455112E-01
         -2   -1    0    0    0  501 -0.00000000000E+00  0.00000000000E+00  0.35961519898E+03  0.35961519899E+03  0.25500000000E-02 0.  1.
          2   -1    0    0  501    0  0.00000000000E+00 -0.00000000000E+00 -0.53439283059E+03  0.53439283060E+03  0.25500000000E-02 0. -1.
    5000001    1    1    2    0    0 -0.26921252156E+03 -0.75892262912E+02  0.19570073363E+03  0.39166030495E+03  0.19200000000E+03 0.  0.
   -5000001    1    1    2    0    0  0.26921252156E+03  0.75892262912E+02 -0.37047836524E+03  0.50234772463E+03  0.19200000000E+03 0.  0.
<mgrwt>
<rscale>  0 0.87675717E+03</rscale>
<asrwt>0</asrwt>
<pdfrwt beam="1">  1        2 0.76341833E-01 0.87675717E+03</pdfrwt>
<pdfrwt beam="2">  1       -2 0.51373600E-01 0.87675717E+03</pdfrwt>
<totfact> 0.22343140E+02</totfact>
</mgrwt>
</event>
<event>
 4    1  0.5455400E-005  0.5056313E+03  0.7818608E-02  0.1012319E+00
         -2   -1    0    0    0  501 -0.00000000000E+00  0.00000000000E+00  0.46315765052E+02  0.46315765122E+02  0.25500000000E-02 0. -1.
          2   -1    0    0  501    0  0.00000000000E+00 -0.00000000000E+00 -0.13800001808E+04  0.13800001808E+04  0.25500000000E-02 0.  1.
    5000001    1    1    2    0    0  0.10195874158E+03 -0.12903846346E+03 -0.66037624109E+03  0.70711193586E+03  0.19200000000E+03 0.  0.
   -5000001    1    1    2    0    0 -0.10195874158E+03  0.12903846346E+03 -0.67330817470E+03  0.71920401010E+03  0.19200000000E+03 0.  0.
<mgrwt>
<rscale>  0 0.50563134E+03</rscale>
<asrwt>0</asrwt>
<pdfrwt beam="1">  1        2 0.19714286E+00 0.50563134E+03</pdfrwt>
<pdfrwt beam="2">  1       -2 0.66165387E-02 0.50563134E+03</pdfrwt>
<totfact> 0.22820854E+03</totfact>
</mgrwt>
</event>
<event>
 4    1  0.5455400E-005  0.9054794E+03  0.7818608E-02  0.9418758E-01
         -2   -1    0    0    0  501 -0.00000000000E+00  0.00000000000E+00  0.29139390767E+03  0.29139390768E+03  0.25500000000E-02 0. -1.
          2   -1    0    0  501    0  0.00000000000E+00 -0.00000000000E+00 -0.70342320915E+03  0.70342320915E+03  0.25500000000E-02 0.  1.
    5000001    1    1    2    0    0 -0.13790471026E+03 -0.38396376781E+03 -0.25082279520E+03  0.51596701318E+03  0.19200000000E+03 0.  0.
   -5000001    1    1    2    0    0  0.13790471026E+03  0.38396376781E+03 -0.16120650628E+03  0.47885010365E+03  0.19200000000E+03 0.  0.
<mgrwt>
<rscale>  0 0.90547940E+03</rscale>
<asrwt>0</asrwt>
<pdfrwt beam="1">  1        2 0.10048903E+00 0.90547940E+03</pdfrwt>
<pdfrwt beam="2">  1       -2 0.41627701E-01 0.90547940E+03</pdfrwt>
<totfact> 0.24495990E+02</totfact>
</mgrwt>
</event>
<event>
 4    1  0.5455400E-005  0.8186467E+03  0.7818608E-02  0.9533412E-01
         -2   -1    0    0    0  501 -0.00000000000E+00  0.00000000000E+00  0.69196941187E+02  0.69196941234E+02  0.25500000000E-02 0. -1.
          2   -1    0    0  501    0  0.00000000000E+00 -0.00000000000E+00 -0.24212859920E+04  0.24212859920E+04  0.25500000000E-02 0.  1.
    5000001    1    1    2    0    0  0.11458887047E+03 -0.31497384341E+03 -0.76402690414E+03  0.85611929164E+03  0.19200000000E+03 0.  0.
   -5000001    1    1    2    0    0 -0.11458887047E+03  0.31497384341E+03 -0.15880621466E+04  0.16343636416E+04  0.19200000000E+03 0.  0.
<mgrwt>
<rscale>  0 0.81864665E+03</rscale>
<asrwt>0</asrwt>
<pdfrwt beam="1">  1        2 0.34589795E+00 0.81864665E+03</pdfrwt>
<pdfrwt beam="2">  1       -2 0.98852788E-02 0.81864665E+03</pdfrwt>
<totfact> 0.34758798E+02</totfact>
</mgrwt>
</event>
<event>
 4    1  0.5455400E-005  0.6954931E+03  0.7818608E-02  0.9724971E-01
         -2   -1    0    0    0  501 -0.00000000000E+00  0.00000000000E+00  0.42550365462E+03  0.42550365463E+03  0.25500000000E-02 0. -1.
          2   -1    0    0  501    0  0.00000000000E+00 -0.00000000000E+00 -0.28419889263E+03  0.28419889264E+03  0.25500000000E-02 0.  1.
    5000001    1    1    2    0    0  0.53004997922E+01 -0.28658589235E+03  0.11517987279E+03  0.36371688452E+03  0.19200000000E+03 0.  0.
   -5000001    1    1    2    0    0 -0.53004997922E+01  0.28658589235E+03  0.26124889200E+02  0.34598566275E+03  0.19200000000E+03 0.  0.
<mgrwt>
<rscale>  0 0.69549311E+03</rscale>
<asrwt>0</asrwt>
<pdfrwt beam="1">  1        2 0.40599842E-01 0.69549311E+03</pdfrwt>
<pdfrwt beam="2">  1       -2 0.60786236E-01 0.69549311E+03</pdfrwt>
<totfact> 0.32201001E+02</totfact>
</mgrwt>
</event>
<event>
 4    1  0.5455400E-005  0.5516463E+03  0.7818608E-02  0.1001114E+00
          2   -1    0    0  501    0  0.00000000000E+00  0.00000000000E+00  0.18200354759E+04  0.18200354759E+04  0.25500000000E-02 0.  1.
         -2   -1    0    0    0  501 -0.00000000000E+00 -0.00000000000E+00 -0.41800508179E+02  0.41800508257E+02  0.25500000000E-02 0. -1.
    5000001    1    1    2    0    0  0.18990939968E+03 -0.23230827586E+02  0.10615149092E+04  0.10955743488E+04  0.19200000000E+03 0.  0.
   -5000001    1    1    2    0    0 -0.18990939968E+03  0.23230827586E+02  0.71672005851E+03  0.76626163528E+03  0.19200000000E+03 0.  0.
<mgrwt>
<rscale>  0 0.55164629E+03</rscale>
<asrwt>0</asrwt>
<pdfrwt beam="1">  1        2 0.26000509E+00 0.55164629E+03</pdfrwt>
<pdfrwt beam="2">  1       -2 0.59715006E-02 0.55164629E+03</pdfrwt>
<totfact> 0.15909991E+03</totfact>
</mgrwt>
</event>
<event>
 4    1  0.5455400E-005  0.5225767E+03  0.7818608E-02  0.1008048E+00
         -2   -1    0    0    0  501 -0.00000000000E+00  0.00000000000E+00  0.16930583185E+02  0.16930583377E+02  0.25500000000E-02 0. -1.
          2   -1    0    0  501    0  0.00000000000E+00 -0.00000000000E+00 -0.40324424025E+04  0.40324424025E+04  0.25500000000E-02 0.  1.
    5000001    1    1    2    0    0  0.27655668954E+02 -0.17035110889E+03 -0.23199556457E+04  0.23342755909E+04  0.19200000000E+03 0.  0.
   -5000001    1    1    2    0    0 -0.27655668954E+02  0.17035110889E+03 -0.16955561736E+04  0.17150973949E+04  0.19200000000E+03 0.  0.
<mgrwt>
<rscale>  0 0.52257670E+03</rscale>
<asrwt>0</asrwt>
<pdfrwt beam="1">  1        2 0.57606259E+00 0.52257670E+03</pdfrwt>
<pdfrwt beam="2">  1       -2 0.24186573E-02 0.52257670E+03</pdfrwt>
<totfact> 0.38163020E+02</totfact>
</mgrwt>
</event>
<event>
 4    1  0.5455400E-005  0.7388545E+03  0.7818608E-02  0.9653000E-01
          2   -1    0    0  501    0  0.00000000000E+00  0.00000000000E+00  0.69344669864E+03  0.69344669865E+03  0.25500000000E-02 0.  1.
         -2   -1    0    0    0  501 -0.00000000000E+00 -0.00000000000E+00 -0.19680892735E+03  0.19680892737E+03  0.25500000000E-02 0. -1.
    5000001    1    1    2    0    0 -0.21255778197E+03  0.16466936398E+03  0.49177334351E+02  0.33403475915E+03  0.19200000000E+03 0.  0.
   -5000001    1    1    2    0    0  0.21255778197E+03 -0.16466936398E+03  0.44746043694E+03  0.55622086687E+03  0.19200000000E+03 0.  0.
<mgrwt>
<rscale>  0 0.73885452E+03</rscale>
<asrwt>0</asrwt>
<pdfrwt beam="1">  1        2 0.99063815E-01 0.73885452E+03</pdfrwt>
<pdfrwt beam="2">  1       -2 0.28115561E-01 0.73885452E+03</pdfrwt>
<totfact> 0.52847219E+02</totfact>
</mgrwt>
</event>
<event>
 4    1  0.5455400E-005  0.4843236E+03  0.7818608E-02  0.1017954E+00
          2   -1    0    0  501    0  0.00000000000E+00  0.00000000000E+00  0.30350136148E+04  0.30350136148E+04  0.25500000000E-02 0.  1.
         -2   -1    0    0    0  501 -0.00000000000E+00 -0.00000000000E+00 -0.19321936493E+02  0.19321936662E+02  0.25500000000E-02 0. -1.
    5000001    1    1    2    0    0 -0.13382759384E+03  0.53565044802E+02  0.17072018858E+04  0.17240015423E+04  0.19200000000E+03 0.  0.
   -5000001    1    1    2    0    0  0.13382759384E+03 -0.53565044802E+02  0.13084897925E+04  0.13303340092E+04  0.19200000000E+03 0.  0.
<mgrwt>
<rscale>  0 0.48432361E+03</rscale>
<asrwt>0</asrwt>
<pdfrwt beam="1">  1        2 0.43357361E+00 0.48432361E+03</pdfrwt>
<pdfrwt beam="2">  1       -2 0.27602752E-02 0.48432361E+03</pdfrwt>
<totfact> 0.12429252E+03</totfact>
</mgrwt>
</event>
<event>
 4    1  0.5455400E-005  0.5066912E+03  0.7818608E-02  0.1012047E+00
          2   -1    0    0  501    0  0.00000000000E+00  0.00000000000E+00  0.27740607605E+03  0.27740607607E+03  0.25500000000E-02 0.  1.
         -2   -1    0    0    0  501 -0.00000000000E+00 -0.00000000000E+00 -0.23137194716E+03  0.23137194717E+03  0.25500000000E-02 0. -1.
    5000001    1    1    2    0    0 -0.13651867226E+03 -0.65543734778E+02  0.89521674138E+02  0.26040633476E+03  0.19200000000E+03 0.  0.
   -5000001    1    1    2    0    0  0.13651867226E+03  0.65543734778E+02 -0.43487545243E+02  0.24837168847E+03  0.19200000000E+03 0.  0.
<mgrwt>
<rscale>  0 0.50669116E+03</rscale>
<asrwt>0</asrwt>
<pdfrwt beam="1">  1        2 0.39629440E-01 0.50669116E+03</pdfrwt>
<pdfrwt beam="2">  1       -2 0.33053135E-01 0.50669116E+03</pdfrwt>
<totfact> 0.11120015E+03</totfact>
</mgrwt>
</event>
<event>
 4    1  0.5455400E-005  0.5916000E+03  0.7818608E-02  0.9922988E-01
          2   -1    0    0  501    0  0.00000000000E+00  0.00000000000E+00  0.66924615375E+03  0.66924615376E+03  0.25500000000E-02 0.  1.
         -2   -1    0    0    0  501 -0.00000000000E+00 -0.00000000000E+00 -0.13074060723E+03  0.13074060725E+03  0.25500000000E-02 0. -1.
    5000001    1    1    2    0    0  0.91872342419E+02  0.11681359109E+03  0.40776964950E+02  0.24619647283E+03  0.19200000000E+03 0.  0.
   -5000001    1    1    2    0    0 -0.91872342419E+02 -0.11681359109E+03  0.49772858157E+03  0.55379028818E+03  0.19200000000E+03 0.  0.
<mgrwt>
<rscale>  0 0.59160003E+03</rscale>
<asrwt>0</asrwt>
<pdfrwt beam="1">  1        2 0.95606594E-01 0.59160003E+03</pdfrwt>
<pdfrwt beam="2">  1       -2 0.18677230E-01 0.59160003E+03</pdfrwt>
<totfact> 0.11457480E+03</totfact>
</mgrwt>
</event>
<event>
 4    1  0.5455400E-005  0.6013747E+03  0.7818608E-02  0.9902558E-01
          2   -1    0    0  501    0  0.00000000000E+00  0.00000000000E+00  0.36171186717E+03  0.36171186718E+03  0.25500000000E-02 0.  1.
         -2   -1    0    0    0  501 -0.00000000000E+00 -0.00000000000E+00 -0.24995831864E+03  0.24995831865E+03  0.25500000000E-02 0. -1.
    5000001    1    1    2    0    0 -0.22067711459E+03  0.10787464092E+02  0.12585973572E+03  0.31862114079E+03  0.19200000000E+03 0.  0.
   -5000001    1    1    2    0    0  0.22067711459E+03 -0.10787464092E+02 -0.14106187185E+02  0.29304904505E+03  0.19200000000E+03 0.  0.
<mgrwt>
<rscale>  0 0.60137473E+03</rscale>
<asrwt>0</asrwt>
<pdfrwt beam="1">  1        2 0.51673123E-01 0.60137473E+03</pdfrwt>
<pdfrwt beam="2">  1       -2 0.35708332E-01 0.60137473E+03</pdfrwt>
<totfact> 0.71712921E+02</totfact>
</mgrwt>
</event>
<event>
 4    1  0.5455400E-005  0.7518254E+03  0.7818608E-02  0.9632491E-01
          2   -1    0    0  501    0  0.00000000000E+00  0.00000000000E+00  0.15568193021E+04  0.15568193021E+04  0.25500000000E-02 0.  1.
         -2   -1    0    0    0  501 -0.00000000000E+00 -0.00000000000E+00 -0.90768633769E+02  0.90768633805E+02  0.25500000000E-02 0. -1.
    5000001    1    1    2    0    0 -0.12216218328E+03  0.29321343657E+03  0.60247958302E+03  0.70763222536E+03  0.19200000000E+03 0.  0.
   -5000001    1    1    2    0    0  0.12216218328E+03 -0.29321343657E+03  0.86357108533E+03  0.93995571057E+03  0.19200000000E+03 0.  0.
<mgrwt>
<rscale>  0 0.75182541E+03</rscale>
<asrwt>0</asrwt>
<pdfrwt beam="1">  1        2 0.22240276E+00 0.75182541E+03</pdfrwt>
<pdfrwt beam="2">  1       -2 0.12966948E-01 0.75182541E+03</pdfrwt>
<totfact> 0.61668163E+02</totfact>
</mgrwt>
</event>
<event>
 4    1  0.5455400E-005  0.5886923E+03  0.7818608E-02  0.9929148E-01
          2   -1    0    0  501    0  0.00000000000E+00  0.00000000000E+00  0.58075793448E+03  0.58075793449E+03  0.25500000000E-02 0.  1.
         -2   -1    0    0    0  501 -0.00000000000E+00 -0.00000000000E+00 -0.14918374358E+03  0.14918374360E+03  0.25500000000E-02 0. -1.
    5000001    1    1    2    0    0 -0.14241836997E+03  0.54724945366E+02  0.41762605682E+03  0.48430706694E+03  0.19200000000E+03 0.  0.
   -5000001    1    1    2    0    0  0.14241836997E+03 -0.54724945366E+02  0.13948134085E+02  0.24563461115E+03  0.19200000000E+03 0.  0.
<mgrwt>
<rscale>  0 0.58869226E+03</rscale>
<asrwt>0</asrwt>
<pdfrwt beam="1">  1        2 0.82965420E-01 0.58869226E+03</pdfrwt>
<pdfrwt beam="2">  1       -2 0.21311963E-01 0.58869226E+03</pdfrwt>
<totfact> 0.10775500E+03</totfact>
</mgrwt>
</event>
<event>
 4    1  0.5455400E-005  0.6013099E+03  0.7818608E-02  0.9902692E-01
         -2   -1    0    0    0  501 -0.00000000000E+00  0.00000000000E+00  0.74993380297E+02  0.74993380340E+02  0.25500000000E-02 0. -1.
          2   -1    0    0  501    0  0.00000000000E+00 -0.00000000000E+00 -0.12053517841E+04  0.12053517841E+04  0.25500000000E-02 0.  1.
    5000001    1    1    2    0    0 -0.10222793432E+03  0.20703751150E+03 -0.53400731264E+03  0.61265234161E+03  0.19200000000E+03 0.  0.
   -5000001    1    1    2    0    0  0.10222793432E+03 -0.20703751150E+03 -0.59635109111E+03  0.66769282278E+03  0.19200000000E+03 0.  0.
<mgrwt>
<rscale>  0 0.60130992E+03</rscale>
<asrwt>0</asrwt>
<pdfrwt beam="1">  1        2 0.17219310E+00 0.60130992E+03</pdfrwt>
<pdfrwt beam="2">  1       -2 0.10713341E-01 0.60130992E+03</pdfrwt>
<totfact> 0.13122041E+03</totfact>
</mgrwt>
</event>
<event>
 4    1  0.5455400E-005  0.6913664E+03  0.7818608E-02  0.9732112E-01
          2   -1    0    0  501    0  0.00000000000E+00  0.00000000000E+00  0.12754999310E+04  0.12754999310E+04  0.25500000000E-02 0.  1.
         -2   -1    0    0    0  501 -0.00000000000E+00 -0.00000000000E+00 -0.93686305019E+02  0.93686305054E+02  0.25500000000E-02 0. -1.
    5000001    1    1    2    0    0  0.15881852837E+03 -0.19867900294E+03  0.32567871754E+03  0.45566138548E+03  0.19200000000E+03 0.  0.
   -5000001    1    1    2    0    0 -0.15881852837E+03  0.19867900294E+03  0.85613490845E+03  0.91352485058E+03  0.19200000000E+03 0.  0.
<mgrwt>
<rscale>  0 0.69136640E+03</rscale>
<asrwt>0</asrwt>
<pdfrwt beam="1">  1        2 0.18221427E+00 0.69136640E+03</pdfrwt>
<pdfrwt beam="2">  1       -2 0.13383758E-01 0.69136640E+03</pdfrwt>
<totfact> 0.82880070E+02</totfact>
</mgrwt>
</event>
<event>
 4    1  0.5455400E-005  0.9597352E+03  0.7818608E-02  0.9353843E-01
         -2   -1    0    0    0  501 -0.00000000000E+00  0.00000000000E+00  0.41311779647E+03  0.41311779648E+03  0.25500000000E-02 0. -1.
          2   -1    0    0  501    0  0.00000000000E+00 -0.00000000000E+00 -0.55740250052E+03  0.55740250053E+03  0.25500000000E-02 0.  1.
    5000001    1    1    2    0    0 -0.21680019208E+03 -0.35955098314E+03  0.60208758585E+02  0.46558385643E+03  0.19200000000E+03 0.  0.
   -5000001    1    1    2    0    0  0.21680019208E+03  0.35955098314E+03 -0.20449346264E+03  0.50493644058E+03  0.19200000000E+03 0.  0.
<mgrwt>
<rscale>  0 0.95973516E+03</rscale>
<asrwt>0</asrwt>
<pdfrwt beam="1">  1        2 0.79628928E-01 0.95973516E+03</pdfrwt>
<pdfrwt beam="2">  1       -2 0.59016829E-01 0.95973516E+03</pdfrwt>
<totfact> 0.15887896E+02</totfact>
</mgrwt>
</event>
<event>
 4    1  0.5455400E-005  0.5616433E+03  0.7818608E-02  0.9988343E-01
          2   -1    0    0  501    0  0.00000000000E+00  0.00000000000E+00  0.23962727895E+04  0.23962727895E+04  0.25500000000E-02 0.  1.
         -2   -1    0    0    0  501 -0.00000000000E+00 -0.00000000000E+00 -0.32909769932E+02  0.32909770031E+02  0.25500000000E-02 0. -1.
    5000001    1    1    2    0    0 -0.11139078825E+03  0.17075793132E+03  0.12714327387E+04  0.13019106681E+04  0.19200000000E+03 0.  0.
   -5000001    1    1    2    0    0  0.11139078825E+03 -0.17075793132E+03  0.10919302809E+04  0.11272718915E+04  0.19200000000E+03 0.  0.
<mgrwt>
<rscale>  0 0.56164325E+03</rscale>
<asrwt>0</asrwt>
<pdfrwt beam="1">  1        2 0.34232478E+00 0.56164325E+03</pdfrwt>
<pdfrwt beam="2">  1       -2 0.47013944E-02 0.56164325E+03</pdfrwt>
<totfact> 0.11833596E+03</totfact>
</mgrwt>
</event>
<event>
 4    1  0.5455400E-005  0.5491393E+03  0.7818608E-02  0.1001693E+00
         -2   -1    0    0    0  501 -0.00000000000E+00  0.00000000000E+00  0.28118226265E+03  0.28118226266E+03  0.25500000000E-02 0. -1.
          2   -1    0    0  501    0  0.00000000000E+00 -0.00000000000E+00 -0.26811250537E+03  0.26811250538E+03  0.25500000000E-02 0.  1.
    5000001    1    1    2    0    0  0.21084435535E+02  0.14216930285E+03  0.14024328614E+03  0.27782880233E+03  0.19200000000E+03 0.  0.
   -5000001    1    1    2    0    0 -0.21084435535E+02 -0.14216930285E+03 -0.12717352886E+03  0.27146596571E+03  0.19200000000E+03 0.  0.
<mgrwt>
<rscale>  0 0.54913926E+03</rscale>
<asrwt>0</asrwt>
<pdfrwt beam="1">  1        2 0.38301786E-01 0.54913926E+03</pdfrwt>
<pdfrwt beam="2">  1       -2 0.40168895E-01 0.54913926E+03</pdfrwt>
<totfact> 0.79640591E+02</totfact>
</mgrwt>
</event>
<event>
 4    1  0.5455400E-005  0.6513578E+03  0.7818608E-02  0.9804235E-01
          2   -1    0    0  501    0  0.00000000000E+00  0.00000000000E+00  0.29108226893E+03  0.29108226894E+03  0.25500000000E-02 0.  1.
         -2   -1    0    0    0  501 -0.00000000000E+00 -0.00000000000E+00 -0.36438756270E+03  0.36438756271E+03  0.25500000000E-02 0. -1.
    5000001    1    1    2    0    0  0.16309479866E+03 -0.13350834406E+03  0.12175254303E+03  0.31001947200E+03  0.19200000000E+03 0.  0.
   -5000001    1    1    2    0    0 -0.16309479866E+03  0.13350834406E+03 -0.19505783681E+03  0.34545035965E+03  0.19200000000E+03 0.  0.
<mgrwt>
<rscale>  0 0.65135784E+03</rscale>
<asrwt>0</asrwt>
<pdfrwt beam="1">  1        2 0.41583182E-01 0.65135784E+03</pdfrwt>
<pdfrwt beam="2">  1       -2 0.52055366E-01 0.65135784E+03</pdfrwt>
<totfact> 0.43333531E+02</totfact>
</mgrwt>
</event>
<event>
 4    1  0.5455400E-005  0.5444687E+03  0.7818608E-02  0.1002782E+00
         -2   -1    0    0    0  501 -0.00000000000E+00  0.00000000000E+00  0.29638512200E+02  0.29638512310E+02  0.25500000000E-02 0. -1.
          2   -1    0    0  501    0  0.00000000000E+00 -0.00000000000E+00 -0.25005150996E+04  0.25005150996E+04  0.25500000000E-02 0.  1.
    5000001    1    1    2    0    0  0.87627315016E+02 -0.15446550569E+03 -0.15865695714E+04  0.16079816988E+04  0.19200000000E+03 0.  0.
   -5000001    1    1    2    0    0 -0.87627315016E+02  0.15446550569E+03 -0.88430701599E+03  0.92217191311E+03  0.19200000000E+03 0.  0.
<mgrwt>
<rscale>  0 0.54446872E+03</rscale>
<asrwt>0</asrwt>
<pdfrwt beam="1">  1        2 0.35721631E+00 0.54446872E+03</pdfrwt>
<pdfrwt beam="2">  1       -2 0.42340747E-02 0.54446872E+03</pdfrwt>
<totfact> 0.12318349E+03</totfact>
</mgrwt>
</event>
<event>
 4    1  0.5455400E-005  0.4588042E+03  0.7818608E-02  0.1025129E+00
         -2   -1    0    0    0  501 -0.00000000000E+00  0.00000000000E+00  0.15344725382E+03  0.15344725384E+03  0.25500000000E-02 0. -1.
          2   -1    0    0  501    0  0.00000000000E+00 -0.00000000000E+00 -0.34295389648E+03  0.34295389649E+03  0.25500000000E-02 0.  1.
    5000001    1    1    2    0    0  0.10937985000E+03  0.84299616160E+01 -0.28707507433E+02  0.22298685347E+03  0.19200000000E+03 0.  0.
   -5000001    1    1    2    0    0 -0.10937985000E+03 -0.84299616160E+01 -0.16079913523E+03  0.27341429686E+03  0.19200000000E+03 0.  0.
<mgrwt>
<rscale>  0 0.45880424E+03</rscale>
<asrwt>0</asrwt>
<pdfrwt beam="1">  1        2 0.48993414E-01 0.45880424E+03</pdfrwt>
<pdfrwt beam="2">  1       -2 0.21921036E-01 0.45880424E+03</pdfrwt>
<totfact> 0.18512309E+03</totfact>
</mgrwt>
</event>
<event>
 4    1  0.5455400E-005  0.7230593E+03  0.7818608E-02  0.9678591E-01
          2   -1    0    0  501    0  0.00000000000E+00  0.00000000000E+00  0.21849759377E+04  0.21849759377E+04  0.25500000000E-02 0.  1.
         -2   -1    0    0    0  501 -0.00000000000E+00 -0.00000000000E+00 -0.59819283316E+02  0.59819283370E+02  0.25500000000E-02 0. -1.
    5000001    1    1    2    0    0  0.63638619039E+01  0.30491313829E+03  0.11518680058E+04  0.12069285080E+04  0.19200000000E+03 0.  0.
   -5000001    1    1    2    0    0 -0.63638619039E+01 -0.30491313829E+03  0.97328864857E+03  0.10378667131E+04  0.19200000000E+03 0.  0.
<mgrwt>
<rscale>  0 0.72305932E+03</rscale>
<asrwt>0</asrwt>
<pdfrwt beam="1">  1        2 0.31213941E+00 0.72305932E+03</pdfrwt>
<pdfrwt beam="2">  1       -2 0.85456123E-02 0.72305932E+03</pdfrwt>
<totfact> 0.58482008E+02</totfact>
</mgrwt>
</event>
<event>
 4    1  0.5455400E-005  0.4925812E+03  0.7818608E-02  0.1015734E+00
         -2   -1    0    0    0  501 -0.00000000000E+00  0.00000000000E+00  0.23591046639E+03  0.23591046640E+03  0.25500000000E-02 0. -1.
          2   -1    0    0  501    0  0.00000000000E+00 -0.00000000000E+00 -0.25712744875E+03  0.25712744877E+03  0.25500000000E-02 0.  1.
    5000001    1    1    2    0    0  0.88785826694E+02  0.12158996991E+03 -0.44225530734E+02  0.24796560522E+03  0.19200000000E+03 0.  0.
   -5000001    1    1    2    0    0 -0.88785826694E+02 -0.12158996991E+03  0.23008548372E+02  0.24507230995E+03  0.19200000000E+03 0.  0.
<mgrwt>
<rscale>  0 0.49258119E+03</rscale>
<asrwt>0</asrwt>
<pdfrwt beam="1">  1        2 0.36732493E-01 0.49258119E+03</pdfrwt>
<pdfrwt beam="2">  1       -2 0.33701495E-01 0.49258119E+03</pdfrwt>
<totfact> 0.11658283E+03</totfact>
</mgrwt>
</event>
<event>
 4    1  0.5455400E-005  0.5893955E+03  0.7818608E-02  0.9927655E-01
          2   -1    0    0  501    0  0.00000000000E+00  0.00000000000E+00  0.60257674699E+03  0.60257674699E+03  0.25500000000E-02 0.  1.
         -2   -1    0    0    0  501 -0.00000000000E+00 -0.00000000000E+00 -0.14412563610E+03  0.14412563613E+03  0.25500000000E-02 0. -1.
    5000001    1    1    2    0    0  0.13071050972E+03 -0.18124427393E+03  0.22044524974E+03  0.36796036786E+03  0.19200000000E+03 0.  0.
   -5000001    1    1    2    0    0 -0.13071050972E+03  0.18124427393E+03  0.23800586114E+03  0.37874201526E+03  0.19200000000E+03 0.  0.
<mgrwt>
<rscale>  0 0.58939548E+03</rscale>
<asrwt>0</asrwt>
<pdfrwt beam="1">  1        2 0.86082392E-01 0.58939548E+03</pdfrwt>
<pdfrwt beam="2">  1       -2 0.20589377E-01 0.58939548E+03</pdfrwt>
<totfact> 0.10962190E+03</totfact>
</mgrwt>
</event>
<event>
 4    1  0.5455400E-005  0.6827230E+03  0.7818608E-02  0.9747243E-01
         -2   -1    0    0    0  501 -0.00000000000E+00  0.00000000000E+00  0.64112205360E+02  0.64112205411E+02  0.25500000000E-02 0. -1.
          2   -1    0    0  501    0  0.00000000000E+00 -0.00000000000E+00 -0.18175581498E+04  0.18175581498E+04  0.25500000000E-02 0.  1.
    5000001    1    1    2    0    0  0.44564251959E+02 -0.26482034934E+03 -0.11161710078E+04  0.11639662833E+04  0.19200000000E+03 0.  0.
   -5000001    1    1    2    0    0 -0.44564251959E+02  0.26482034934E+03 -0.63727493660E+03  0.71770407188E+03  0.19200000000E+03 0.  0.
<mgrwt>
<rscale>  0 0.68272296E+03</rscale>
<asrwt>0</asrwt>
<pdfrwt beam="1">  1        2 0.25965113E+00 0.68272296E+03</pdfrwt>
<pdfrwt beam="2">  1       -2 0.91588876E-02 0.68272296E+03</pdfrwt>
<totfact> 0.80414774E+02</totfact>
</mgrwt>
</event>
<event>
 4    1  0.5455400E-005  0.4890804E+03  0.7818608E-02  0.1016669E+00
          2   -1    0    0  501    0  0.00000000000E+00  0.00000000000E+00  0.75569728660E+03  0.75569728660E+03  0.25500000000E-02 0.  1.
         -2   -1    0    0    0  501 -0.00000000000E+00 -0.00000000000E+00 -0.79132094268E+02  0.79132094310E+02  0.25500000000E-02 0. -1.
    5000001    1    1    2    0    0  0.14732521432E+02 -0.89564076353E+02  0.13134764261E+03  0.24970977990E+03  0.19200000000E+03 0.  0.
   -5000001    1    1    2    0    0 -0.14732521432E+02  0.89564076353E+02  0.54521754972E+03  0.58511960101E+03  0.19200000000E+03 0.  0.
<mgrwt>
<rscale>  0 0.48908040E+03</rscale>
<asrwt>0</asrwt>
<pdfrwt beam="1">  1        2 0.10795675E+00 0.48908040E+03</pdfrwt>
<pdfrwt beam="2">  1       -2 0.11304585E-01 0.48908040E+03</pdfrwt>
<totfact> 0.22900862E+03</totfact>
</mgrwt>
</event>
<event>
 4    1  0.5455400E-005  0.1025972E+04  0.7818608E-02  0.9280509E-01
         -2   -1    0    0    0  501 -0.00000000000E+00  0.00000000000E+00  0.13327715556E+03  0.13327715559E+03  0.25500000000E-02 0. -1.
          2   -1    0    0  501    0  0.00000000000E+00 -0.00000000000E+00 -0.19744901874E+04  0.19744901874E+04  0.25500000000E-02 0.  1.
    5000001    1    1    2    0    0 -0.25321638186E+03 -0.34213199547E+03 -0.13569819674E+04  0.14350738302E+04  0.19200000000E+03 0.  0.
   -5000001    1    1    2    0    0  0.25321638186E+03  0.34213199547E+03 -0.48423106452E+03  0.67269351284E+03  0.19200000000E+03 0.  0.
<mgrwt>
<rscale>  0 0.10259716E+04</rscale>
<asrwt>0</asrwt>
<pdfrwt beam="1">  1        2 0.28207001E+00 0.10259716E+04</pdfrwt>
<pdfrwt beam="2">  1       -2 0.19039595E-01 0.10259716E+04</pdfrwt>
<totfact> 0.19233595E+02</totfact>
</mgrwt>
</event>
<event>
 4    1  0.5455400E-005  0.8006305E+03  0.7818608E-02  0.9559105E-01
         -2   -1    0    0    0  501 -0.00000000000E+00  0.00000000000E+00  0.89308096716E+02  0.89308096753E+02  0.25500000000E-02 0. -1.
          2   -1    0    0  501    0  0.00000000000E+00 -0.00000000000E+00 -0.17943761281E+04  0.17943761281E+04  0.25500000000E-02 0.  1.
    5000001    1    1    2    0    0 -0.27142971830E+03  0.20961041835E+03 -0.67369867693E+03  0.77996443942E+03  0.19200000000E+03 0.  0.
   -5000001    1    1    2    0    0  0.27142971830E+03 -0.20961041835E+03 -0.10313693545E+04  0.11037197854E+04  0.19200000000E+03 0.  0.
<mgrwt>
<rscale>  0 0.80063054E+03</rscale>
<asrwt>0</asrwt>
<pdfrwt beam="1">  1        2 0.25633943E+00 0.80063054E+03</pdfrwt>
<pdfrwt beam="2">  1       -2 0.12758301E-01 0.80063054E+03</pdfrwt>
<totfact> 0.47684146E+02</totfact>
</mgrwt>
</event>
<event>
 4    1  0.5455400E-005  0.5387691E+03  0.7818608E-02  0.1004127E+00
         -2   -1    0    0    0  501 -0.00000000000E+00  0.00000000000E+00  0.68991301584E+02  0.68991301631E+02  0.25500000000E-02 0.  1.
          2   -1    0    0  501    0  0.00000000000E+00 -0.00000000000E+00 -0.10518432640E+04  0.10518432640E+04  0.25500000000E-02 0. -1.
    5000001    1    1    2    0    0 -0.17440979669E+03  0.71441268268E+02 -0.46340636900E+03  0.53584708157E+03  0.19200000000E+03 0.  0.
   -5000001    1    1    2    0    0  0.17440979669E+03 -0.71441268268E+02 -0.51944559341E+03  0.58498748406E+03  0.19200000000E+03 0.  0.
<mgrwt>
<rscale>  0 0.53876910E+03</rscale>
<asrwt>0</asrwt>
<pdfrwt beam="1">  1        2 0.15026331E+00 0.53876910E+03</pdfrwt>
<pdfrwt beam="2">  1       -2 0.98559008E-02 0.53876910E+03</pdfrwt>
<totfact> 0.18429540E+03</totfact>
</mgrwt>
</event>
<event>
 4    1  0.5455400E-005  0.7332889E+03  0.7818608E-02  0.9661938E-01
         -2   -1    0    0    0  501 -0.00000000000E+00  0.00000000000E+00  0.23608112671E+03  0.23608112673E+03  0.25500000000E-02 0. -1.
          2   -1    0    0  501    0  0.00000000000E+00 -0.00000000000E+00 -0.56941513278E+03  0.56941513279E+03  0.25500000000E-02 0.  1.
    5000001    1    1    2    0    0 -0.24283755690E+03 -0.14999906669E+03 -0.27311107492E+02  0.34507925994E+03  0.19200000000E+03 0.  0.
   -5000001    1    1    2    0    0  0.24283755690E+03  0.14999906669E+03 -0.30602289858E+03  0.46041699958E+03  0.19200000000E+03 0.  0.
<mgrwt>
<rscale>  0 0.73328894E+03</rscale>
<asrwt>0</asrwt>
<pdfrwt beam="1">  1        2 0.81345018E-01 0.73328894E+03</pdfrwt>
<pdfrwt beam="2">  1       -2 0.33725876E-01 0.73328894E+03</pdfrwt>
<totfact> 0.47695293E+02</totfact>
</mgrwt>
</event>
<event>
 4    1  0.5455400E-005  0.5865171E+03  0.7818608E-02  0.9933781E-01
          2   -1    0    0  501    0  0.00000000000E+00  0.00000000000E+00  0.12274737648E+04  0.12274737648E+04  0.25500000000E-02 0.  1.
         -2   -1    0    0    0  501 -0.00000000000E+00 -0.00000000000E+00 -0.70063056601E+02  0.70063056647E+02  0.25500000000E-02 0. -1.
    5000001    1    1    2    0    0  0.20330951937E+03 -0.22319955557E+02  0.38964162741E+03  0.48012242074E+03  0.19200000000E+03 0.  0.
   -5000001    1    1    2    0    0 -0.20330951937E+03  0.22319955557E+02  0.76776908079E+03  0.81741440072E+03  0.19200000000E+03 0.  0.
<mgrwt>
<rscale>  0 0.58651705E+03</rscale>
<asrwt>0</asrwt>
<pdfrwt beam="1">  1        2 0.17535338E+00 0.58651705E+03</pdfrwt>
<pdfrwt beam="2">  1       -2 0.10009009E-01 0.58651705E+03</pdfrwt>
<totfact> 0.14250720E+03</totfact>
</mgrwt>
</event>
<event>
 4    1  0.5455400E-005  0.1255568E+04  0.7818608E-02  0.9065562E-01
         -2   -1    0    0    0  501 -0.00000000000E+00  0.00000000000E+00  0.21039107090E+03  0.21039107092E+03  0.25500000000E-02 0. -1.
          2   -1    0    0  501    0  0.00000000000E+00 -0.00000000000E+00 -0.18732392702E+04  0.18732392703E+04  0.25500000000E-02 0.  1.
    5000001    1    1    2    0    0  0.41443752506E+03 -0.21031509603E+03 -0.14551399676E+04  0.15395737161E+04  0.19200000000E+03 0.  0.
   -5000001    1    1    2    0    0 -0.41443752506E+03  0.21031509603E+03 -0.20770823171E+03  0.54405662510E+03  0.19200000000E+03 0.  0.
<mgrwt>
<rscale>  0 0.12555681E+04</rscale>
<asrwt>0</asrwt>
<pdfrwt beam="1">  1        2 0.26760560E+00 0.12555681E+04</pdfrwt>
<pdfrwt beam="2">  1       -2 0.30055868E-01 0.12555681E+04</pdfrwt>
<totfact> 0.93711692E+01</totfact>
</mgrwt>
</event>
<event>
 4    1  0.5455400E-005  0.5812399E+03  0.7818608E-02  0.9945110E-01
         -2   -1    0    0    0  501 -0.00000000000E+00  0.00000000000E+00  0.23169086524E+02  0.23169086664E+02  0.25500000000E-02 0. -1.
          2   -1    0    0  501    0  0.00000000000E+00 -0.00000000000E+00 -0.36453727675E+04  0.36453727675E+04  0.25500000000E-02 0.  1.
    5000001    1    1    2    0    0  0.97416584407E+02  0.19519759883E+03 -0.18235082505E+04  0.18465206289E+04  0.19200000000E+03 0.  0.
   -5000001    1    1    2    0    0 -0.97416584407E+02 -0.19519759883E+03 -0.17986954305E+04  0.18220212252E+04  0.19200000000E+03 0.  0.
<mgrwt>
<rscale>  0 0.58123991E+03</rscale>
<asrwt>0</asrwt>
<pdfrwt beam="1">  1        2 0.52076717E+00 0.58123991E+03</pdfrwt>
<pdfrwt beam="2">  1       -2 0.33098718E-02 0.58123991E+03</pdfrwt>
<totfact> 0.41618725E+02</totfact>
</mgrwt>
</event>
<event>
 4    1  0.5455400E-005  0.6572245E+03  0.7818608E-02  0.9793317E-01
          2   -1    0    0  501    0  0.00000000000E+00  0.00000000000E+00  0.23272604210E+04  0.23272604210E+04  0.25500000000E-02 0.  1.
         -2   -1    0    0    0  501 -0.00000000000E+00 -0.00000000000E+00 -0.46400481589E+02  0.46400481659E+02  0.25500000000E-02 0. -1.
    5000001    1    1    2    0    0 -0.25778792532E+03 -0.21308830093E+02  0.90599771799E+03  0.96156359419E+03  0.19200000000E+03 0.  0.
   -5000001    1    1    2    0    0  0.25778792532E+03  0.21308830093E+02  0.13748622214E+04  0.14120973084E+04  0.19200000000E+03 0.  0.
<mgrwt>
<rscale>  0 0.65722448E+03</rscale>
<asrwt>0</asrwt>
<pdfrwt beam="1">  1        2 0.33246583E+00 0.65722448E+03</pdfrwt>
<pdfrwt beam="2">  1       -2 0.66286392E-02 0.65722448E+03</pdfrwt>
<totfact> 0.74554674E+02</totfact>
</mgrwt>
</event>
<event>
 4    1  0.5455400E-005  0.4171659E+03  0.7818608E-02  0.1037993E+00
         -2   -1    0    0    0  501 -0.00000000000E+00  0.00000000000E+00  0.17299639841E+02  0.17299640029E+02  0.25500000000E-02 0. -1.
          2   -1    0    0  501    0  0.00000000000E+00 -0.00000000000E+00 -0.25148994053E+04  0.25148994053E+04  0.25500000000E-02 0.  1.
    5000001    1    1    2    0    0 -0.34458609901E+02  0.70682174515E+02 -0.13789145852E+04  0.13944363732E+04  0.19200000000E+03 0.  0.
   -5000001    1    1    2    0    0  0.34458609901E+02 -0.70682174515E+02 -0.11186851803E+04  0.11377626722E+04  0.19200000000E+03 0.  0.
<mgrwt>
<rscale>  0 0.41716593E+03</rscale>
<asrwt>0</asrwt>
<pdfrwt beam="1">  1        2 0.35927111E+00 0.41716593E+03</pdfrwt>
<pdfrwt beam="2">  1       -2 0.24713787E-02 0.41716593E+03</pdfrwt>
<totfact> 0.27618439E+03</totfact>
</mgrwt>
</event>
<event>
 4    1  0.5455400E-005  0.4405846E+03  0.7818608E-02  0.1030568E+00
          2   -1    0    0  501    0  0.00000000000E+00  0.00000000000E+00  0.77204199062E+03  0.77204199063E+03  0.25500000000E-02 0.  1.
         -2   -1    0    0    0  501 -0.00000000000E+00 -0.00000000000E+00 -0.62857577556E+02  0.62857577607E+02  0.25500000000E-02 0. -1.
    5000001    1    1    2    0    0 -0.58685548918E+02  0.33294061058E+02  0.19478109359E+03  0.28170225873E+03  0.19200000000E+03 0.  0.
   -5000001    1    1    2    0    0  0.58685548918E+02 -0.33294061058E+02  0.51440331948E+03  0.55319730951E+03  0.19200000000E+03 0.  0.
<mgrwt>
<rscale>  0 0.44058456E+03</rscale>
<asrwt>0</asrwt>
<pdfrwt beam="1">  1        2 0.11029171E+00 0.44058456E+03</pdfrwt>
<pdfrwt beam="2">  1       -2 0.89796540E-02 0.44058456E+03</pdfrwt>
<totfact> 0.32298979E+03</totfact>
</mgrwt>
</event>
<event>
 4    1  0.5455400E-005  0.7991267E+03  0.7818608E-02  0.9561282E-01
         -2   -1    0    0    0  501 -0.00000000000E+00  0.00000000000E+00  0.56116221631E+02  0.56116221689E+02  0.25500000000E-02 0. -1.
          2   -1    0    0  501    0  0.00000000000E+00 -0.00000000000E+00 -0.28450035700E+04  0.28450035700E+04  0.25500000000E-02 0.  1.
    5000001    1    1    2    0    0 -0.15452198717E+02 -0.34962535924E+03 -0.14583822600E+04  0.15120249596E+04  0.19200000000E+03 0.  0.
   -5000001    1    1    2    0    0  0.15452198717E+02  0.34962535924E+03 -0.13305050884E+04  0.13890948321E+04  0.19200000000E+03 0.  0.
<mgrwt>
<rscale>  0 0.79912665E+03</rscale>
<asrwt>0</asrwt>
<pdfrwt beam="1">  1        2 0.40642899E+00 0.79912665E+03</pdfrwt>
<pdfrwt beam="2">  1       -2 0.80166049E-02 0.79912665E+03</pdfrwt>
<totfact> 0.29267643E+02</totfact>
</mgrwt>
</event>
<event>
 4    1  0.5455400E-005  0.1018649E+04  0.7818608E-02  0.9288324E-01
         -2   -1    0    0    0  501 -0.00000000000E+00  0.00000000000E+00  0.87695444333E+03  0.87695444333E+03  0.25500000000E-02 0.  1.
          2   -1    0    0  501    0  0.00000000000E+00 -0.00000000000E+00 -0.29580935005E+03  0.29580935006E+03  0.25500000000E-02 0. -1.
    5000001    1    1    2    0    0  0.10145841700E+03 -0.45067641306E+03  0.40066586132E+03  0.64093694861E+03  0.19200000000E+03 0.  0.
   -5000001    1    1    2    0    0 -0.10145841700E+03  0.45067641306E+03  0.18047923196E+03  0.53182684479E+03  0.19200000000E+03 0.  0.
<mgrwt>
<rscale>  0 0.10186488E+04</rscale>
<asrwt>0</asrwt>
<pdfrwt beam="1">  1        2 0.42258478E-01 0.10186488E+04</pdfrwt>
<pdfrwt beam="2">  1       -2 0.12527921E+00 0.10186488E+04</pdfrwt>
<totfact> 0.57615687E+01</totfact>
</mgrwt>
</event>
<event>
 4    1  0.5455400E-005  0.4511323E+03  0.7818608E-02  0.1027385E+00
          2   -1    0    0  501    0  0.00000000000E+00  0.00000000000E+00  0.23601541018E+04  0.23601541018E+04  0.25500000000E-02 0.  1.
         -2   -1    0    0    0  501 -0.00000000000E+00 -0.00000000000E+00 -0.21557947510E+02  0.21557947661E+02  0.25500000000E-02 0. -1.
    5000001    1    1    2    0    0 -0.57763084408E+02  0.35929225386E+02  0.16808452407E+04  0.16931427011E+04  0.19200000000E+03 0.  0.
   -5000001    1    1    2    0    0  0.57763084408E+02 -0.35929225386E+02  0.65775091366E+03  0.68856934842E+03  0.19200000000E+03 0.  0.
<mgrwt>
<rscale>  0 0.45113226E+03</rscale>
<asrwt>0</asrwt>
<pdfrwt beam="1">  1        2 0.33716502E+00 0.45113226E+03</pdfrwt>
<pdfrwt beam="2">  1       -2 0.30797054E-02 0.45113226E+03</pdfrwt>
<totfact> 0.23704868E+03</totfact>
</mgrwt>
</event>
<event>
 4    1  0.5455400E-005  0.5039379E+03  0.7818608E-02  0.1012756E+00
         -2   -1    0    0    0  501 -0.00000000000E+00  0.00000000000E+00  0.13401125961E+03  0.13401125963E+03  0.25500000000E-02 0. -1.
          2   -1    0    0  501    0  0.00000000000E+00 -0.00000000000E+00 -0.47375393576E+03  0.47375393577E+03  0.25500000000E-02 0.  1.
    5000001    1    1    2    0    0  0.12405301414E+03  0.47875443715E+02 -0.28392365358E+03  0.36763820461E+03  0.19200000000E+03 0.  0.
   -5000001    1    1    2    0    0 -0.12405301414E+03 -0.47875443715E+02 -0.55819022575E+02  0.24012699080E+03  0.19200000000E+03 0.  0.
<mgrwt>
<rscale>  0 0.50393794E+03</rscale>
<asrwt>0</asrwt>
<pdfrwt beam="1">  1        2 0.67679133E-01 0.50393794E+03</pdfrwt>
<pdfrwt beam="2">  1       -2 0.19144466E-01 0.50393794E+03</pdfrwt>
<totfact> 0.16397558E+03</totfact>
</mgrwt>
</event>
<event>
 4    1  0.5455400E-005  0.1103407E+04  0.7818608E-02  0.9201878E-01
         -2   -1    0    0    0  501 -0.00000000000E+00  0.00000000000E+00  0.60437085560E+03  0.60437085561E+03  0.25500000000E-02 0. -1.
          2   -1    0    0  501    0  0.00000000000E+00 -0.00000000000E+00 -0.50362543560E+03  0.50362543561E+03  0.25500000000E-02 0.  1.
    5000001    1    1    2    0    0  0.44466773066E+03 -0.25596651552E+03 -0.15200428903E+02  0.54803585722E+03  0.19200000000E+03 0.  0.
   -5000001    1    1    2    0    0 -0.44466773066E+03  0.25596651552E+03  0.11594584890E+03  0.55996043399E+03  0.19200000000E+03 0.  0.
<mgrwt>
<rscale>  0 0.11034066E+04</rscale>
<asrwt>0</asrwt>
<pdfrwt beam="1">  1        2 0.71946491E-01 0.11034066E+04</pdfrwt>
<pdfrwt beam="2">  1       -2 0.86338694E-01 0.11034066E+04</pdfrwt>
<totfact> 0.76940075E+01</totfact>
</mgrwt>
</event>
<event>
 4    1  0.5455400E-005  0.5117794E+03  0.7818608E-02  0.1010749E+00
          2   -1    0    0  501    0  0.00000000000E+00  0.00000000000E+00  0.98564975060E+02  0.98564975093E+02  0.25500000000E-02 0. -1.
         -2   -1    0    0    0  501 -0.00000000000E+00 -0.00000000000E+00 -0.66432877212E+03  0.66432877213E+03  0.25500000000E-02 0.  1.
    5000001    1    1    2    0    0 -0.14624588746E+03 -0.75031873000E+02 -0.34246965189E+03  0.42563729163E+03  0.19200000000E+03 0.  0.
   -5000001    1    1    2    0    0  0.14624588746E+03  0.75031873000E+02 -0.22329414517E+03  0.33725645558E+03  0.19200000000E+03 0.  0.
<mgrwt>
<rscale>  0 0.51177944E+03</rscale>
<asrwt>0</asrwt>
<pdfrwt beam="1">  1        2 0.14080711E-01 0.51177944E+03</pdfrwt>
<pdfrwt beam="2">  1       -2 0.94904108E-01 0.51177944E+03</pdfrwt>
<totfact> 0.40889356E+02</totfact>
</mgrwt>
</event>
<event>
 4    1  0.5455400E-005  0.6013534E+03  0.7818608E-02  0.9902602E-01
         -2   -1    0    0    0  501 -0.00000000000E+00  0.00000000000E+00  0.40338901723E+02  0.40338901804E+02  0.25500000000E-02 0. -1.
          2   -1    0    0  501    0  0.00000000000E+00 -0.00000000000E+00 -0.22411737724E+04  0.22411737724E+04  0.25500000000E-02 0.  1.
    5000001    1    1    2    0    0 -0.17668871085E+03 -0.47927403690E+02 -0.16373208689E+04  0.16586740380E+04  0.19200000000E+03 0.  0.
   -5000001    1    1    2    0    0  0.17668871085E+03  0.47927403690E+02 -0.56351400180E+03  0.62283863623E+03  0.19200000000E+03 0.  0.
<mgrwt>
<rscale>  0 0.60135344E+03</rscale>
<asrwt>0</asrwt>
<pdfrwt beam="1">  1        2 0.32016760E+00 0.60135344E+03</pdfrwt>
<pdfrwt beam="2">  1       -2 0.57627017E-02 0.60135344E+03</pdfrwt>
<totfact> 0.10307638E+03</totfact>
</mgrwt>
</event>
<event>
 4    1  0.5455400E-005  0.5029880E+03  0.7818608E-02  0.1013002E+00
         -2   -1    0    0    0  501 -0.00000000000E+00  0.00000000000E+00  0.83715333405E+02  0.83715333444E+02  0.25500000000E-02 0. -1.
          2   -1    0    0  501    0  0.00000000000E+00 -0.00000000000E+00 -0.75552749135E+03  0.75552749136E+03  0.25500000000E-02 0.  1.
    5000001    1    1    2    0    0 -0.94820211849E+02 -0.55990908364E+01 -0.55576421958E+03  0.59561740250E+03  0.19200000000E+03 0.  0.
   -5000001    1    1    2    0    0  0.94820211849E+02  0.55990908364E+01 -0.11604793837E+03  0.24362542230E+03  0.19200000000E+03 0.  0.
<mgrwt>
<rscale>  0 0.50298802E+03</rscale>
<asrwt>0</asrwt>
<pdfrwt beam="1">  1        2 0.10793249E+00 0.50298802E+03</pdfrwt>
<pdfrwt beam="2">  1       -2 0.11959334E-01 0.50298802E+03</pdfrwt>
<totfact> 0.20894808E+03</totfact>
</mgrwt>
</event>
<event>
 4    1  0.5455400E-005  0.1269045E+04  0.7818608E-02  0.9054480E-01
         -2   -1    0    0    0  501 -0.00000000000E+00  0.00000000000E+00  0.16299236035E+03  0.16299236037E+03  0.25500000000E-02 0. -1.
          2   -1    0    0  501    0  0.00000000000E+00 -0.00000000000E+00 -0.24701694602E+04  0.24701694602E+04  0.25500000000E-02 0.  1.
    5000001    1    1    2    0    0 -0.46816371758E+03 -0.17375081172E+03 -0.44571624897E+03  0.69634300860E+03  0.19200000000E+03 0.  0.
   -5000001    1    1    2    0    0  0.46816371758E+03  0.17375081172E+03 -0.18614608509E+04  0.19368188120E+04  0.19200000000E+03 0.  0.
<mgrwt>
<rscale>  0 0.12690449E+04</rscale>
<asrwt>0</asrwt>
<pdfrwt beam="1">  1        2 0.35288133E+00 0.12690449E+04</pdfrwt>
<pdfrwt beam="2">  1       -2 0.23284624E-01 0.12690449E+04</pdfrwt>
<totfact> 0.73504035E+01</totfact>
</mgrwt>
</event>
<event>
 4    1  0.5455400E-005  0.5316292E+03  0.7818608E-02  0.1005838E+00
          2   -1    0    0  501    0  0.00000000000E+00  0.00000000000E+00  0.40981599555E+03  0.40981599556E+03  0.25500000000E-02 0.  1.
         -2   -1    0    0    0  501 -0.00000000000E+00 -0.00000000000E+00 -0.17241247541E+03  0.17241247543E+03  0.25500000000E-02 0. -1.
    5000001    1    1    2    0    0 -0.16217567008E+03 -0.14854808086E+01  0.21348518270E+03  0.32976215346E+03  0.19200000000E+03 0.  0.
   -5000001    1    1    2    0    0  0.16217567008E+03  0.14854808086E+01  0.23918337438E+02  0.25246631753E+03  0.19200000000E+03 0.  0.
<mgrwt>
<rscale>  0 0.53162916E+03</rscale>
<asrwt>0</asrwt>
<pdfrwt beam="1">  1        2 0.58545143E-01 0.53162916E+03</pdfrwt>
<pdfrwt beam="2">  1       -2 0.24630353E-01 0.53162916E+03</pdfrwt>
<totfact> 0.12385879E+03</totfact>
</mgrwt>
</event>
<event>
 4    1  0.5455400E-005  0.4854958E+03  0.7818608E-02  0.1017636E+00
          2   -1    0    0  501    0  0.00000000000E+00  0.00000000000E+00  0.14233668767E+04  0.14233668767E+04  0.25500000000E-02 0.  1.
         -2   -1    0    0    0  501 -0.00000000000E+00 -0.00000000000E+00 -0.41399399207E+02  0.41399399286E+02  0.25500000000E-02 0. -1.
    5000001    1    1    2    0    0 -0.60520289060E+02  0.11852735850E+03  0.49197044020E+03  0.54461945809E+03  0.19200000000E+03 0.  0.
   -5000001    1    1    2    0    0  0.60520289060E+02 -0.11852735850E+03  0.88999703733E+03  0.92014681793E+03  0.19200000000E+03 0.  0.
<mgrwt>
<rscale>  0 0.48549576E+03</rscale>
<asrwt>0</asrwt>
<pdfrwt beam="1">  1        2 0.20333811E+00 0.48549576E+03</pdfrwt>
<pdfrwt beam="2">  1       -2 0.59142004E-02 0.48549576E+03</pdfrwt>
<totfact> 0.25808956E+03</totfact>
</mgrwt>
</event>
<event>
 4    1  0.5455400E-005  0.5250743E+03  0.7818608E-02  0.1007434E+00
         -2   -1    0    0    0  501 -0.00000000000E+00  0.00000000000E+00  0.69551284562E+02  0.69551284609E+02  0.25500000000E-02 0. -1.
          2   -1    0    0  501    0  0.00000000000E+00 -0.00000000000E+00 -0.99100630400E+03  0.99100630400E+03  0.25500000000E-02 0.  1.
    5000001    1    1    2    0    0  0.14895210970E+03  0.45156281683E+02 -0.28193099672E+03  0.37493320428E+03  0.19200000000E+03 0.  0.
   -5000001    1    1    2    0    0 -0.14895210970E+03 -0.45156281683E+02 -0.63952402272E+03  0.68562438433E+03  0.19200000000E+03 0.  0.
<mgrwt>
<rscale>  0 0.52507432E+03</rscale>
<asrwt>0</asrwt>
<pdfrwt beam="1">  1        2 0.14157232E+00 0.52507432E+03</pdfrwt>
<pdfrwt beam="2">  1       -2 0.99358985E-02 0.52507432E+03</pdfrwt>
<totfact> 0.19788950E+03</totfact>
</mgrwt>
</event>
<event>
 4    1  0.5455400E-005  0.6627072E+03  0.7818608E-02  0.9783223E-01
         -2   -1    0    0    0  501 -0.00000000000E+00  0.00000000000E+00  0.11494867579E+03  0.11494867582E+03  0.25500000000E-02 0.  1.
          2   -1    0    0  501    0  0.00000000000E+00 -0.00000000000E+00 -0.95516709256E+03  0.95516709256E+03  0.25500000000E-02 0. -1.
    5000001    1    1    2    0    0 -0.85645037000E+02 -0.57672592216E+02 -0.17161665942E+02  0.21867721197E+03  0.19200000000E+03 0.  0.
   -5000001    1    1    2    0    0  0.85645037000E+02  0.57672592216E+02 -0.82305675083E+03  0.85143855641E+03  0.19200000000E+03 0.  0.
<mgrwt>
<rscale>  0 0.66270715E+03</rscale>
<asrwt>0</asrwt>
<pdfrwt beam="1">  1        2 0.13645244E+00 0.66270715E+03</pdfrwt>
<pdfrwt beam="2">  1       -2 0.16421240E-01 0.66270715E+03</pdfrwt>
<totfact> 0.90353758E+02</totfact>
</mgrwt>
</event>
<event>
 4    1  0.5455400E-005  0.4640505E+03  0.7818608E-02  0.1023613E+00
          2   -1    0    0  501    0  0.00000000000E+00  0.00000000000E+00  0.14692961961E+04  0.14692961961E+04  0.25500000000E-02 0.  1.
         -2   -1    0    0    0  501 -0.00000000000E+00 -0.00000000000E+00 -0.36640480602E+02  0.36640480691E+02  0.25500000000E-02 0. -1.
    5000001    1    1    2    0    0 -0.37548338191E+02 -0.89985244358E+02  0.43595128108E+03  0.48623527369E+03  0.19200000000E+03 0.  0.
   -5000001    1    1    2    0    0  0.37548338191E+02  0.89985244358E+02  0.99670443437E+03  0.10197014031E+04  0.19200000000E+03 0.  0.
<mgrwt>
<rscale>  0 0.46405051E+03</rscale>
<asrwt>0</asrwt>
<pdfrwt beam="1">  1        2 0.20989942E+00 0.46405051E+03</pdfrwt>
<pdfrwt beam="2">  1       -2 0.52343553E-02 0.46405051E+03</pdfrwt>
<totfact> 0.29524242E+03</totfact>
</mgrwt>
</event>
<event>
 4    1  0.5455400E-005  0.6679351E+03  0.7818608E-02  0.9773695E-01
          2   -1    0    0  501    0  0.00000000000E+00  0.00000000000E+00  0.10722791535E+03  0.10722791538E+03  0.25500000000E-02 0.  1.
         -2   -1    0    0    0  501 -0.00000000000E+00 -0.00000000000E+00 -0.10401614165E+04  0.10401614166E+04  0.25500000000E-02 0. -1.
    5000001    1    1    2    0    0  0.19113637041E+03  0.10835906806E+03 -0.74555515397E+03  0.80061931487E+03  0.19200000000E+03 0.  0.
   -5000001    1    1    2    0    0 -0.19113637041E+03 -0.10835906806E+03 -0.18737834722E+03  0.34677001706E+03  0.19200000000E+03 0.  0.
<mgrwt>
<rscale>  0 0.66793515E+03</rscale>
<asrwt>0</asrwt>
<pdfrwt beam="1">  1        2 0.15318274E-01 0.66793515E+03</pdfrwt>
<pdfrwt beam="2">  1       -2 0.14859448E+00 0.66793515E+03</pdfrwt>
<totfact> 0.12179393E+02</totfact>
</mgrwt>
</event>
<event>
 4    1  0.5455400E-005  0.5032631E+03  0.7818608E-02  0.1012931E+00
          2   -1    0    0  501    0  0.00000000000E+00  0.00000000000E+00  0.78172193135E+03  0.78172193136E+03  0.25500000000E-02 0.  1.
         -2   -1    0    0    0  501 -0.00000000000E+00 -0.00000000000E+00 -0.80998673249E+02  0.80998673289E+02  0.25500000000E-02 0. -1.
    5000001    1    1    2    0    0 -0.90134936395E+02 -0.13446751542E+03  0.32333182042E+03  0.40940601554E+03  0.19200000000E+03 0.  0.
   -5000001    1    1    2    0    0  0.90134936395E+02  0.13446751542E+03  0.37739143768E+03  0.45331458911E+03  0.19200000000E+03 0.  0.
<mgrwt>
<rscale>  0 0.50326311E+03</rscale>
<asrwt>0</asrwt>
<pdfrwt beam="1">  1        2 0.11167456E+00 0.50326311E+03</pdfrwt>
<pdfrwt beam="2">  1       -2 0.11571239E-01 0.50326311E+03</pdfrwt>
<totfact> 0.21132749E+03</totfact>
</mgrwt>
</event>
<event>
 4    1  0.5455400E-005  0.9543413E+03  0.7818608E-02  0.9360091E-01
          2   -1    0    0  501    0  0.00000000000E+00  0.00000000000E+00  0.42739025239E+03  0.42739025240E+03  0.25500000000E-02 0.  1.
         -2   -1    0    0    0  501 -0.00000000000E+00 -0.00000000000E+00 -0.53274927582E+03  0.53274927583E+03  0.25500000000E-02 0. -1.
    5000001    1    1    2    0    0  0.61058198815E+02 -0.35832069394E+03 -0.29644484762E+03  0.50681887399E+03  0.19200000000E+03 0.  0.
   -5000001    1    1    2    0    0 -0.61058198815E+02  0.35832069394E+03  0.19108582419E+03  0.45332065423E+03  0.19200000000E+03 0.  0.
<mgrwt>
<rscale>  0 0.95434134E+03</rscale>
<asrwt>0</asrwt>
<pdfrwt beam="1">  1        2 0.61055751E-01 0.95434134E+03</pdfrwt>
<pdfrwt beam="2">  1       -2 0.76107039E-01 0.95434134E+03</pdfrwt>
<totfact> 0.12426088E+02</totfact>
</mgrwt>
</event>
<event>
 4    1  0.5455400E-005  0.6680029E+03  0.7818608E-02  0.9773572E-01
         -2   -1    0    0    0  501 -0.00000000000E+00  0.00000000000E+00  0.34670208184E+03  0.34670208185E+03  0.25500000000E-02 0. -1.
          2   -1    0    0  501    0  0.00000000000E+00 -0.00000000000E+00 -0.32176608450E+03  0.32176608451E+03  0.25500000000E-02 0.  1.
    5000001    1    1    2    0    0  0.60204952408E+02 -0.14589037683E+03 -0.21081143581E+03  0.32590504723E+03  0.19200000000E+03 0.  0.
   -5000001    1    1    2    0    0 -0.60204952408E+02  0.14589037683E+03  0.23574743315E+03  0.34256311912E+03  0.19200000000E+03 0.  0.
<mgrwt>
<rscale>  0 0.66800291E+03</rscale>
<asrwt>0</asrwt>
<pdfrwt beam="1">  1        2 0.45966583E-01 0.66800291E+03</pdfrwt>
<pdfrwt beam="2">  1       -2 0.49528869E-01 0.66800291E+03</pdfrwt>
<totfact> 0.42903176E+02</totfact>
</mgrwt>
</event>
<event>
 4    1  0.5455400E-005  0.8562204E+03  0.7818608E-02  0.9482026E-01
          2   -1    0    0  501    0  0.00000000000E+00  0.00000000000E+00  0.16292607492E+04  0.16292607492E+04  0.25500000000E-02 0. -1.
         -2   -1    0    0    0  501 -0.00000000000E+00 -0.00000000000E+00 -0.11249171677E+03  0.11249171680E+03  0.25500000000E-02 0.  1.
    5000001    1    1    2    0    0  0.32017309533E+03 -0.16120961358E+03  0.10306603726E+04  0.11079820189E+04  0.19200000000E+03 0.  0.
   -5000001    1    1    2    0    0 -0.32017309533E+03  0.16120961358E+03  0.48610865980E+03  0.63377044709E+03  0.19200000000E+03 0.  0.
<mgrwt>
<rscale>  0 0.85622039E+03</rscale>
<asrwt>0</asrwt>
<pdfrwt beam="1">  1        2 0.23275154E+00 0.85622039E+03</pdfrwt>
<pdfrwt beam="2">  1       -2 0.16070245E-01 0.85622039E+03</pdfrwt>
<totfact> 0.39163668E+02</totfact>
</mgrwt>
</event>
<event>
 4    1  0.5455400E-005  0.5065679E+03  0.7818608E-02  0.1012079E+00
         -2   -1    0    0    0  501 -0.00000000000E+00  0.00000000000E+00  0.82751726549E+02  0.82751726588E+02  0.25500000000E-02 0. -1.
          2   -1    0    0  501    0  0.00000000000E+00 -0.00000000000E+00 -0.77524363639E+03  0.77524363640E+03  0.25500000000E-02 0.  1.
    5000001    1    1    2    0    0  0.39648630063E+02 -0.39301628494E+02 -0.82913336832E+02  0.21646074308E+03  0.19200000000E+03 0.  0.
   -5000001    1    1    2    0    0 -0.39648630063E+02  0.39301628494E+02 -0.60957857301E+03  0.64153461991E+03  0.19200000000E+03 0.  0.
<mgrwt>
<rscale>  0 0.50656786E+03</rscale>
<asrwt>0</asrwt>
<pdfrwt beam="1">  1        2 0.11074909E+00 0.50656786E+03</pdfrwt>
<pdfrwt beam="2">  1       -2 0.11821676E-01 0.50656786E+03</pdfrwt>
<totfact> 0.20620061E+03</totfact>
</mgrwt>
</event>
<event>
 4    1  0.5455400E-005  0.4808440E+03  0.7818608E-02  0.1018903E+00
         -2   -1    0    0    0  501 -0.00000000000E+00  0.00000000000E+00  0.14933630034E+04  0.14933630034E+04  0.25500000000E-02 0. -1.
          2   -1    0    0  501    0  0.00000000000E+00 -0.00000000000E+00 -0.38706426733E+02  0.38706426817E+02  0.25500000000E-02 0.  1.
    5000001    1    1    2    0    0 -0.54520847984E+02 -0.96711094010E+02  0.43162499628E+03  0.48527280573E+03  0.19200000000E+03 0.  0.
   -5000001    1    1    2    0    0  0.54520847984E+02  0.96711094010E+02  0.10230315804E+04  0.10467966245E+04  0.19200000000E+03 0.  0.
<mgrwt>
<rscale>  0 0.48084403E+03</rscale>
<asrwt>0</asrwt>
<pdfrwt beam="1">  1        2 0.55294905E-02 0.48084403E+03</pdfrwt>
<pdfrwt beam="2">  1       -2 0.21333754E+00 0.48084403E+03</pdfrwt>
<totfact> 0.16255820E+02</totfact>
</mgrwt>
</event>
<event>
 4    1  0.5455400E-005  0.7791706E+03  0.7818608E-02  0.9590666E-01
          2   -1    0    0  501    0  0.00000000000E+00  0.00000000000E+00  0.31933145094E+04  0.31933145094E+04  0.25500000000E-02 0.  1.
         -2   -1    0    0    0  501 -0.00000000000E+00 -0.00000000000E+00 -0.47529518543E+02  0.47529518611E+02  0.25500000000E-02 0. -1.
    5000001    1    1    2    0    0 -0.20227201765E+03 -0.10055783763E+03  0.52158120322E+03  0.59994733051E+03  0.19200000000E+03 0.  0.
   -5000001    1    1    2    0    0  0.20227201765E+03  0.10055783763E+03  0.26242037876E+04  0.26408966975E+04  0.19200000000E+03 0.  0.
<mgrwt>
<rscale>  0 0.77917059E+03</rscale>
<asrwt>0</asrwt>
<pdfrwt beam="1">  1        2 0.45618807E+00 0.77917059E+03</pdfrwt>
<pdfrwt beam="2">  1       -2 0.67899270E-02 0.77917059E+03</pdfrwt>
<totfact> 0.24575601E+02</totfact>
</mgrwt>
</event>
<event>
 4    1  0.5455400E-005  0.5791559E+03  0.7818608E-02  0.9949620E-01
         -2   -1    0    0    0  501 -0.00000000000E+00  0.00000000000E+00  0.30906770762E+02  0.30906770867E+02  0.25500000000E-02 0. -1.
          2   -1    0    0  501    0  0.00000000000E+00 -0.00000000000E+00 -0.27131725770E+04  0.27131725770E+04  0.25500000000E-02 0.  1.
    5000001    1    1    2    0    0 -0.18387088762E+03  0.91461611169E+01 -0.18834138146E+04  0.19021050845E+04  0.19200000000E+03 0.  0.
   -5000001    1    1    2    0    0  0.18387088762E+03 -0.91461611169E+01 -0.79885199167E+03  0.84197426337E+03  0.19200000000E+03 0.  0.
<mgrwt>
<rscale>  0 0.57915595E+03</rscale>
<asrwt>0</asrwt>
<pdfrwt beam="1">  1        2 0.38759593E+00 0.57915595E+03</pdfrwt>
<pdfrwt beam="2">  1       -2 0.44152547E-02 0.57915595E+03</pdfrwt>
<totfact> 0.89410960E+02</totfact>
</mgrwt>
</event>
<event>
 4    1  0.5455400E-005  0.5499057E+03  0.7818608E-02  0.1001516E+00
          2   -1    0    0  501    0  0.00000000000E+00  0.00000000000E+00  0.37619571889E+03  0.37619571890E+03  0.25500000000E-02 0.  1.
         -2   -1    0    0    0  501 -0.00000000000E+00 -0.00000000000E+00 -0.20095674080E+03  0.20095674082E+03  0.25500000000E-02 0. -1.
    5000001    1    1    2    0    0 -0.10243867655E+03 -0.15090723910E+03  0.16523205013E+03  0.31214148660E+03  0.19200000000E+03 0.  0.
   -5000001    1    1    2    0    0  0.10243867655E+03  0.15090723910E+03  0.10006927955E+02  0.26501097312E+03  0.19200000000E+03 0.  0.
<mgrwt>
<rscale>  0 0.54990568E+03</rscale>
<asrwt>0</asrwt>
<pdfrwt beam="1">  1        2 0.53742245E-01 0.54990568E+03</pdfrwt>
<pdfrwt beam="2">  1       -2 0.28708106E-01 0.54990568E+03</pdfrwt>
<totfact> 0.10321493E+03</totfact>
</mgrwt>
</event>
<event>
 4    1  0.5455400E-005  0.4780156E+03  0.7818608E-02  0.1019682E+00
         -2   -1    0    0    0  501 -0.00000000000E+00  0.00000000000E+00  0.33346453099E+02  0.33346453197E+02  0.25500000000E-02 0.  1.
          2   -1    0    0  501    0  0.00000000000E+00 -0.00000000000E+00 -0.17130674593E+04  0.17130674593E+04  0.25500000000E-02 0. -1.
    5000001    1    1    2    0    0 -0.66188593296E+02  0.10729498425E+03 -0.10813095952E+04  0.11054354727E+04  0.19200000000E+03 0.  0.
   -5000001    1    1    2    0    0  0.66188593296E+02 -0.10729498425E+03 -0.59841141098E+03  0.64097843982E+03  0.19200000000E+03 0.  0.
<mgrwt>
<rscale>  0 0.47801558E+03</rscale>
<asrwt>0</asrwt>
<pdfrwt beam="1">  1        2 0.24472387E+00 0.47801558E+03</pdfrwt>
<pdfrwt beam="2">  1       -2 0.47637801E-02 0.47801558E+03</pdfrwt>
<totfact> 0.25631299E+03</totfact>
</mgrwt>
</event>
<event>
 4    1  0.5455400E-005  0.6406067E+03  0.7818608E-02  0.9824566E-01
         -2   -1    0    0    0  501 -0.00000000000E+00  0.00000000000E+00  0.12140398374E+03  0.12140398377E+03  0.25500000000E-02 0. -1.
          2   -1    0    0  501    0  0.00000000000E+00 -0.00000000000E+00 -0.84506478614E+03  0.84506478614E+03  0.25500000000E-02 0.  1.
    5000001    1    1    2    0    0  0.24773211534E+03  0.38359305737E+02 -0.28075960410E+03  0.42253117353E+03  0.19200000000E+03 0.  0.
   -5000001    1    1    2    0    0 -0.24773211534E+03 -0.38359305737E+02 -0.44290119829E+03  0.54393759638E+03  0.19200000000E+03 0.  0.
<mgrwt>
<rscale>  0 0.64060669E+03</rscale>
<asrwt>0</asrwt>
<pdfrwt beam="1">  1        2 0.12072354E+00 0.64060669E+03</pdfrwt>
<pdfrwt beam="2">  1       -2 0.17343427E-01 0.64060669E+03</pdfrwt>
<totfact> 0.97050232E+02</totfact>
</mgrwt>
</event>
<event>
 4    1  0.5455400E-005  0.7046496E+03  0.7818608E-02  0.9709314E-01
          2   -1    0    0  501    0  0.00000000000E+00  0.00000000000E+00  0.29017868497E+04  0.29017868497E+04  0.25500000000E-02 0. -1.
         -2   -1    0    0    0  501 -0.00000000000E+00 -0.00000000000E+00 -0.42778048776E+02  0.42778048852E+02  0.25500000000E-02 0.  1.
    5000001    1    1    2    0    0 -0.13808210982E+03  0.23679055295E+03  0.96922635350E+03  0.10253780568E+04  0.19200000000E+03 0.  0.
   -5000001    1    1    2    0    0  0.13808210982E+03 -0.23679055295E+03  0.18897824474E+04  0.19191868418E+04  0.19200000000E+03 0.  0.
<mgrwt>
<rscale>  0 0.70464964E+03</rscale>
<asrwt>0</asrwt>
<pdfrwt beam="1">  1        2 0.41454111E+00 0.70464964E+03</pdfrwt>
<pdfrwt beam="2">  1       -2 0.61111479E-02 0.70464964E+03</pdfrwt>
<totfact> 0.42333030E+02</totfact>
</mgrwt>
</event>
<event>
 4    1  0.5455400E-005  0.7337340E+03  0.7818608E-02  0.9661220E-01
          2   -1    0    0  501    0  0.00000000000E+00  0.00000000000E+00  0.60768516048E+03  0.60768516049E+03  0.25500000000E-02 0.  1.
         -2   -1    0    0    0  501 -0.00000000000E+00 -0.00000000000E+00 -0.22148213920E+03  0.22148213922E+03  0.25500000000E-02 0. -1.
    5000001    1    1    2    0    0  0.13265424719E+03  0.23734837281E+03  0.18778157478E+02  0.33338868993E+03  0.19200000000E+03 0.  0.
   -5000001    1    1    2    0    0 -0.13265424719E+03 -0.23734837281E+03  0.36742486380E+03  0.49577860978E+03  0.19200000000E+03 0.  0.
<mgrwt>
<rscale>  0 0.73373404E+03</rscale>
<asrwt>0</asrwt>
<pdfrwt beam="1">  1        2 0.86812166E-01 0.73373404E+03</pdfrwt>
<pdfrwt beam="2">  1       -2 0.31640305E-01 0.73373404E+03</pdfrwt>
<totfact> 0.49805770E+02</totfact>
</mgrwt>
</event>
<event>
 4    1  0.5455400E-005  0.5908561E+03  0.7818608E-02  0.9924560E-01
          2   -1    0    0  501    0  0.00000000000E+00  0.00000000000E+00  0.70178952546E+03  0.70178952546E+03  0.25500000000E-02 0.  1.
         -2   -1    0    0    0  501 -0.00000000000E+00 -0.00000000000E+00 -0.12436456092E+03  0.12436456095E+03  0.25500000000E-02 0. -1.
    5000001    1    1    2    0    0 -0.72959112817E+02  0.17364607402E+03  0.11782039080E+03  0.29363520847E+03  0.19200000000E+03 0.  0.
   -5000001    1    1    2    0    0  0.72959112817E+02 -0.17364607402E+03  0.45960457374E+03  0.53251887794E+03  0.19200000000E+03 0.  0.
<mgrwt>
<rscale>  0 0.59085615E+03</rscale>
<asrwt>0</asrwt>
<pdfrwt beam="1">  1        2 0.10025564E+00 0.59085615E+03</pdfrwt>
<pdfrwt beam="2">  1       -2 0.17766366E-01 0.59085615E+03</pdfrwt>
<totfact> 0.11786139E+03</totfact>
</mgrwt>
</event>
<event>
 4    1  0.5455400E-005  0.5903709E+03  0.7818608E-02  0.9925587E-01
          2   -1    0    0  501    0  0.00000000000E+00  0.00000000000E+00  0.18674679691E+03  0.18674679693E+03  0.25500000000E-02 0.  1.
         -2   -1    0    0    0  501 -0.00000000000E+00 -0.00000000000E+00 -0.46659138328E+03  0.46659138329E+03  0.25500000000E-02 0. -1.
    5000001    1    1    2    0    0  0.19381885848E+02 -0.22319326640E+03 -0.13005164078E+03  0.32244118988E+03  0.19200000000E+03 0.  0.
   -5000001    1    1    2    0    0 -0.19381885848E+02  0.22319326640E+03 -0.14979294559E+03  0.33089699033E+03  0.19200000000E+03 0.  0.
<mgrwt>
<rscale>  0 0.59037089E+03</rscale>
<asrwt>0</asrwt>
<pdfrwt beam="1">  1        2 0.26678114E-01 0.59037089E+03</pdfrwt>
<pdfrwt beam="2">  1       -2 0.66655911E-01 0.59037089E+03</pdfrwt>
<totfact> 0.42445125E+02</totfact>
</mgrwt>
</event>
<event>
 4    1  0.5455400E-005  0.5259881E+03  0.7818608E-02  0.1007210E+00
          2   -1    0    0  501    0  0.00000000000E+00  0.00000000000E+00  0.10238634253E+04  0.10238634253E+04  0.25500000000E-02 0.  1.
         -2   -1    0    0    0  501 -0.00000000000E+00 -0.00000000000E+00 -0.67553797731E+02  0.67553797779E+02  0.25500000000E-02 0. -1.
    5000001    1    1    2    0    0 -0.14972689382E+03  0.35477427938E+02  0.28544835270E+03  0.37685746998E+03  0.19200000000E+03 0.  0.
   -5000001    1    1    2    0    0  0.14972689382E+03 -0.35477427938E+02  0.67086127491E+03  0.71455975314E+03  0.19200000000E+03 0.  0.
<mgrwt>
<rscale>  0 0.52598807E+03</rscale>
<asrwt>0</asrwt>
<pdfrwt beam="1">  1        2 0.14626618E+00 0.52598807E+03</pdfrwt>
<pdfrwt beam="2">  1       -2 0.96505438E-02 0.52598807E+03</pdfrwt>
<totfact> 0.19814671E+03</totfact>
</mgrwt>
</event>
<event>
 4    1  0.5455400E-005  0.8393996E+03  0.7818608E-02  0.9504676E-01
         -2   -1    0    0    0  501 -0.00000000000E+00  0.00000000000E+00  0.12393839388E+03  0.12393839390E+03  0.25500000000E-02 0. -1.
          2   -1    0    0  501    0  0.00000000000E+00 -0.00000000000E+00 -0.14212537364E+04  0.14212537364E+04  0.25500000000E-02 0.  1.
    5000001    1    1    2    0    0 -0.35471271959E+03  0.11473614886E+03 -0.61685826180E+03  0.74589785658E+03  0.19200000000E+03 0.  0.
   -5000001    1    1    2    0    0  0.35471271959E+03 -0.11473614886E+03 -0.68045708068E+03  0.79929427369E+03  0.19200000000E+03 0.  0.
<mgrwt>
<rscale>  0 0.83939956E+03</rscale>
<asrwt>0</asrwt>
<pdfrwt beam="1">  1        2 0.20303624E+00 0.83939956E+03</pdfrwt>
<pdfrwt beam="2">  1       -2 0.17705486E-01 0.83939956E+03</pdfrwt>
<totfact> 0.42698358E+02</totfact>
</mgrwt>
</event>
<event>
 4    1  0.5455400E-005  0.5806348E+03  0.7818608E-02  0.9946418E-01
          2   -1    0    0  501    0  0.00000000000E+00  0.00000000000E+00  0.59159887404E+03  0.59159887404E+03  0.25500000000E-02 0.  1.
         -2   -1    0    0    0  501 -0.00000000000E+00 -0.00000000000E+00 -0.14246846369E+03  0.14246846372E+03  0.25500000000E-02 0. -1.
    5000001    1    1    2    0    0  0.19897183745E+03  0.85629273600E+02  0.19635180436E+03  0.34977163360E+03  0.19200000000E+03 0.  0.
   -5000001    1    1    2    0    0 -0.19897183745E+03 -0.85629273600E+02  0.25277860599E+03  0.38429570416E+03  0.19200000000E+03 0.  0.
<mgrwt>
<rscale>  0 0.58063477E+03</rscale>
<asrwt>0</asrwt>
<pdfrwt beam="1">  1        2 0.84514124E-01 0.58063477E+03</pdfrwt>
<pdfrwt beam="2">  1       -2 0.20352638E-01 0.58063477E+03</pdfrwt>
<totfact> 0.11430894E+03</totfact>
</mgrwt>
</event>
<event>
 4    1  0.5455400E-005  0.4808010E+03  0.7818608E-02  0.1018915E+00
          2   -1    0    0  501    0  0.00000000000E+00  0.00000000000E+00  0.56487411293E+03  0.56487411294E+03  0.25500000000E-02 0.  1.
         -2   -1    0    0    0  501 -0.00000000000E+00 -0.00000000000E+00 -0.10231021316E+03  0.10231021319E+03  0.25500000000E-02 0. -1.
    5000001    1    1    2    0    0 -0.11009992768E+03 -0.92265690739E+02  0.25505251669E+03  0.35007247540E+03  0.19200000000E+03 0.  0.
   -5000001    1    1    2    0    0  0.11009992768E+03  0.92265690739E+02  0.20751138308E+03  0.31711185073E+03  0.19200000000E+03 0.  0.
<mgrwt>
<rscale>  0 0.48080096E+03</rscale>
<asrwt>0</asrwt>
<pdfrwt beam="1">  1        2 0.80696302E-01 0.48080096E+03</pdfrwt>
<pdfrwt beam="2">  1       -2 0.14615745E-01 0.48080096E+03</pdfrwt>
<totfact> 0.21217841E+03</totfact>
</mgrwt>
</event>
<event>
 4    1  0.5455400E-005  0.1009616E+04  0.7818608E-02  0.9298061E-01
         -2   -1    0    0    0  501 -0.00000000000E+00  0.00000000000E+00  0.13339122889E+03  0.13339122891E+03  0.25500000000E-02 0. -1.
          2   -1    0    0  501    0  0.00000000000E+00 -0.00000000000E+00 -0.19104027214E+04  0.19104027214E+04  0.25500000000E-02 0.  1.
    5000001    1    1    2    0    0  0.43217853369E+03  0.82093906556E+02 -0.12050350926E+04  0.12971088115E+04  0.19200000000E+03 0.  0.
   -5000001    1    1    2    0    0 -0.43217853369E+03 -0.82093906556E+02 -0.57197639994E+03  0.74668513883E+03  0.19200000000E+03 0.  0.
<mgrwt>
<rscale>  0 0.10096157E+04</rscale>
<asrwt>0</asrwt>
<pdfrwt beam="1">  1        2 0.27291466E+00 0.10096157E+04</pdfrwt>
<pdfrwt beam="2">  1       -2 0.19055891E-01 0.10096157E+04</pdfrwt>
<totfact> 0.20731575E+02</totfact>
</mgrwt>
</event>
<event>
 4    1  0.5455400E-005  0.6358747E+03  0.7818608E-02  0.9833651E-01
          2   -1    0    0  501    0  0.00000000000E+00  0.00000000000E+00  0.48302944472E+03  0.48302944473E+03  0.25500000000E-02 0.  1.
         -2   -1    0    0    0  501 -0.00000000000E+00 -0.00000000000E+00 -0.20927118733E+03  0.20927118734E+03  0.25500000000E-02 0. -1.
    5000001    1    1    2    0    0 -0.23953715232E+03 -0.58523654511E+02  0.20052214873E+03  0.37131684261E+03  0.19200000000E+03 0.  0.
   -5000001    1    1    2    0    0  0.23953715232E+03  0.58523654511E+02  0.73236108666E+02  0.32098378945E+03  0.19200000000E+03 0.  0.
<mgrwt>
<rscale>  0 0.63587466E+03</rscale>
<asrwt>0</asrwt>
<pdfrwt beam="1">  1        2 0.69004206E-01 0.63587466E+03</pdfrwt>
<pdfrwt beam="2">  1       -2 0.29895884E-01 0.63587466E+03</pdfrwt>
<totfact> 0.72376854E+02</totfact>
</mgrwt>
</event>
<event>
 4    1  0.5455400E-005  0.8451409E+03  0.7818608E-02  0.9496882E-01
          2   -1    0    0  501    0  0.00000000000E+00  0.00000000000E+00  0.82411051904E+03  0.82411051904E+03  0.25500000000E-02 0.  1.
         -2   -1    0    0    0  501 -0.00000000000E+00 -0.00000000000E+00 -0.21667699672E+03  0.21667699673E+03  0.25500000000E-02 0. -1.
    5000001    1    1    2    0    0 -0.20209634491E+03 -0.29692927238E+03  0.44245484729E+03  0.60136529440E+03  0.19200000000E+03 0.  0.
   -5000001    1    1    2    0    0  0.20209634491E+03  0.29692927238E+03  0.16497867503E+03  0.43942222138E+03  0.19200000000E+03 0.  0.
<mgrwt>
<rscale>  0 0.84514092E+03</rscale>
<asrwt>0</asrwt>
<pdfrwt beam="1">  1        2 0.11773007E+00 0.84514092E+03</pdfrwt>
<pdfrwt beam="2">  1       -2 0.30953857E-01 0.84514092E+03</pdfrwt>
<totfact> 0.35418928E+02</totfact>
</mgrwt>
</event>
<event>
 4    1  0.5455400E-005  0.4818768E+03  0.7818608E-02  0.1018621E+00
          2   -1    0    0  501    0  0.00000000000E+00  0.00000000000E+00  0.30933502602E+04  0.30933502602E+04  0.25500000000E-02 0.  1.
         -2   -1    0    0    0  501 -0.00000000000E+00 -0.00000000000E+00 -0.18766482973E+02  0.18766483146E+02  0.25500000000E-02 0. -1.
    5000001    1    1    2    0    0 -0.33661841803E+02  0.11563541665E+03  0.10093406714E+04  0.10344743884E+04  0.19200000000E+03 0.  0.
   -5000001    1    1    2    0    0  0.33661841803E+02 -0.11563541665E+03  0.20652431058E+04  0.20776423550E+04  0.19200000000E+03 0.  0.
<mgrwt>
<rscale>  0 0.48187677E+03</rscale>
<asrwt>0</asrwt>
<pdfrwt beam="1">  1        2 0.44190737E+00 0.48187677E+03</pdfrwt>
<pdfrwt beam="2">  1       -2 0.26809250E-02 0.48187677E+03</pdfrwt>
<totfact> 0.12072990E+03</totfact>
</mgrwt>
</event>
<event>
 4    1  0.5455400E-005  0.4633627E+03  0.7818608E-02  0.1023810E+00
          2   -1    0    0  501    0  0.00000000000E+00  0.00000000000E+00  0.32342827431E+04  0.32342827431E+04  0.25500000000E-02 0.  1.
         -2   -1    0    0    0  501 -0.00000000000E+00 -0.00000000000E+00 -0.16596031579E+02  0.16596031775E+02  0.25500000000E-02 0. -1.
    5000001    1    1    2    0    0 -0.22467447913E+02  0.12549654138E+03  0.17745851632E+04  0.17894889408E+04  0.19200000000E+03 0.  0.
   -5000001    1    1    2    0    0  0.22467447913E+02 -0.12549654138E+03  0.14431015483E+04  0.14613898340E+04  0.19200000000E+03 0.  0.
<mgrwt>
<rscale>  0 0.46336275E+03</rscale>
<asrwt>0</asrwt>
<pdfrwt beam="1">  1        2 0.46204103E+00 0.46336275E+03</pdfrwt>
<pdfrwt beam="2">  1       -2 0.23708584E-02 0.46336275E+03</pdfrwt>
<totfact> 0.12155965E+03</totfact>
</mgrwt>
</event>
<event>
 4    1  0.5455400E-005  0.9548696E+03  0.7818608E-02  0.9359477E-01
         -2   -1    0    0    0  501 -0.00000000000E+00  0.00000000000E+00  0.33653446018E+03  0.33653446019E+03  0.25500000000E-02 0. -1.
          2   -1    0    0  501    0  0.00000000000E+00 -0.00000000000E+00 -0.67732738138E+03  0.67732738139E+03  0.25500000000E-02 0.  1.
    5000001    1    1    2    0    0  0.20331987802E+03 -0.36694085906E+03 -0.39942414916E+02  0.46308094687E+03  0.19200000000E+03 0.  0.
   -5000001    1    1    2    0    0 -0.20331987802E+03  0.36694085906E+03 -0.30085050628E+03  0.55078089471E+03  0.19200000000E+03 0.  0.
<mgrwt>
<rscale>  0 0.95486963E+03</rscale>
<asrwt>0</asrwt>
<pdfrwt beam="1">  1        2 0.96761054E-01 0.95486963E+03</pdfrwt>
<pdfrwt beam="2">  1       -2 0.48076352E-01 0.95486963E+03</pdfrwt>
<totfact> 0.19214823E+02</totfact>
</mgrwt>
</event>
<event>
 4    1  0.5455400E-005  0.5374378E+03  0.7818608E-02  0.1004444E+00
          2   -1    0    0  501    0  0.00000000000E+00  0.00000000000E+00  0.67823125225E+02  0.67823125273E+02  0.25500000000E-02 0.  1.
         -2   -1    0    0    0  501 -0.00000000000E+00 -0.00000000000E+00 -0.10646790162E+04  0.10646790162E+04  0.25500000000E-02 0. -1.
    5000001    1    1    2    0    0 -0.13948108245E+03  0.45997485238E+02 -0.74574749235E+03  0.78394774274E+03  0.19200000000E+03 0.  0.
   -5000001    1    1    2    0    0  0.13948108245E+03 -0.45997485238E+02 -0.25110839860E+03  0.34855439870E+03  0.19200000000E+03 0.  0.
<mgrwt>
<rscale>  0 0.53743784E+03</rscale>
<asrwt>0</asrwt>
<pdfrwt beam="1">  1        2 0.96890185E-02 0.53743784E+03</pdfrwt>
<pdfrwt beam="2">  1       -2 0.15209699E+00 0.53743784E+03</pdfrwt>
<totfact> 0.20328971E+02</totfact>
</mgrwt>
</event>
<event>
 4    1  0.5455400E-005  0.4682589E+03  0.7818608E-02  0.1022413E+00
         -2   -1    0    0    0  501 -0.00000000000E+00  0.00000000000E+00  0.51886147915E+03  0.51886147915E+03  0.25500000000E-02 0. -1.
          2   -1    0    0  501    0  0.00000000000E+00 -0.00000000000E+00 -0.10564787159E+03  0.10564787162E+03  0.25500000000E-02 0.  1.
    5000001    1    1    2    0    0  0.62085610379E+02 -0.11597332483E+03  0.24056145559E+03  0.33472115111E+03  0.19200000000E+03 0.  0.
   -5000001    1    1    2    0    0 -0.62085610379E+02  0.11597332483E+03  0.17265215197E+03  0.28978819967E+03  0.19200000000E+03 0.  0.
<mgrwt>
<rscale>  0 0.46825895E+03</rscale>
<asrwt>0</asrwt>
<pdfrwt beam="1">  1        2 0.15092553E-01 0.46825895E+03</pdfrwt>
<pdfrwt beam="2">  1       -2 0.74123067E-01 0.46825895E+03</pdfrwt>
<totfact> 0.65641360E+02</totfact>
</mgrwt>
</event>
<event>
 4    1  0.5455400E-005  0.1277917E+04  0.7818608E-02  0.9047263E-01
          2   -1    0    0  501    0  0.00000000000E+00  0.00000000000E+00  0.68881942568E+03  0.68881942569E+03  0.25500000000E-02 0.  1.
         -2   -1    0    0    0  501 -0.00000000000E+00 -0.00000000000E+00 -0.59270689944E+03  0.59270689944E+03  0.25500000000E-02 0. -1.
    5000001    1    1    2    0    0 -0.15446183954E+03 -0.56450614730E+03  0.21847260319E+03  0.65354412901E+03  0.19200000000E+03 0.  0.
   -5000001    1    1    2    0    0  0.15446183954E+03  0.56450614730E+03 -0.12236007694E+03  0.62798219612E+03  0.19200000000E+03 0.  0.
<mgrwt>
<rscale>  0 0.12779171E+04</rscale>
<asrwt>0</asrwt>
<pdfrwt beam="1">  1        2 0.98402775E-01 0.12779171E+04</pdfrwt>
<pdfrwt beam="2">  1       -2 0.84672414E-01 0.12779171E+04</pdfrwt>
<totfact> 0.54872105E+01</totfact>
</mgrwt>
</event>
<event>
 4    1  0.5455400E-005  0.6866728E+03  0.7818608E-02  0.9740299E-01
         -2   -1    0    0    0  501 -0.00000000000E+00  0.00000000000E+00  0.75514310328E+03  0.75514310328E+03  0.25500000000E-02 0. -1.
          2   -1    0    0  501    0  0.00000000000E+00 -0.00000000000E+00 -0.15610272135E+03  0.15610272137E+03  0.25500000000E-02 0.  1.
    5000001    1    1    2    0    0  0.17951443297E+03  0.28250243009E+02  0.88022343372E+01  0.26450895486E+03  0.19200000000E+03 0.  0.
   -5000001    1    1    2    0    0 -0.17951443297E+03 -0.28250243009E+02  0.59023814759E+03  0.64673686979E+03  0.19200000000E+03 0.  0.
<mgrwt>
<rscale>  0 0.68667283E+03</rscale>
<asrwt>0</asrwt>
<pdfrwt beam="1">  1        2 0.22300390E-01 0.68667283E+03</pdfrwt>
<pdfrwt beam="2">  1       -2 0.10787758E+00 0.68667283E+03</pdfrwt>
<totfact> 0.17413257E+02</totfact>
</mgrwt>
</event>
<event>
 4    1  0.5455400E-005  0.5014317E+03  0.7818608E-02  0.1013406E+00
         -2   -1    0    0    0  501 -0.00000000000E+00  0.00000000000E+00  0.97885516176E+02  0.97885516209E+02  0.25500000000E-02 0. -1.
          2   -1    0    0  501    0  0.00000000000E+00 -0.00000000000E+00 -0.64216274747E+03  0.64216274747E+03  0.25500000000E-02 0.  1.
    5000001    1    1    2    0    0  0.15690528125E+03 -0.23529078814E+02 -0.31444096936E+03  0.40113589723E+03  0.19200000000E+03 0.  0.
   -5000001    1    1    2    0    0 -0.15690528125E+03  0.23529078814E+02 -0.22983626193E+03  0.33891236645E+03  0.19200000000E+03 0.  0.
<mgrwt>
<rscale>  0 0.50143168E+03</rscale>
<asrwt>0</asrwt>
<pdfrwt beam="1">  1        2 0.91737533E-01 0.50143168E+03</pdfrwt>
<pdfrwt beam="2">  1       -2 0.13983646E-01 0.50143168E+03</pdfrwt>
<totfact> 0.19663427E+03</totfact>
</mgrwt>
</event>
<event>
 4    1  0.5455400E-005  0.4871024E+03  0.7818608E-02  0.1017201E+00
         -2   -1    0    0    0  501 -0.00000000000E+00  0.00000000000E+00  0.80163694843E+02  0.80163694884E+02  0.25500000000E-02 0. -1.
          2   -1    0    0  501    0  0.00000000000E+00 -0.00000000000E+00 -0.73995081666E+03  0.73995081666E+03  0.25500000000E-02 0.  1.
    5000001    1    1    2    0    0  0.76897759012E+02 -0.82081252110E+02 -0.16319773583E+03  0.27594944876E+03  0.19200000000E+03 0.  0.
   -5000001    1    1    2    0    0 -0.76897759012E+02  0.82081252110E+02 -0.49658938598E+03  0.54416506279E+03  0.19200000000E+03 0.  0.
<mgrwt>
<rscale>  0 0.48710242E+03</rscale>
<asrwt>0</asrwt>
<pdfrwt beam="1">  1        2 0.10570726E+00 0.48710242E+03</pdfrwt>
<pdfrwt beam="2">  1       -2 0.11451957E-01 0.48710242E+03</pdfrwt>
<totfact> 0.23014719E+03</totfact>
</mgrwt>
</event>
<event>
 4    1  0.5455400E-005  0.4975186E+03  0.7818608E-02  0.1014429E+00
         -2   -1    0    0    0  501 -0.00000000000E+00  0.00000000000E+00  0.21629430949E+02  0.21629431099E+02  0.25500000000E-02 0. -1.
          2   -1    0    0  501    0  0.00000000000E+00 -0.00000000000E+00 -0.28609718847E+04  0.28609718847E+04  0.25500000000E-02 0.  1.
    5000001    1    1    2    0    0 -0.14651579999E+03 -0.17390110214E+02 -0.17498707672E+04  0.17665449322E+04  0.19200000000E+03 0.  0.
   -5000001    1    1    2    0    0  0.14651579999E+03  0.17390110214E+02 -0.10894716865E+04  0.11160563836E+04  0.19200000000E+03 0.  0.
<mgrwt>
<rscale>  0 0.49751862E+03</rscale>
<asrwt>0</asrwt>
<pdfrwt beam="1">  1        2 0.40871003E+00 0.49751862E+03</pdfrwt>
<pdfrwt beam="2">  1       -2 0.30899205E-02 0.49751862E+03</pdfrwt>
<totfact> 0.12979877E+03</totfact>
</mgrwt>
</event>
<event>
 4    1  0.5455400E-005  0.5217553E+03  0.7818608E-02  0.1008251E+00
         -2   -1    0    0    0  501 -0.00000000000E+00  0.00000000000E+00  0.14419885750E+03  0.14419885752E+03  0.25500000000E-02 0. -1.
          2   -1    0    0  501    0  0.00000000000E+00 -0.00000000000E+00 -0.47196734063E+03  0.47196734064E+03  0.25500000000E-02 0.  1.
    5000001    1    1    2    0    0  0.24105788410E+02 -0.16194395013E+03 -0.85671742812E+02  0.26647810330E+03  0.19200000000E+03 0.  0.
   -5000001    1    1    2    0    0 -0.24105788410E+02  0.16194395013E+03 -0.24209674032E+03  0.34968809487E+03  0.19200000000E+03 0.  0.
<mgrwt>
<rscale>  0 0.52175531E+03</rscale>
<asrwt>0</asrwt>
<pdfrwt beam="1">  1        2 0.67423905E-01 0.52175531E+03</pdfrwt>
<pdfrwt beam="2">  1       -2 0.20599837E-01 0.52175531E+03</pdfrwt>
<totfact> 0.14503144E+03</totfact>
</mgrwt>
</event>
<event>
 4    1  0.5455400E-005  0.7200138E+03  0.7818608E-02  0.9683605E-01
          2   -1    0    0  501    0  0.00000000000E+00  0.00000000000E+00  0.27245856246E+04  0.27245856246E+04  0.25500000000E-02 0.  1.
         -2   -1    0    0    0  501 -0.00000000000E+00 -0.00000000000E+00 -0.47568695399E+02  0.47568695467E+02  0.25500000000E-02 0. -1.
    5000001    1    1    2    0    0  0.89091463332E+01  0.29052588440E+03  0.16883487758E+04  0.17239113234E+04  0.19200000000E+03 0.  0.
   -5000001    1    1    2    0    0 -0.89091463332E+01 -0.29052588440E+03  0.98866815339E+03  0.10482429966E+04  0.19200000000E+03 0.  0.
<mgrwt>
<rscale>  0 0.72001384E+03</rscale>
<asrwt>0</asrwt>
<pdfrwt beam="1">  1        2 0.38922669E+00 0.72001384E+03</pdfrwt>
<pdfrwt beam="2">  1       -2 0.67955248E-02 0.72001384E+03</pdfrwt>
<totfact> 0.44444075E+02</totfact>
</mgrwt>
</event>
<event>
 4    1  0.5455400E-005  0.4934820E+03  0.7818608E-02  0.1015494E+00
          2   -1    0    0  501    0  0.00000000000E+00  0.00000000000E+00  0.68841323247E+03  0.68841323248E+03  0.25500000000E-02 0.  1.
         -2   -1    0    0    0  501 -0.00000000000E+00 -0.00000000000E+00 -0.88436866754E+02  0.88436866790E+02  0.25500000000E-02 0. -1.
    5000001    1    1    2    0    0 -0.13835038850E+03  0.16123423255E+02  0.19303009058E+03  0.30581924505E+03  0.19200000000E+03 0.  0.
   -5000001    1    1    2    0    0  0.13835038850E+03 -0.16123423255E+02  0.40694627514E+03  0.47103085422E+03  0.19200000000E+03 0.  0.
<mgrwt>
<rscale>  0 0.49348195E+03</rscale>
<asrwt>0</asrwt>
<pdfrwt beam="1">  1        2 0.98344749E-01 0.49348195E+03</pdfrwt>
<pdfrwt beam="2">  1       -2 0.12633838E-01 0.49348195E+03</pdfrwt>
<totfact> 0.21401012E+03</totfact>
</mgrwt>
</event>
<event>
 4    1  0.5455400E-005  0.4719024E+03  0.7818608E-02  0.1021385E+00
          2   -1    0    0  501    0  0.00000000000E+00  0.00000000000E+00  0.62833268492E+03  0.62833268493E+03  0.25500000000E-02 0.  1.
         -2   -1    0    0    0  501 -0.00000000000E+00 -0.00000000000E+00 -0.88604298718E+02  0.88604298755E+02  0.25500000000E-02 0. -1.
    5000001    1    1    2    0    0 -0.84715539869E+02  0.88267083133E+02  0.17570539966E+03  0.28758335858E+03  0.19200000000E+03 0.  0.
   -5000001    1    1    2    0    0  0.84715539869E+02 -0.88267083133E+02  0.36402298655E+03  0.42935362511E+03  0.19200000000E+03 0.  0.
<mgrwt>
<rscale>  0 0.47190243E+03</rscale>
<asrwt>0</asrwt>
<pdfrwt beam="1">  1        2 0.89761816E-01 0.47190243E+03</pdfrwt>
<pdfrwt beam="2">  1       -2 0.12657756E-01 0.47190243E+03</pdfrwt>
<totfact> 0.23785507E+03</totfact>
</mgrwt>
</event>
<event>
 4    1  0.5455400E-005  0.4921155E+03  0.7818608E-02  0.1015858E+00
          2   -1    0    0  501    0  0.00000000000E+00  0.00000000000E+00  0.13252687199E+04  0.13252687199E+04  0.25500000000E-02 0.  1.
         -2   -1    0    0    0  501 -0.00000000000E+00 -0.00000000000E+00 -0.45684640538E+02  0.45684640609E+02  0.25500000000E-02 0. -1.
    5000001    1    1    2    0    0 -0.10738070652E+03  0.92501032978E+02  0.80678818498E+03  0.84134311233E+03  0.19200000000E+03 0.  0.
   -5000001    1    1    2    0    0  0.10738070652E+03 -0.92501032978E+02  0.47279589435E+03  0.52961024815E+03  0.19200000000E+03 0.  0.
<mgrwt>
<rscale>  0 0.49211554E+03</rscale>
<asrwt>0</asrwt>
<pdfrwt beam="1">  1        2 0.18932408E+00 0.49211554E+03</pdfrwt>
<pdfrwt beam="2">  1       -2 0.65263781E-02 0.49211554E+03</pdfrwt>
<totfact> 0.24941961E+03</totfact>
</mgrwt>
</event>
<event>
 4    1  0.5455400E-005  0.4050800E+03  0.7818608E-02  0.1042035E+00
          2   -1    0    0  501    0  0.00000000000E+00  0.00000000000E+00  0.24976119826E+04  0.24976119826E+04  0.25500000000E-02 0.  1.
         -2   -1    0    0    0  501 -0.00000000000E+00 -0.00000000000E+00 -0.16424666483E+02  0.16424666681E+02  0.25500000000E-02 0. -1.
    5000001    1    1    2    0    0 -0.18943517892E+02 -0.61030833781E+02  0.12942786428E+04  0.13100018415E+04  0.19200000000E+03 0.  0.
   -5000001    1    1    2    0    0  0.18943517892E+02  0.61030833781E+02  0.11869086733E+04  0.12040348078E+04  0.19200000000E+03 0.  0.
<mgrwt>
<rscale>  0 0.40507996E+03</rscale>
<asrwt>0</asrwt>
<pdfrwt beam="1">  1        2 0.35680187E+00 0.40507996E+03</pdfrwt>
<pdfrwt beam="2">  1       -2 0.23463799E-02 0.40507996E+03</pdfrwt>
<totfact> 0.30475170E+03</totfact>
</mgrwt>
</event>
<event>
 4    1  0.5455400E-005  0.6958064E+03  0.7818608E-02  0.9724431E-01
          2   -1    0    0  501    0  0.00000000000E+00  0.00000000000E+00  0.27877153881E+04  0.27877153881E+04  0.25500000000E-02 0. -1.
         -2   -1    0    0    0  501 -0.00000000000E+00 -0.00000000000E+00 -0.43417864589E+02  0.43417864664E+02  0.25500000000E-02 0.  1.
    5000001    1    1    2    0    0  0.18919377924E+03  0.15155165943E+03  0.72354701610E+03  0.78685861251E+03  0.19200000000E+03 0.  0.
   -5000001    1    1    2    0    0 -0.18919377924E+03 -0.15155165943E+03  0.20207505074E+04  0.20442746402E+04  0.19200000000E+03 0.  0.
<mgrwt>
<rscale>  0 0.69580644E+03</rscale>
<asrwt>0</asrwt>
<pdfrwt beam="1">  1        2 0.39824506E+00 0.69580644E+03</pdfrwt>
<pdfrwt beam="2">  1       -2 0.62025519E-02 0.69580644E+03</pdfrwt>
<totfact> 0.47634290E+02</totfact>
</mgrwt>
</event>
<event>
 4    1  0.5455400E-005  0.8914912E+03  0.7818608E-02  0.9436281E-01
          2   -1    0    0  501    0  0.00000000000E+00  0.00000000000E+00  0.23465355410E+04  0.23465355410E+04  0.25500000000E-02 0.  1.
         -2   -1    0    0    0  501 -0.00000000000E+00 -0.00000000000E+00 -0.84673404851E+02  0.84673404889E+02  0.25500000000E-02 0. -1.
    5000001    1    1    2    0    0  0.34168607233E+01  0.39140546325E+03  0.87780378506E+03  0.98010886980E+03  0.19200000000E+03 0.  0.
   -5000001    1    1    2    0    0 -0.34168607233E+01 -0.39140546325E+03  0.13840583511E+04  0.14511000761E+04  0.19200000000E+03 0.  0.
<mgrwt>
<rscale>  0 0.89149123E+03</rscale>
<asrwt>0</asrwt>
<pdfrwt beam="1">  1        2 0.33521936E+00 0.89149123E+03</pdfrwt>
<pdfrwt beam="2">  1       -2 0.12096201E-01 0.89149123E+03</pdfrwt>
<totfact> 0.27102040E+02</totfact>
</mgrwt>
</event>
<event>
 4    1  0.5455400E-005  0.6328840E+03  0.7818608E-02  0.9839437E-01
          2   -1    0    0  501    0  0.00000000000E+00  0.00000000000E+00  0.81717125300E+03  0.81717125301E+03  0.25500000000E-02 0.  1.
         -2   -1    0    0    0  501 -0.00000000000E+00 -0.00000000000E+00 -0.12253925189E+03  0.12253925191E+03  0.25500000000E-02 0. -1.
    5000001    1    1    2    0    0 -0.19466946260E+03  0.40594373810E+02  0.57603143743E+03  0.63892121562E+03  0.19200000000E+03 0.  0.
   -5000001    1    1    2    0    0  0.19466946260E+03 -0.40594373810E+02  0.11860056368E+03  0.30078928930E+03  0.19200000000E+03 0.  0.
<mgrwt>
<rscale>  0 0.63288405E+03</rscale>
<asrwt>0</asrwt>
<pdfrwt beam="1">  1        2 0.11673875E+00 0.63288405E+03</pdfrwt>
<pdfrwt beam="2">  1       -2 0.17505608E-01 0.63288405E+03</pdfrwt>
<totfact> 0.99786118E+02</totfact>
</mgrwt>
</event>
<event>
 4    1  0.5455400E-005  0.4641076E+03  0.7818608E-02  0.1023597E+00
         -2   -1    0    0    0  501 -0.00000000000E+00  0.00000000000E+00  0.18095510978E+03  0.18095510980E+03  0.25500000000E-02 0. -1.
          2   -1    0    0  501    0  0.00000000000E+00 -0.00000000000E+00 -0.29758190492E+03  0.29758190493E+03  0.25500000000E-02 0.  1.
    5000001    1    1    2    0    0  0.28415599450E+02  0.59016954530E+02 -0.17448633780E+03  0.26758163108E+03  0.19200000000E+03 0.  0.
   -5000001    1    1    2    0    0 -0.28415599450E+02 -0.59016954530E+02  0.57859542655E+02  0.21095538365E+03  0.19200000000E+03 0.  0.
<mgrwt>
<rscale>  0 0.46410760E+03</rscale>
<asrwt>0</asrwt>
<pdfrwt beam="1">  1        2 0.42511701E-01 0.46410760E+03</pdfrwt>
<pdfrwt beam="2">  1       -2 0.25850730E-01 0.46410760E+03</pdfrwt>
<totfact> 0.16143749E+03</totfact>
</mgrwt>
</event>
<event>
 4    1  0.5455400E-005  0.5832672E+03  0.7818608E-02  0.9940743E-01
         -2   -1    0    0    0  501 -0.00000000000E+00  0.00000000000E+00  0.24090801777E+03  0.24090801778E+03  0.25500000000E-02 0. -1.
          2   -1    0    0  501    0  0.00000000000E+00 -0.00000000000E+00 -0.35303990454E+03  0.35303990455E+03  0.25500000000E-02 0.  1.
    5000001    1    1    2    0    0 -0.16304418579E+03  0.12051066455E+03 -0.14174899463E+03  0.31315013056E+03  0.19200000000E+03 0.  0.
   -5000001    1    1    2    0    0  0.16304418579E+03 -0.12051066455E+03  0.29617107856E+02  0.28079779178E+03  0.19200000000E+03 0.  0.
<mgrwt>
<rscale>  0 0.58326716E+03</rscale>
<asrwt>0</asrwt>
<pdfrwt beam="1">  1        2 0.50434272E-01 0.58326716E+03</pdfrwt>
<pdfrwt beam="2">  1       -2 0.34415431E-01 0.58326716E+03</pdfrwt>
<totfact> 0.79013358E+02</totfact>
</mgrwt>
</event>
<event>
 4    1  0.5455400E-005  0.7426302E+03  0.7818608E-02  0.9646984E-01
          2   -1    0    0  501    0  0.00000000000E+00  0.00000000000E+00  0.24886693080E+04  0.24886693080E+04  0.25500000000E-02 0.  1.
         -2   -1    0    0    0  501 -0.00000000000E+00 -0.00000000000E+00 -0.55401050180E+02  0.55401050238E+02  0.25500000000E-02 0. -1.
    5000001    1    1    2    0    0  0.14188429008E+03 -0.27390234679E+03  0.95445189621E+03  0.10212717902E+04  0.19200000000E+03 0.  0.
   -5000001    1    1    2    0    0 -0.14188429008E+03  0.27390234679E+03  0.14788163616E+04  0.15227985680E+04  0.19200000000E+03 0.  0.
<mgrwt>
<rscale>  0 0.74263017E+03</rscale>
<asrwt>0</asrwt>
<pdfrwt beam="1">  1        2 0.35552431E+00 0.74263017E+03</pdfrwt>
<pdfrwt beam="2">  1       -2 0.79144330E-02 0.74263017E+03</pdfrwt>
<totfact> 0.46209401E+02</totfact>
</mgrwt>
</event>
<event>
 4    1  0.5455400E-005  0.4533541E+03  0.7818608E-02  0.1026727E+00
          2   -1    0    0  501    0  0.00000000000E+00  0.00000000000E+00  0.51647341702E+03  0.51647341703E+03  0.25500000000E-02 0.  1.
         -2   -1    0    0    0  501 -0.00000000000E+00 -0.00000000000E+00 -0.99487164930E+02  0.99487164962E+02  0.25500000000E-02 0. -1.
    5000001    1    1    2    0    0  0.64499271080E+02 -0.45316638861E+02  0.33230946780E+03  0.39180012266E+03  0.19200000000E+03 0.  0.
   -5000001    1    1    2    0    0 -0.64499271080E+02  0.45316638861E+02  0.84676784287E+02  0.22416045932E+03  0.19200000000E+03 0.  0.
<mgrwt>
<rscale>  0 0.45335406E+03</rscale>
<asrwt>0</asrwt>
<pdfrwt beam="1">  1        2 0.73781918E-01 0.45335406E+03</pdfrwt>
<pdfrwt beam="2">  1       -2 0.14212452E-01 0.45335406E+03</pdfrwt>
<totfact> 0.24615154E+03</totfact>
</mgrwt>
</event>
<event>
 4    1  0.5455400E-005  0.7956886E+03  0.7818608E-02  0.9566279E-01
          2   -1    0    0  501    0  0.00000000000E+00  0.00000000000E+00  0.13374252636E+04  0.13374252636E+04  0.25500000000E-02 0.  1.
         -2   -1    0    0    0  501 -0.00000000000E+00 -0.00000000000E+00 -0.11834685464E+03  0.11834685467E+03  0.25500000000E-02 0. -1.
    5000001    1    1    2    0    0 -0.68798752787E+02  0.32644716325E+03  0.42553218371E+03  0.57379670455E+03  0.19200000000E+03 0.  0.
   -5000001    1    1    2    0    0  0.68798752787E+02 -0.32644716325E+03  0.79354622520E+03  0.88197541367E+03  0.19200000000E+03 0.  0.
<mgrwt>
<rscale>  0 0.79568857E+03</rscale>
<asrwt>0</asrwt>
<pdfrwt beam="1">  1        2 0.19106073E+00 0.79568857E+03</pdfrwt>
<pdfrwt beam="2">  1       -2 0.16906696E-01 0.79568857E+03</pdfrwt>
<totfact> 0.51406610E+02</totfact>
</mgrwt>
</event>
<event>
 4    1  0.5455400E-005  0.5878848E+03  0.7818608E-02  0.9930865E-01
          2   -1    0    0  501    0  0.00000000000E+00  0.00000000000E+00  0.80974373391E+03  0.80974373391E+03  0.25500000000E-02 0.  1.
         -2   -1    0    0    0  501 -0.00000000000E+00 -0.00000000000E+00 -0.10670304441E+03  0.10670304444E+03  0.25500000000E-02 0. -1.
    5000001    1    1    2    0    0  0.15906573948E+03 -0.15134813048E+03  0.40837075601E+03  0.50183547149E+03  0.19200000000E+03 0.  0.
   -5000001    1    1    2    0    0 -0.15906573948E+03  0.15134813048E+03  0.29466993349E+03  0.41461130686E+03  0.19200000000E+03 0.  0.
<mgrwt>
<rscale>  0 0.58788476E+03</rscale>
<asrwt>0</asrwt>
<pdfrwt beam="1">  1        2 0.11567767E+00 0.58788476E+03</pdfrwt>
<pdfrwt beam="2">  1       -2 0.15243293E-01 0.58788476E+03</pdfrwt>
<totfact> 0.12784362E+03</totfact>
</mgrwt>
</event>
<event>
 4    1  0.5455400E-005  0.5419685E+03  0.7818608E-02  0.1003370E+00
          2   -1    0    0  501    0  0.00000000000E+00  0.00000000000E+00  0.24159362860E+03  0.24159362861E+03  0.25500000000E-02 0.  1.
         -2   -1    0    0    0  501 -0.00000000000E+00 -0.00000000000E+00 -0.30395030639E+03  0.30395030640E+03  0.25500000000E-02 0. -1.
    5000001    1    1    2    0    0 -0.12703538647E+03 -0.13652970080E+03  0.11410462917E+02  0.26790398892E+03  0.19200000000E+03 0.  0.
   -5000001    1    1    2    0    0  0.12703538647E+03  0.13652970080E+03 -0.73767140710E+02  0.27763994609E+03  0.19200000000E+03 0.  0.
<mgrwt>
<rscale>  0 0.54196848E+03</rscale>
<asrwt>0</asrwt>
<pdfrwt beam="1">  1        2 0.34513376E-01 0.54196848E+03</pdfrwt>
<pdfrwt beam="2">  1       -2 0.43421472E-01 0.54196848E+03</pdfrwt>
<totfact> 0.76773775E+02</totfact>
</mgrwt>
</event>
<event>
 4    1  0.5455400E-005  0.8960994E+03  0.7818608E-02  0.9430470E-01
          2   -1    0    0  501    0  0.00000000000E+00  0.00000000000E+00  0.25171848377E+03  0.25171848379E+03  0.25500000000E-02 0. -1.
         -2   -1    0    0    0  501 -0.00000000000E+00 -0.00000000000E+00 -0.79751216651E+03  0.79751216652E+03  0.25500000000E-02 0.  1.
    5000001    1    1    2    0    0  0.25431307470E+03  0.47436686778E+02  0.91696904649E+02  0.33495925355E+03  0.19200000000E+03 0.  0.
   -5000001    1    1    2    0    0 -0.25431307470E+03 -0.47436686778E+02 -0.63749058739E+03  0.71427139676E+03  0.19200000000E+03 0.  0.
<mgrwt>
<rscale>  0 0.89609944E+03</rscale>
<asrwt>0</asrwt>
<pdfrwt beam="1">  1        2 0.35959784E-01 0.89609944E+03</pdfrwt>
<pdfrwt beam="2">  1       -2 0.11393031E+00 0.89609944E+03</pdfrwt>
<totfact> 0.87836737E+01</totfact>
</mgrwt>
</event>
<event>
 4    1  0.5455400E-005  0.6226395E+03  0.7818608E-02  0.9859518E-01
         -2   -1    0    0    0  501 -0.00000000000E+00  0.00000000000E+00  0.11698883208E+03  0.11698883211E+03  0.25500000000E-02 0. -1.
          2   -1    0    0  501    0  0.00000000000E+00 -0.00000000000E+00 -0.82845499388E+03  0.82845499388E+03  0.25500000000E-02 0.  1.
    5000001    1    1    2    0    0 -0.10164563847E+03 -0.15648117416E+03 -0.59695941662E+03  0.65424975260E+03  0.19200000000E+03 0.  0.
   -5000001    1    1    2    0    0  0.10164563847E+03  0.15648117416E+03 -0.11450674518E+03  0.29119407339E+03  0.19200000000E+03 0.  0.
<mgrwt>
<rscale>  0 0.62263949E+03</rscale>
<asrwt>0</asrwt>
<pdfrwt beam="1">  1        2 0.11835071E+00 0.62263949E+03</pdfrwt>
<pdfrwt beam="2">  1       -2 0.16712691E-01 0.62263949E+03</pdfrwt>
<totfact> 0.10613987E+03</totfact>
</mgrwt>
</event>
<event>
 4    1  0.5455400E-005  0.7273529E+03  0.7818608E-02  0.9671566E-01
          2   -1    0    0  501    0  0.00000000000E+00  0.00000000000E+00  0.10891548726E+04  0.10891548726E+04  0.25500000000E-02 0.  1.
         -2   -1    0    0    0  501 -0.00000000000E+00 -0.00000000000E+00 -0.12143411983E+03  0.12143411985E+03  0.25500000000E-02 0. -1.
    5000001    1    1    2    0    0 -0.27414164255E+03  0.10340433303E+03  0.32120671401E+03  0.47527239494E+03  0.19200000000E+03 0.  0.
   -5000001    1    1    2    0    0  0.27414164255E+03 -0.10340433303E+03  0.64651403874E+03  0.73531659750E+03  0.19200000000E+03 0.  0.
<mgrwt>
<rscale>  0 0.72735291E+03</rscale>
<asrwt>0</asrwt>
<pdfrwt beam="1">  1        2 0.15559355E+00 0.72735291E+03</pdfrwt>
<pdfrwt beam="2">  1       -2 0.17347732E-01 0.72735291E+03</pdfrwt>
<totfact> 0.68083477E+02</totfact>
</mgrwt>
</event>
<event>
 4    1  0.5455400E-005  0.4728138E+03  0.7818608E-02  0.1021129E+00
         -2   -1    0    0    0  501 -0.00000000000E+00  0.00000000000E+00  0.60478163433E+02  0.60478163486E+02  0.25500000000E-02 0. -1.
          2   -1    0    0  501    0  0.00000000000E+00 -0.00000000000E+00 -0.92410566079E+03  0.92410566080E+03  0.25500000000E-02 0.  1.
    5000001    1    1    2    0    0 -0.54502734535E+02  0.11131134100E+03 -0.55785356234E+03  0.60284770856E+03  0.19200000000E+03 0.  0.
   -5000001    1    1    2    0    0  0.54502734535E+02 -0.11131134100E+03 -0.30577393502E+03  0.38173611572E+03  0.19200000000E+03 0.  0.
<mgrwt>
<rscale>  0 0.47281376E+03</rscale>
<asrwt>0</asrwt>
<pdfrwt beam="1">  1        2 0.13201509E+00 0.47281376E+03</pdfrwt>
<pdfrwt beam="2">  1       -2 0.86397382E-02 0.47281376E+03</pdfrwt>
<totfact> 0.27243629E+03</totfact>
</mgrwt>
</event>
<event>
 4    1  0.5455400E-005  0.8275536E+03  0.7818608E-02  0.9520969E-01
          2   -1    0    0  501    0  0.00000000000E+00  0.00000000000E+00  0.25455532076E+04  0.25455532076E+04  0.25500000000E-02 0.  1.
         -2   -1    0    0    0  501 -0.00000000000E+00 -0.00000000000E+00 -0.67258952156E+02  0.67258952205E+02  0.25500000000E-02 0. -1.
    5000001    1    1    2    0    0  0.31030617375E+03  0.19434086880E+03  0.11854784451E+04  0.12555004734E+04  0.19200000000E+03 0.  0.
   -5000001    1    1    2    0    0 -0.31030617375E+03 -0.19434086880E+03  0.12928158103E+04  0.13573116865E+04  0.19200000000E+03 0.  0.
<mgrwt>
<rscale>  0 0.82755360E+03</rscale>
<asrwt>0</asrwt>
<pdfrwt beam="1">  1        2 0.36365046E+00 0.82755360E+03</pdfrwt>
<pdfrwt beam="2">  1       -2 0.96084217E-02 0.82755360E+03</pdfrwt>
<totfact> 0.31370492E+02</totfact>
</mgrwt>
</event>
<event>
 4    1  0.5455400E-005  0.4974501E+03  0.7818608E-02  0.1014447E+00
          2   -1    0    0  501    0  0.00000000000E+00  0.00000000000E+00  0.10584109222E+04  0.10584109222E+04  0.25500000000E-02 0. -1.
         -2   -1    0    0    0  501 -0.00000000000E+00 -0.00000000000E+00 -0.58450038416E+02  0.58450038472E+02  0.25500000000E-02 0.  1.
    5000001    1    1    2    0    0 -0.27032371786E+02 -0.13447383586E+03  0.32339233675E+03  0.40032557391E+03  0.19200000000E+03 0.  0.
   -5000001    1    1    2    0    0  0.27032371786E+02  0.13447383586E+03  0.67656854701E+03  0.71653538675E+03  0.19200000000E+03 0.  0.
<mgrwt>
<rscale>  0 0.49745013E+03</rscale>
<asrwt>0</asrwt>
<pdfrwt beam="1">  1        2 0.15120157E+00 0.49745013E+03</pdfrwt>
<pdfrwt beam="2">  1       -2 0.83500050E-02 0.49745013E+03</pdfrwt>
<totfact> 0.23836218E+03</totfact>
</mgrwt>
</event>
<event>
 4    1  0.5455400E-005  0.5692968E+03  0.7818608E-02  0.9971236E-01
         -2   -1    0    0    0  501 -0.00000000000E+00  0.00000000000E+00  0.82912131026E+02  0.82912131065E+02  0.25500000000E-02 0. -1.
          2   -1    0    0  501    0  0.00000000000E+00 -0.00000000000E+00 -0.97723595991E+03  0.97723595991E+03  0.25500000000E-02 0.  1.
    5000001    1    1    2    0    0  0.91113069719E+02  0.10012968993E+02 -0.79930538804E+03  0.82713659958E+03  0.19200000000E+03 0.  0.
   -5000001    1    1    2    0    0 -0.91113069719E+02 -0.10012968993E+02 -0.95018440846E+02  0.23301149140E+03  0.19200000000E+03 0.  0.
<mgrwt>
<rscale>  0 0.56929682E+03</rscale>
<asrwt>0</asrwt>
<pdfrwt beam="1">  1        2 0.13960513E+00 0.56929682E+03</pdfrwt>
<pdfrwt beam="2">  1       -2 0.11844591E-01 0.56929682E+03</pdfrwt>
<totfact> 0.15148135E+03</totfact>
</mgrwt>
</event>
<event>
 4    1  0.5455400E-005  0.5976061E+03  0.7818608E-02  0.9910385E-01
          2   -1    0    0  501    0  0.00000000000E+00  0.00000000000E+00  0.26299488393E+04  0.26299488393E+04  0.25500000000E-02 0.  1.
         -2   -1    0    0    0  501 -0.00000000000E+00 -0.00000000000E+00 -0.33948667567E+02  0.33948667662E+02  0.25500000000E-02 0. -1.
    5000001    1    1    2    0    0 -0.13996449959E+03  0.15804255613E+03  0.90301046568E+03  0.94702661622E+03  0.19200000000E+03 0.  0.
   -5000001    1    1    2    0    0  0.13996449959E+03 -0.15804255613E+03  0.16929897061E+04  0.17168708908E+04  0.19200000000E+03 0.  0.
<mgrwt>
<rscale>  0 0.59760609E+03</rscale>
<asrwt>0</asrwt>
<pdfrwt beam="1">  1        2 0.37570726E+00 0.59760609E+03</pdfrwt>
<pdfrwt beam="2">  1       -2 0.48498060E-02 0.59760609E+03</pdfrwt>
<totfact> 0.85334206E+02</totfact>
</mgrwt>
</event>
<event>
 4    1  0.5455400E-005  0.7277604E+03  0.7818608E-02  0.9670902E-01
          2   -1    0    0  501    0  0.00000000000E+00  0.00000000000E+00  0.34993625145E+03  0.34993625146E+03  0.25500000000E-02 0.  1.
         -2   -1    0    0    0  501 -0.00000000000E+00 -0.00000000000E+00 -0.37837982196E+03  0.37837982196E+03  0.25500000000E-02 0. -1.
    5000001    1    1    2    0    0  0.70308506864E+02 -0.22812760498E+03  0.18229342275E+03  0.35648335483E+03  0.19200000000E+03 0.  0.
   -5000001    1    1    2    0    0 -0.70308506864E+02  0.22812760498E+03 -0.21073699325E+03  0.37183271859E+03  0.19200000000E+03 0.  0.
<mgrwt>
<rscale>  0 0.72776045E+03</rscale>
<asrwt>0</asrwt>
<pdfrwt beam="1">  1        2 0.49990894E-01 0.72776045E+03</pdfrwt>
<pdfrwt beam="2">  1       -2 0.54054260E-01 0.72776045E+03</pdfrwt>
<totfact> 0.32639664E+02</totfact>
</mgrwt>
</event>
<event>
 4    1  0.5455400E-005  0.6783688E+03  0.7818608E-02  0.9754957E-01
         -2   -1    0    0    0  501 -0.00000000000E+00  0.00000000000E+00  0.32296350941E+02  0.32296351041E+02  0.25500000000E-02 0. -1.
          2   -1    0    0  501    0  0.00000000000E+00 -0.00000000000E+00 -0.35621995053E+04  0.35621995053E+04  0.25500000000E-02 0.  1.
    5000001    1    1    2    0    0  0.20460574981E+03  0.27893773964E+02 -0.27638785216E+04  0.27782242634E+04  0.19200000000E+03 0.  0.
   -5000001    1    1    2    0    0 -0.20460574981E+03 -0.27893773964E+02 -0.76602463275E+03  0.81627159295E+03  0.19200000000E+03 0.  0.
<mgrwt>
<rscale>  0 0.67836877E+03</rscale>
<asrwt>0</asrwt>
<pdfrwt beam="1">  1        2 0.50888539E+00 0.67836877E+03</pdfrwt>
<pdfrwt beam="2">  1       -2 0.46137667E-02 0.67836877E+03</pdfrwt>
<totfact> 0.27735370E+02</totfact>
</mgrwt>
</event>
<event>
 4    1  0.5455400E-005  0.1562515E+04  0.7818608E-02  0.8843913E-01
          2   -1    0    0  501    0  0.00000000000E+00  0.00000000000E+00  0.15029529984E+04  0.15029529984E+04  0.25500000000E-02 0.  1.
         -2   -1    0    0    0  501 -0.00000000000E+00 -0.00000000000E+00 -0.40610945652E+03  0.40610945653E+03  0.25500000000E-02 0. -1.
    5000001    1    1    2    0    0 -0.70655135921E+03  0.25341662431E+03  0.42584885724E+03  0.88410749228E+03  0.19200000000E+03 0.  0.
   -5000001    1    1    2    0    0  0.70655135921E+03 -0.25341662431E+03  0.67099468468E+03  0.10249549627E+04  0.19200000000E+03 0.  0.
<mgrwt>
<rscale>  0 0.15625152E+04</rscale>
<asrwt>0</asrwt>
<pdfrwt beam="1">  1        2 0.21470757E+00 0.15625152E+04</pdfrwt>
<pdfrwt beam="2">  1       -2 0.58015636E-01 0.15625152E+04</pdfrwt>
<totfact> 0.39013380E+01</totfact>
</mgrwt>
</event>
<event>
 4    1  0.5455400E-005  0.7682898E+03  0.7818608E-02  0.9607086E-01
          2   -1    0    0  501    0  0.00000000000E+00  0.00000000000E+00  0.33003422288E+04  0.33003422288E+04  0.25500000000E-02 0.  1.
         -2   -1    0    0    0  501 -0.00000000000E+00 -0.00000000000E+00 -0.44712732275E+02  0.44712732348E+02  0.25500000000E-02 0. -1.
    5000001    1    1    2    0    0  0.18088728831E+02 -0.24057502794E+03  0.63021373935E+03  0.70159596880E+03  0.19200000000E+03 0.  0.
   -5000001    1    1    2    0    0 -0.18088728831E+02  0.24057502794E+03  0.26254157571E+04  0.26434589923E+04  0.19200000000E+03 0.  0.
<mgrwt>
<rscale>  0 0.76828984E+03</rscale>
<asrwt>0</asrwt>
<pdfrwt beam="1">  1        2 0.47147762E+00 0.76828984E+03</pdfrwt>
<pdfrwt beam="2">  1       -2 0.63875311E-02 0.76828984E+03</pdfrwt>
<totfact> 0.23547771E+02</totfact>
</mgrwt>
</event>
<event>
 4    1  0.5455400E-005  0.1041708E+04  0.7818608E-02  0.9263947E-01
         -2   -1    0    0    0  501 -0.00000000000E+00  0.00000000000E+00  0.21034751218E+03  0.21034751219E+03  0.25500000000E-02 0. -1.
          2   -1    0    0  501    0  0.00000000000E+00 -0.00000000000E+00 -0.12897166403E+04  0.12897166403E+04  0.25500000000E-02 0.  1.
    5000001    1    1    2    0    0 -0.36334959030E+03 -0.27876292912E+03 -0.76596700089E+03  0.91285329702E+03  0.19200000000E+03 0.  0.
   -5000001    1    1    2    0    0  0.36334959030E+03  0.27876292912E+03 -0.31340212719E+03  0.58721085544E+03  0.19200000000E+03 0.  0.
<mgrwt>
<rscale>  0 0.10417076E+04</rscale>
<asrwt>0</asrwt>
<pdfrwt beam="1">  1        2 0.18424523E+00 0.10417076E+04</pdfrwt>
<pdfrwt beam="2">  1       -2 0.30049645E-01 0.10417076E+04</pdfrwt>
<totfact> 0.19324370E+02</totfact>
</mgrwt>
</event>
<event>
 4    1  0.5455400E-005  0.5505355E+03  0.7818608E-02  0.1001370E+00
         -2   -1    0    0    0  501 -0.00000000000E+00  0.00000000000E+00  0.55522503318E+03  0.55522503318E+03  0.25500000000E-02 0. -1.
          2   -1    0    0  501    0  0.00000000000E+00 -0.00000000000E+00 -0.13647139068E+03  0.13647139071E+03  0.25500000000E-02 0.  1.
    5000001    1    1    2    0    0  0.37368130135E+02  0.19192814226E+03  0.24203236069E+03  0.36561790515E+03  0.19200000000E+03 0.  0.
   -5000001    1    1    2    0    0 -0.37368130135E+02 -0.19192814226E+03  0.17672128180E+03  0.32607851874E+03  0.19200000000E+03 0.  0.
<mgrwt>
<rscale>  0 0.55053549E+03</rscale>
<asrwt>0</asrwt>
<pdfrwt beam="1">  1        2 0.19495913E-01 0.55053549E+03</pdfrwt>
<pdfrwt beam="2">  1       -2 0.79317863E-01 0.55053549E+03</pdfrwt>
<totfact> 0.41665878E+02</totfact>
</mgrwt>
</event>
<event>
 4    1  0.5455400E-005  0.6217812E+03  0.7818608E-02  0.9861220E-01
         -2   -1    0    0    0  501 -0.00000000000E+00  0.00000000000E+00  0.32940445391E+03  0.32940445392E+03  0.25500000000E-02 0. -1.
          2   -1    0    0  501    0  0.00000000000E+00 -0.00000000000E+00 -0.29341731318E+03  0.29341731319E+03  0.25500000000E-02 0.  1.
    5000001    1    1    2    0    0 -0.19405706257E+03 -0.12204946704E+03 -0.67206129721E+02  0.30648797662E+03  0.19200000000E+03 0.  0.
   -5000001    1    1    2    0    0  0.19405706257E+03  0.12204946704E+03  0.10319327045E+03  0.31633379049E+03  0.19200000000E+03 0.  0.
<mgrwt>
<rscale>  0 0.62178121E+03</rscale>
<asrwt>0</asrwt>
<pdfrwt beam="1">  1        2 0.41916759E-01 0.62178121E+03</pdfrwt>
<pdfrwt beam="2">  1       -2 0.47057779E-01 0.62178121E+03</pdfrwt>
<totfact> 0.52720080E+02</totfact>
</mgrwt>
</event>
<event>
 4    1  0.5455400E-005  0.5814139E+03  0.7818608E-02  0.9944735E-01
          2   -1    0    0  501    0  0.00000000000E+00  0.00000000000E+00  0.13948788643E+03  0.13948788645E+03  0.25500000000E-02 0.  1.
         -2   -1    0    0    0  501 -0.00000000000E+00 -0.00000000000E+00 -0.60586285885E+03  0.60586285885E+03  0.25500000000E-02 0. -1.
    5000001    1    1    2    0    0 -0.15111011766E+03 -0.15464541689E+02 -0.43414550689E+03  0.49841723572E+03  0.19200000000E+03 0.  0.
   -5000001    1    1    2    0    0  0.15111011766E+03  0.15464541689E+02 -0.32229465525E+02  0.24693350959E+03  0.19200000000E+03 0.  0.
<mgrwt>
<rscale>  0 0.58141390E+03</rscale>
<asrwt>0</asrwt>
<pdfrwt beam="1">  1        2 0.19926841E-01 0.58141390E+03</pdfrwt>
<pdfrwt beam="2">  1       -2 0.86551836E-01 0.58141390E+03</pdfrwt>
<totfact> 0.33344569E+02</totfact>
</mgrwt>
</event>
<event>
 4    1  0.5455400E-005  0.7683911E+03  0.7818608E-02  0.9606931E-01
         -2   -1    0    0    0  501 -0.00000000000E+00  0.00000000000E+00  0.17355902403E+03  0.17355902405E+03  0.25500000000E-02 0. -1.
          2   -1    0    0  501    0  0.00000000000E+00 -0.00000000000E+00 -0.85046698635E+03  0.85046698635E+03  0.25500000000E-02 0.  1.
    5000001    1    1    2    0    0 -0.22996286133E+03 -0.17688698769E+03 -0.55568751146E+03  0.65561004751E+03  0.19200000000E+03 0.  0.
   -5000001    1    1    2    0    0  0.22996286133E+03  0.17688698769E+03 -0.12122045085E+03  0.36841596289E+03  0.19200000000E+03 0.  0.
<mgrwt>
<rscale>  0 0.76839110E+03</rscale>
<asrwt>0</asrwt>
<pdfrwt beam="1">  1        2 0.12149528E+00 0.76839110E+03</pdfrwt>
<pdfrwt beam="2">  1       -2 0.24794147E-01 0.76839110E+03</pdfrwt>
<totfact> 0.51195196E+02</totfact>
</mgrwt>
</event>
<event>
 4    1  0.5455400E-005  0.9689252E+03  0.7818608E-02  0.9343299E-01
          2   -1    0    0  501    0  0.00000000000E+00  0.00000000000E+00  0.61821283703E+03  0.61821283703E+03  0.25500000000E-02 0. -1.
         -2   -1    0    0    0  501 -0.00000000000E+00 -0.00000000000E+00 -0.37964921929E+03  0.37964921930E+03  0.25500000000E-02 0.  1.
    5000001    1    1    2    0    0 -0.14587897337E+02  0.18369882524E+03  0.53619517372E+03  0.59860448500E+03  0.19200000000E+03 0.  0.
   -5000001    1    1    2    0    0  0.14587897337E+02 -0.18369882524E+03 -0.29763155599E+03  0.39925757133E+03  0.19200000000E+03 0.  0.
<mgrwt>
<rscale>  0 0.96892522E+03</rscale>
<asrwt>0</asrwt>
<pdfrwt beam="1">  1        2 0.88316119E-01 0.96892522E+03</pdfrwt>
<pdfrwt beam="2">  1       -2 0.54235603E-01 0.96892522E+03</pdfrwt>
<totfact> 0.16759920E+02</totfact>
</mgrwt>
</event>
<event>
 4    1  0.5455400E-005  0.6801358E+03  0.7818608E-02  0.9751819E-01
         -2   -1    0    0    0  501 -0.00000000000E+00  0.00000000000E+00  0.77661894277E+03  0.77661894277E+03  0.25500000000E-02 0. -1.
          2   -1    0    0  501    0  0.00000000000E+00 -0.00000000000E+00 -0.14890980711E+03  0.14890980713E+03  0.25500000000E-02 0.  1.
    5000001    1    1    2    0    0 -0.26842592335E+03  0.49350961308E+02  0.22468132390E+03  0.40228558390E+03  0.19200000000E+03 0.  0.
   -5000001    1    1    2    0    0  0.26842592335E+03 -0.49350961308E+02  0.40302781176E+03  0.52324316600E+03  0.19200000000E+03 0.  0.
<mgrwt>
<rscale>  0 0.68013580E+03</rscale>
<asrwt>0</asrwt>
<pdfrwt beam="1">  1        2 0.21272830E-01 0.68013580E+03</pdfrwt>
<pdfrwt beam="2">  1       -2 0.11094556E+00 0.68013580E+03</pdfrwt>
<totfact> 0.17195951E+02</totfact>
</mgrwt>
</event>
<event>
 4    1  0.5455400E-005  0.5321363E+03  0.7818608E-02  0.1005715E+00
         -2   -1    0    0    0  501 -0.00000000000E+00  0.00000000000E+00  0.71678091651E+02  0.71678091696E+02  0.25500000000E-02 0. -1.
          2   -1    0    0  501    0  0.00000000000E+00 -0.00000000000E+00 -0.98764140518E+03  0.98764140518E+03  0.25500000000E-02 0.  1.
    5000001    1    1    2    0    0  0.12089273259E+03 -0.13896822707E+03 -0.45596107389E+03  0.52791260814E+03  0.19200000000E+03 0.  0.
   -5000001    1    1    2    0    0 -0.12089273259E+03  0.13896822707E+03 -0.46000223964E+03  0.53140688874E+03  0.19200000000E+03 0.  0.
<mgrwt>
<rscale>  0 0.53213627E+03</rscale>
<asrwt>0</asrwt>
<pdfrwt beam="1">  1        2 0.14109162E+00 0.53213627E+03</pdfrwt>
<pdfrwt beam="2">  1       -2 0.10239728E-01 0.53213627E+03</pdfrwt>
<totfact> 0.18936153E+03</totfact>
</mgrwt>
</event>
<event>
 4    1  0.5455400E-005  0.6392726E+03  0.7818608E-02  0.9827119E-01
          2   -1    0    0  501    0  0.00000000000E+00  0.00000000000E+00  0.26448444248E+04  0.26448444248E+04  0.25500000000E-02 0.  1.
         -2   -1    0    0    0  501 -0.00000000000E+00 -0.00000000000E+00 -0.38628875376E+02  0.38628875460E+02  0.25500000000E-02 0. -1.
    5000001    1    1    2    0    0  0.22853947397E+03 -0.42991826775E+02  0.85837405940E+03  0.90980691038E+03  0.19200000000E+03 0.  0.
   -5000001    1    1    2    0    0 -0.22853947397E+03  0.42991826775E+02  0.17478414900E+04  0.17736663898E+04  0.19200000000E+03 0.  0.
<mgrwt>
<rscale>  0 0.63927260E+03</rscale>
<asrwt>0</asrwt>
<pdfrwt beam="1">  1        2 0.37783506E+00 0.63927260E+03</pdfrwt>
<pdfrwt beam="2">  1       -2 0.55184087E-02 0.63927260E+03</pdfrwt>
<totfact> 0.68346763E+02</totfact>
</mgrwt>
</event>
<event>
 4    1  0.5455400E-005  0.4831119E+03  0.7818608E-02  0.1018283E+00
         -2   -1    0    0    0  501 -0.00000000000E+00  0.00000000000E+00  0.40854383342E+02  0.40854383422E+02  0.25500000000E-02 0. -1.
          2   -1    0    0  501    0  0.00000000000E+00 -0.00000000000E+00 -0.14282257231E+04  0.14282257231E+04  0.25500000000E-02 0.  1.
    5000001    1    1    2    0    0 -0.79182602721E+02 -0.92517547858E+02 -0.94177102125E+03  0.96882714542E+03  0.19200000000E+03 0.  0.
   -5000001    1    1    2    0    0  0.79182602721E+02  0.92517547858E+02 -0.44560031846E+03  0.50025296106E+03  0.19200000000E+03 0.  0.
<mgrwt>
<rscale>  0 0.48311192E+03</rscale>
<asrwt>0</asrwt>
<pdfrwt beam="1">  1        2 0.20403221E+00 0.48311192E+03</pdfrwt>
<pdfrwt beam="2">  1       -2 0.58363414E-02 0.48311192E+03</pdfrwt>
<totfact> 0.26193553E+03</totfact>
</mgrwt>
</event>
<event>
 4    1  0.5455400E-005  0.8088803E+03  0.7818608E-02  0.9547251E-01
          2   -1    0    0  501    0  0.00000000000E+00  0.00000000000E+00  0.11125404272E+04  0.11125404272E+04  0.25500000000E-02 0.  1.
         -2   -1    0    0    0  501 -0.00000000000E+00 -0.00000000000E+00 -0.14702551327E+03  0.14702551329E+03  0.25500000000E-02 0. -1.
    5000001    1    1    2    0    0 -0.29039284610E+03 -0.77974620103E+02  0.77943772459E+03  0.85720196743E+03  0.19200000000E+03 0.  0.
   -5000001    1    1    2    0    0  0.29039284610E+03  0.77974620103E+02  0.18607718938E+03  0.40236397311E+03  0.19200000000E+03 0.  0.
<mgrwt>
<rscale>  0 0.80888028E+03</rscale>
<asrwt>0</asrwt>
<pdfrwt beam="1">  1        2 0.15893434E+00 0.80888028E+03</pdfrwt>
<pdfrwt beam="2">  1       -2 0.21003645E-01 0.80888028E+03</pdfrwt>
<totfact> 0.47148688E+02</totfact>
</mgrwt>
</event>
<event>
 4    1  0.5455400E-005  0.4585160E+03  0.7818608E-02  0.1025213E+00
          2   -1    0    0  501    0  0.00000000000E+00  0.00000000000E+00  0.21072980824E+04  0.21072980824E+04  0.25500000000E-02 0.  1.
         -2   -1    0    0    0  501 -0.00000000000E+00 -0.00000000000E+00 -0.24941522460E+02  0.24941522590E+02  0.25500000000E-02 0. -1.
    5000001    1    1    2    0    0  0.11306157897E+03  0.41502466742E+02  0.12015866928E+04  0.12227755132E+04  0.19200000000E+03 0.  0.
   -5000001    1    1    2    0    0 -0.11306157897E+03 -0.41502466742E+02  0.88076986715E+03  0.90946409180E+03  0.19200000000E+03 0.  0.
<mgrwt>
<rscale>  0 0.45851597E+03</rscale>
<asrwt>0</asrwt>
<pdfrwt beam="1">  1        2 0.30104266E+00 0.45851597E+03</pdfrwt>
<pdfrwt beam="2">  1       -2 0.35630738E-02 0.45851597E+03</pdfrwt>
<totfact> 0.25417824E+03</totfact>
</mgrwt>
</event>
<event>
 4    1  0.5455400E-005  0.6478310E+03  0.7818608E-02  0.9810858E-01
         -2   -1    0    0    0  501 -0.00000000000E+00  0.00000000000E+00  0.51018395142E+02  0.51018395206E+02  0.25500000000E-02 0. -1.
          2   -1    0    0  501    0  0.00000000000E+00 -0.00000000000E+00 -0.20565378437E+04  0.20565378437E+04  0.25500000000E-02 0.  1.
    5000001    1    1    2    0    0 -0.20407561983E+03 -0.76603115777E+02 -0.53648417530E+03  0.61007718061E+03  0.19200000000E+03 0.  0.
   -5000001    1    1    2    0    0  0.20407561983E+03  0.76603115777E+02 -0.14690352732E+04  0.14974790583E+04  0.19200000000E+03 0.  0.
<mgrwt>
<rscale>  0 0.64783103E+03</rscale>
<asrwt>0</asrwt>
<pdfrwt beam="1">  1        2 0.29379107E+00 0.64783103E+03</pdfrwt>
<pdfrwt beam="2">  1       -2 0.72883435E-02 0.64783103E+03</pdfrwt>
<totfact> 0.87971970E+02</totfact>
</mgrwt>
</event>
<event>
 4    1  0.5455400E-005  0.5763720E+03  0.7818608E-02  0.9955677E-01
          2   -1    0    0  501    0  0.00000000000E+00  0.00000000000E+00  0.48461354514E+03  0.48461354514E+03  0.25500000000E-02 0.  1.
         -2   -1    0    0    0  501 -0.00000000000E+00 -0.00000000000E+00 -0.17137608454E+03  0.17137608456E+03  0.25500000000E-02 0. -1.
    5000001    1    1    2    0    0 -0.18920258875E+03 -0.75890377484E+02  0.23406385925E+03  0.36497514873E+03  0.19200000000E+03 0.  0.
   -5000001    1    1    2    0    0  0.18920258875E+03  0.75890377484E+02  0.79173601349E+02  0.29101448097E+03  0.19200000000E+03 0.  0.
<mgrwt>
<rscale>  0 0.57637200E+03</rscale>
<asrwt>0</asrwt>
<pdfrwt beam="1">  1        2 0.69230506E-01 0.57637200E+03</pdfrwt>
<pdfrwt beam="2">  1       -2 0.24482298E-01 0.57637200E+03</pdfrwt>
<totfact> 0.10376323E+03</totfact>
</mgrwt>
</event>
<event>
 4    1  0.5455400E-005  0.6345035E+03  0.7818608E-02  0.9836300E-01
          2   -1    0    0  501    0  0.00000000000E+00  0.00000000000E+00  0.31999495564E+04  0.31999495564E+04  0.25500000000E-02 0.  1.
         -2   -1    0    0    0  501 -0.00000000000E+00 -0.00000000000E+00 -0.31453210264E+02  0.31453210368E+02  0.25500000000E-02 0. -1.
    5000001    1    1    2    0    0 -0.94011696340E+02 -0.14001565615E+03  0.62682653658E+03  0.67691808218E+03  0.19200000000E+03 0.  0.
   -5000001    1    1    2    0    0  0.94011696340E+02  0.14001565615E+03  0.25416698095E+04  0.25544846846E+04  0.19200000000E+03 0.  0.
<mgrwt>
<rscale>  0 0.63450354E+03</rscale>
<asrwt>0</asrwt>
<pdfrwt beam="1">  1        2 0.45713533E+00 0.63450354E+03</pdfrwt>
<pdfrwt beam="2">  1       -2 0.44933189E-02 0.63450354E+03</pdfrwt>
<totfact> 0.47184262E+02</totfact>
</mgrwt>
</event>
<event>
 4    1  0.5455400E-005  0.5657157E+03  0.7818608E-02  0.9979204E-01
         -2   -1    0    0    0  501 -0.00000000000E+00  0.00000000000E+00  0.21307563707E+03  0.21307563709E+03  0.25500000000E-02 0. -1.
          2   -1    0    0  501    0  0.00000000000E+00 -0.00000000000E+00 -0.37549370192E+03  0.37549370192E+03  0.25500000000E-02 0.  1.
    5000001    1    1    2    0    0 -0.15357659950E+03  0.64789827797E+02 -0.21015569038E+03  0.32986801588E+03  0.19200000000E+03 0.  0.
   -5000001    1    1    2    0    0  0.15357659950E+03 -0.64789827797E+02  0.47737625541E+02  0.25870132313E+03  0.19200000000E+03 0.  0.
<mgrwt>
<rscale>  0 0.56571569E+03</rscale>
<asrwt>0</asrwt>
<pdfrwt beam="1">  1        2 0.53641957E-01 0.56571569E+03</pdfrwt>
<pdfrwt beam="2">  1       -2 0.30439377E-01 0.56571569E+03</pdfrwt>
<totfact> 0.92854219E+02</totfact>
</mgrwt>
</event>
<event>
 4    1  0.5455400E-005  0.1644046E+04  0.7818608E-02  0.8793937E-01
         -2   -1    0    0    0  501 -0.00000000000E+00  0.00000000000E+00  0.58677429881E+03  0.58677429881E+03  0.25500000000E-02 0. -1.
          2   -1    0    0  501    0  0.00000000000E+00 -0.00000000000E+00 -0.11515871479E+04  0.11515871479E+04  0.25500000000E-02 0.  1.
    5000001    1    1    2    0    0  0.46931192817E+03 -0.54919755718E+03 -0.64406042084E+03  0.98668610431E+03  0.19200000000E+03 0.  0.
   -5000001    1    1    2    0    0 -0.46931192817E+03  0.54919755718E+03  0.79247571762E+02  0.75167534240E+03  0.19200000000E+03 0.  0.
<mgrwt>
<rscale>  0 0.16440459E+04</rscale>
<asrwt>0</asrwt>
<pdfrwt beam="1">  1        2 0.16451245E+00 0.16440459E+04</pdfrwt>
<pdfrwt beam="2">  1       -2 0.83824900E-01 0.16440459E+04</pdfrwt>
<totfact> 0.27156237E+01</totfact>
</mgrwt>
</event>
<event>
 4    1  0.5455400E-005  0.4881652E+03  0.7818608E-02  0.1016915E+00
         -2   -1    0    0    0  501 -0.00000000000E+00  0.00000000000E+00  0.67061483183E+02  0.67061483232E+02  0.25500000000E-02 0. -1.
          2   -1    0    0  501    0  0.00000000000E+00 -0.00000000000E+00 -0.88838366441E+03  0.88838366441E+03  0.25500000000E-02 0.  1.
    5000001    1    1    2    0    0 -0.11936270660E+03  0.87775448398E+02 -0.46462993829E+03  0.52411541155E+03  0.19200000000E+03 0.  0.
   -5000001    1    1    2    0    0  0.11936270660E+03 -0.87775448398E+02 -0.35669224294E+03  0.43132973609E+03  0.19200000000E+03 0.  0.
<mgrwt>
<rscale>  0 0.48816524E+03</rscale>
<asrwt>0</asrwt>
<pdfrwt beam="1">  1        2 0.12691194E+00 0.48816524E+03</pdfrwt>
<pdfrwt beam="2">  1       -2 0.95802124E-02 0.48816524E+03</pdfrwt>
<totfact> 0.24336707E+03</totfact>
</mgrwt>
</event>
<event>
 4    1  0.5455400E-005  0.8116126E+03  0.7818608E-02  0.9543359E-01
         -2   -1    0    0    0  501 -0.00000000000E+00  0.00000000000E+00  0.82594870034E+02  0.82594870073E+02  0.25500000000E-02 0. -1.
          2   -1    0    0  501    0  0.00000000000E+00 -0.00000000000E+00 -0.19938133650E+04  0.19938133650E+04  0.25500000000E-02 0.  1.
    5000001    1    1    2    0    0  0.10940252816E+02 -0.34700109754E+03 -0.11739766593E+04  0.12391991960E+04  0.19200000000E+03 0.  0.
   -5000001    1    1    2    0    0 -0.10940252816E+02  0.34700109754E+03 -0.73724183569E+03  0.83720903908E+03  0.19200000000E+03 0.  0.
<mgrwt>
<rscale>  0 0.81161261E+03</rscale>
<asrwt>0</asrwt>
<pdfrwt beam="1">  1        2 0.28483045E+00 0.81161261E+03</pdfrwt>
<pdfrwt beam="2">  1       -2 0.11799268E-01 0.81161261E+03</pdfrwt>
<totfact> 0.42955121E+02</totfact>
</mgrwt>
</event>
<event>
 4    1  0.5455400E-005  0.6221977E+03  0.7818608E-02  0.9860394E-01
         -2   -1    0    0    0  501 -0.00000000000E+00  0.00000000000E+00  0.59011254601E+03  0.59011254602E+03  0.25500000000E-02 0. -1.
          2   -1    0    0  501    0  0.00000000000E+00 -0.00000000000E+00 -0.16400685673E+03  0.16400685675E+03  0.25500000000E-02 0.  1.
    5000001    1    1    2    0    0  0.11658048110E+03 -0.13489947898E+03  0.41633238499E+03  0.49192025044E+03  0.19200000000E+03 0.  0.
   -5000001    1    1    2    0    0 -0.11658048110E+03  0.13489947898E+03  0.97733042971E+01  0.26219915233E+03  0.19200000000E+03 0.  0.
<mgrwt>
<rscale>  0 0.62219773E+03</rscale>
<asrwt>0</asrwt>
<pdfrwt beam="1">  1        2 0.23429551E-01 0.62219773E+03</pdfrwt>
<pdfrwt beam="2">  1       -2 0.84301791E-01 0.62219773E+03</pdfrwt>
<totfact> 0.29303670E+02</totfact>
</mgrwt>
</event>
<event>
 4    1  0.5455400E-005  0.5326166E+03  0.7818608E-02  0.1005600E+00
         -2   -1    0    0    0  501 -0.00000000000E+00  0.00000000000E+00  0.11365460130E+03  0.11365460133E+03  0.25500000000E-02 0. -1.
          2   -1    0    0  501    0  0.00000000000E+00 -0.00000000000E+00 -0.62399690756E+03  0.62399690756E+03  0.25500000000E-02 0.  1.
    5000001    1    1    2    0    0 -0.15363023837E+03 -0.81506298530E+02 -0.16967771416E+03  0.30967733777E+03  0.19200000000E+03 0.  0.
   -5000001    1    1    2    0    0  0.15363023837E+03  0.81506298530E+02 -0.34066459210E+03  0.42797417112E+03  0.19200000000E+03 0.  0.
<mgrwt>
<rscale>  0 0.53261663E+03</rscale>
<asrwt>0</asrwt>
<pdfrwt beam="1">  1        2 0.89142413E-01 0.53261663E+03</pdfrwt>
<pdfrwt beam="2">  1       -2 0.16236372E-01 0.53261663E+03</pdfrwt>
<totfact> 0.15832455E+03</totfact>
</mgrwt>
</event>
<event>
 4    1  0.5455400E-005  0.6924216E+03  0.7818608E-02  0.9730281E-01
          2   -1    0    0  501    0  0.00000000000E+00  0.00000000000E+00  0.89242958822E+03  0.89242958823E+03  0.25500000000E-02 0.  1.
         -2   -1    0    0    0  501 -0.00000000000E+00 -0.00000000000E+00 -0.13430965240E+03  0.13430965242E+03  0.25500000000E-02 0. -1.
    5000001    1    1    2    0    0 -0.18250850729E+03 -0.15334597977E+03  0.61895485718E+03  0.69050232438E+03  0.19200000000E+03 0.  0.
   -5000001    1    1    2    0    0  0.18250850729E+03  0.15334597977E+03  0.13916507865E+03  0.33623691627E+03  0.19200000000E+03 0.  0.
<mgrwt>
<rscale>  0 0.69242157E+03</rscale>
<asrwt>0</asrwt>
<pdfrwt beam="1">  1        2 0.12748995E+00 0.69242157E+03</pdfrwt>
<pdfrwt beam="2">  1       -2 0.19187093E-01 0.69242157E+03</pdfrwt>
<totfact> 0.75753363E+02</totfact>
</mgrwt>
</event>
<event>
 4    1  0.5455400E-005  0.8500252E+03  0.7818608E-02  0.9490303E-01
         -2   -1    0    0    0  501 -0.00000000000E+00  0.00000000000E+00  0.30884950072E+03  0.30884950073E+03  0.25500000000E-02 0. -1.
          2   -1    0    0  501    0  0.00000000000E+00 -0.00000000000E+00 -0.58486643533E+03  0.58486643533E+03  0.25500000000E-02 0.  1.
    5000001    1    1    2    0    0  0.29732930237E+03 -0.77089785992E+02 -0.37175078299E+03  0.51904739071E+03  0.19200000000E+03 0.  0.
   -5000001    1    1    2    0    0 -0.29732930237E+03  0.77089785992E+02  0.95733848378E+02  0.37466854535E+03  0.19200000000E+03 0.  0.
<mgrwt>
<rscale>  0 0.85002519E+03</rscale>
<asrwt>0</asrwt>
<pdfrwt beam="1">  1        2 0.83552348E-01 0.85002519E+03</pdfrwt>
<pdfrwt beam="2">  1       -2 0.44121357E-01 0.85002519E+03</pdfrwt>
<totfact> 0.27353687E+02</totfact>
</mgrwt>
</event>
<event>
 4    1  0.5455400E-005  0.8437589E+03  0.7818608E-02  0.9498752E-01
         -2   -1    0    0    0  501 -0.00000000000E+00  0.00000000000E+00  0.23884917526E+03  0.23884917527E+03  0.25500000000E-02 0.  1.
          2   -1    0    0  501    0  0.00000000000E+00 -0.00000000000E+00 -0.74516593937E+03  0.74516593938E+03  0.25500000000E-02 0. -1.
    5000001    1    1    2    0    0  0.69419075064E+02  0.33291941374E+03 -0.43925825854E+03  0.58776369548E+03  0.19200000000E+03 0.  0.
   -5000001    1    1    2    0    0 -0.69419075064E+02 -0.33291941374E+03 -0.67058505571E+02  0.39625141917E+03  0.19200000000E+03 0.  0.
<mgrwt>
<rscale>  0 0.84375890E+03</rscale>
<asrwt>0</asrwt>
<pdfrwt beam="1">  1        2 0.10645228E+00 0.84375890E+03</pdfrwt>
<pdfrwt beam="2">  1       -2 0.34121311E-01 0.84375890E+03</pdfrwt>
<totfact> 0.33550234E+02</totfact>
</mgrwt>
</event>
<event>
 4    1  0.5455400E-005  0.7627690E+03  0.7818608E-02  0.9615528E-01
          2   -1    0    0  501    0  0.00000000000E+00  0.00000000000E+00  0.28640386741E+04  0.28640386741E+04  0.25500000000E-02 0.  1.
         -2   -1    0    0    0  501 -0.00000000000E+00 -0.00000000000E+00 -0.50786367943E+02  0.50786368007E+02  0.25500000000E-02 0. -1.
    5000001    1    1    2    0    0 -0.19042639311E+03  0.26766343168E+03  0.15065825122E+04  0.15538857068E+04  0.19200000000E+03 0.  0.
   -5000001    1    1    2    0    0  0.19042639311E+03 -0.26766343168E+03  0.13066697940E+04  0.13609393353E+04  0.19200000000E+03 0.  0.
<mgrwt>
<rscale>  0 0.76276896E+03</rscale>
<asrwt>0</asrwt>
<pdfrwt beam="1">  1        2 0.40914839E+00 0.76276896E+03</pdfrwt>
<pdfrwt beam="2">  1       -2 0.72551952E-02 0.76276896E+03</pdfrwt>
<totfact> 0.33635831E+02</totfact>
</mgrwt>
</event>
<event>
 4    1  0.5455400E-005  0.6155099E+03  0.7818608E-02  0.9873740E-01
         -2   -1    0    0    0  501 -0.00000000000E+00  0.00000000000E+00  0.13302374739E+03  0.13302374742E+03  0.25500000000E-02 0. -1.
          2   -1    0    0  501    0  0.00000000000E+00 -0.00000000000E+00 -0.71200159035E+03  0.71200159036E+03  0.25500000000E-02 0.  1.
    5000001    1    1    2    0    0  0.32940212009E+02 -0.23544337303E+03 -0.23941185511E+03  0.38820184935E+03  0.19200000000E+03 0.  0.
   -5000001    1    1    2    0    0 -0.32940212009E+02  0.23544337303E+03 -0.33956598785E+03  0.45682348843E+03  0.19200000000E+03 0.  0.
<mgrwt>
<rscale>  0 0.61550993E+03</rscale>
<asrwt>0</asrwt>
<pdfrwt beam="1">  1        2 0.10171451E+00 0.61550993E+03</pdfrwt>
<pdfrwt beam="2">  1       -2 0.19003393E-01 0.61550993E+03</pdfrwt>
<totfact> 0.10307202E+03</totfact>
</mgrwt>
</event>
<event>
 4    1  0.5455400E-005  0.4964731E+03  0.7818608E-02  0.1014704E+00
         -2   -1    0    0    0  501 -0.00000000000E+00  0.00000000000E+00  0.13342722859E+03  0.13342722861E+03  0.25500000000E-02 0. -1.
          2   -1    0    0  501    0  0.00000000000E+00 -0.00000000000E+00 -0.46183510547E+03  0.46183510548E+03  0.25500000000E-02 0.  1.
    5000001    1    1    2    0    0 -0.14675432637E+03 -0.56210885840E+02 -0.17355924190E+03  0.30279251385E+03  0.19200000000E+03 0.  0.
   -5000001    1    1    2    0    0  0.14675432637E+03  0.56210885840E+02 -0.15484863498E+03  0.29246982024E+03  0.19200000000E+03 0.  0.
<mgrwt>
<rscale>  0 0.49647307E+03</rscale>
<asrwt>0</asrwt>
<pdfrwt beam="1">  1        2 0.65976443E-01 0.49647307E+03</pdfrwt>
<pdfrwt beam="2">  1       -2 0.19061033E-01 0.49647307E+03</pdfrwt>
<totfact> 0.16999536E+03</totfact>
</mgrwt>
</event>
<event>
 4    1  0.5455400E-005  0.5342330E+03  0.7818608E-02  0.1005211E+00
          2   -1    0    0  501    0  0.00000000000E+00  0.00000000000E+00  0.22991726676E+03  0.22991726677E+03  0.25500000000E-02 0.  1.
         -2   -1    0    0    0  501 -0.00000000000E+00 -0.00000000000E+00 -0.31033431859E+03  0.31033431860E+03  0.25500000000E-02 0. -1.
    5000001    1    1    2    0    0  0.54214668620E+02 -0.31112481763E+02  0.13663294110E+03  0.24380274282E+03  0.19200000000E+03 0.  0.
   -5000001    1    1    2    0    0 -0.54214668620E+02  0.31112481763E+02 -0.21704999293E+03  0.29644884254E+03  0.19200000000E+03 0.  0.
<mgrwt>
<rscale>  0 0.53423298E+03</rscale>
<asrwt>0</asrwt>
<pdfrwt beam="1">  1        2 0.32845324E-01 0.53423298E+03</pdfrwt>
<pdfrwt beam="2">  1       -2 0.44333474E-01 0.53423298E+03</pdfrwt>
<totfact> 0.77868252E+02</totfact>
</mgrwt>
</event>
<event>
 4    1  0.5455400E-005  0.5253518E+03  0.7818608E-02  0.1007366E+00
          2   -1    0    0  501    0  0.00000000000E+00  0.00000000000E+00  0.25449781227E+03  0.25449781228E+03  0.25500000000E-02 0.  1.
         -2   -1    0    0    0  501 -0.00000000000E+00 -0.00000000000E+00 -0.27111676813E+03  0.27111676815E+03  0.25500000000E-02 0. -1.
    5000001    1    1    2    0    0 -0.36014950683E+02 -0.17558597617E+03 -0.10977770402E+02  0.26289165666E+03  0.19200000000E+03 0.  0.
   -5000001    1    1    2    0    0  0.36014950683E+02  0.17558597617E+03 -0.56411854609E+01  0.26272292377E+03  0.19200000000E+03 0.  0.
<mgrwt>
<rscale>  0 0.52535178E+03</rscale>
<asrwt>0</asrwt>
<pdfrwt beam="1">  1        2 0.36356830E-01 0.52535178E+03</pdfrwt>
<pdfrwt beam="2">  1       -2 0.38730967E-01 0.52535178E+03</pdfrwt>
<totfact> 0.90532584E+02</totfact>
</mgrwt>
</event>
<event>
 4    1  0.5455400E-005  0.5735238E+03  0.7818608E-02  0.9961911E-01
          2   -1    0    0  501    0  0.00000000000E+00  0.00000000000E+00  0.58179111750E+03  0.58179111751E+03  0.25500000000E-02 0.  1.
         -2   -1    0    0    0  501 -0.00000000000E+00 -0.00000000000E+00 -0.14134351303E+03  0.14134351305E+03  0.25500000000E-02 0. -1.
    5000001    1    1    2    0    0  0.17063282062E+03  0.10971803236E+03  0.13836679299E+03  0.31170976164E+03  0.19200000000E+03 0.  0.
   -5000001    1    1    2    0    0 -0.17063282062E+03 -0.10971803236E+03  0.30208081149E+03  0.41142486892E+03  0.19200000000E+03 0.  0.
<mgrwt>
<rscale>  0 0.57352385E+03</rscale>
<asrwt>0</asrwt>
<pdfrwt beam="1">  1        2 0.83113019E-01 0.57352385E+03</pdfrwt>
<pdfrwt beam="2">  1       -2 0.20191930E-01 0.57352385E+03</pdfrwt>
<totfact> 0.11819455E+03</totfact>
</mgrwt>
</event>
<event>
 4    1  0.5455400E-005  0.4621562E+03  0.7818608E-02  0.1024158E+00
          2   -1    0    0  501    0  0.00000000000E+00  0.00000000000E+00  0.37216732899E+03  0.37216732900E+03  0.25500000000E-02 0.  1.
         -2   -1    0    0    0  501 -0.00000000000E+00 -0.00000000000E+00 -0.14347603039E+03  0.14347603041E+03  0.25500000000E-02 0. -1.
    5000001    1    1    2    0    0 -0.39265046029E+02 -0.73045979215E+01  0.25071184254E+03  0.31830100373E+03  0.19200000000E+03 0.  0.
   -5000001    1    1    2    0    0  0.39265046029E+02  0.73045979215E+01 -0.22020543932E+02  0.19734235568E+03  0.19200000000E+03 0.  0.
<mgrwt>
<rscale>  0 0.46215621E+03</rscale>
<asrwt>0</asrwt>
<pdfrwt beam="1">  1        2 0.53166761E-01 0.46215621E+03</pdfrwt>
<pdfrwt beam="2">  1       -2 0.20496576E-01 0.46215621E+03</pdfrwt>
<totfact> 0.19030603E+03</totfact>
</mgrwt>
</event>
<event>
 4    1  0.5455400E-005  0.6282935E+03  0.7818608E-02  0.9848385E-01
          2   -1    0    0  501    0  0.00000000000E+00  0.00000000000E+00  0.27674635009E+04  0.27674635009E+04  0.25500000000E-02 0.  1.
         -2   -1    0    0    0  501 -0.00000000000E+00 -0.00000000000E+00 -0.35660154504E+02  0.35660154595E+02  0.25500000000E-02 0. -1.
    5000001    1    1    2    0    0 -0.17861888216E+03  0.16973608089E+03  0.15144855535E+04  0.15463652654E+04  0.19200000000E+03 0.  0.
   -5000001    1    1    2    0    0  0.17861888216E+03 -0.16973608089E+03  0.12173177929E+04  0.12567583901E+04  0.19200000000E+03 0.  0.
<mgrwt>
<rscale>  0 0.62829349E+03</rscale>
<asrwt>0</asrwt>
<pdfrwt beam="1">  1        2 0.39535200E+00 0.62829349E+03</pdfrwt>
<pdfrwt beam="2">  1       -2 0.50943069E-02 0.62829349E+03</pdfrwt>
<totfact> 0.66816402E+02</totfact>
</mgrwt>
</event>
<event>
 4    1  0.5455400E-005  0.8679438E+03  0.7818608E-02  0.9466565E-01
          2   -1    0    0  501    0  0.00000000000E+00  0.00000000000E+00  0.15917026017E+04  0.15917026017E+04  0.25500000000E-02 0.  1.
         -2   -1    0    0    0  501 -0.00000000000E+00 -0.00000000000E+00 -0.11832084182E+03  0.11832084185E+03  0.25500000000E-02 0. -1.
    5000001    1    1    2    0    0  0.30227360824E+03 -0.20347173051E+03  0.46728789991E+03  0.62289008723E+03  0.19200000000E+03 0.  0.
   -5000001    1    1    2    0    0 -0.30227360824E+03  0.20347173051E+03  0.10060938600E+04  0.10871333563E+04  0.19200000000E+03 0.  0.
<mgrwt>
<rscale>  0 0.86794376E+03</rscale>
<asrwt>0</asrwt>
<pdfrwt beam="1">  1        2 0.22738607E+00 0.86794376E+03</pdfrwt>
<pdfrwt beam="2">  1       -2 0.16902979E-01 0.86794376E+03</pdfrwt>
<totfact> 0.37544847E+02</totfact>
</mgrwt>
</event>
<event>
 4    1  0.5455400E-005  0.1015860E+04  0.7818608E-02  0.9291319E-01
          2   -1    0    0  501    0  0.00000000000E+00  0.00000000000E+00  0.15434488871E+04  0.15434488871E+04  0.25500000000E-02 0.  1.
         -2   -1    0    0    0  501 -0.00000000000E+00 -0.00000000000E+00 -0.16715350590E+03  0.16715350592E+03  0.25500000000E-02 0. -1.
    5000001    1    1    2    0    0 -0.37700931302E+03  0.27304511971E+03  0.57595380555E+03  0.76503362385E+03  0.19200000000E+03 0.  0.
   -5000001    1    1    2    0    0  0.37700931302E+03 -0.27304511971E+03  0.80034157570E+03  0.94556876921E+03  0.19200000000E+03 0.  0.
<mgrwt>
<rscale>  0 0.10158600E+04</rscale>
<asrwt>0</asrwt>
<pdfrwt beam="1">  1        2 0.22049271E+00 0.10158600E+04</pdfrwt>
<pdfrwt beam="2">  1       -2 0.23879071E-01 0.10158600E+04</pdfrwt>
<totfact> 0.21507410E+02</totfact>
</mgrwt>
</event>
<event>
 4    1  0.5455400E-005  0.4675927E+03  0.7818608E-02  0.1022602E+00
         -2   -1    0    0    0  501 -0.00000000000E+00  0.00000000000E+00  0.32339240127E+03  0.32339240128E+03  0.25500000000E-02 0. -1.
          2   -1    0    0  501    0  0.00000000000E+00 -0.00000000000E+00 -0.16902291984E+03  0.16902291986E+03  0.25500000000E-02 0.  1.
    5000001    1    1    2    0    0  0.93815694617E+02 -0.85864601434E+02  0.11960481360E+03  0.25950611895E+03  0.19200000000E+03 0.  0.
   -5000001    1    1    2    0    0 -0.93815694617E+02  0.85864601434E+02  0.34764667826E+02  0.23290920219E+03  0.19200000000E+03 0.  0.
<mgrwt>
<rscale>  0 0.46759268E+03</rscale>
<asrwt>0</asrwt>
<pdfrwt beam="1">  1        2 0.24146132E-01 0.46759268E+03</pdfrwt>
<pdfrwt beam="2">  1       -2 0.46198914E-01 0.46759268E+03</pdfrwt>
<totfact> 0.10145388E+03</totfact>
</mgrwt>
</event>
<event>
 4    1  0.5455400E-005  0.7107062E+03  0.7818608E-02  0.9699096E-01
         -2   -1    0    0    0  501 -0.00000000000E+00  0.00000000000E+00  0.33414196273E+02  0.33414196371E+02  0.25500000000E-02 0. -1.
          2   -1    0    0  501    0  0.00000000000E+00 -0.00000000000E+00 -0.37791068770E+04  0.37791068770E+04  0.25500000000E-02 0.  1.
    5000001    1    1    2    0    0  0.24506624258E+03 -0.15080481634E+03 -0.14366347235E+04  0.14776951258E+04  0.19200000000E+03 0.  0.
   -5000001    1    1    2    0    0 -0.24506624258E+03  0.15080481634E+03 -0.23090579572E+04  0.23348259477E+04  0.19200000000E+03 0.  0.
<mgrwt>
<rscale>  0 0.71070618E+03</rscale>
<asrwt>0</asrwt>
<pdfrwt beam="1">  1        2 0.53987213E+00 0.71070618E+03</pdfrwt>
<pdfrwt beam="2">  1       -2 0.47734591E-02 0.71070618E+03</pdfrwt>
<totfact> 0.19239665E+02</totfact>
</mgrwt>
</event>
<event>
 4    1  0.5455400E-005  0.5016833E+03  0.7818608E-02  0.1013340E+00
         -2   -1    0    0    0  501 -0.00000000000E+00  0.00000000000E+00  0.15932115448E+03  0.15932115450E+03  0.25500000000E-02 0. -1.
          2   -1    0    0  501    0  0.00000000000E+00 -0.00000000000E+00 -0.39493519406E+03  0.39493519407E+03  0.25500000000E-02 0.  1.
    5000001    1    1    2    0    0  0.36691337255E+02 -0.15125078466E+03 -0.70487843824E+02  0.25701282111E+03  0.19200000000E+03 0.  0.
   -5000001    1    1    2    0    0 -0.36691337255E+02  0.15125078466E+03 -0.16512619576E+03  0.29724352746E+03  0.19200000000E+03 0.  0.
<mgrwt>
<rscale>  0 0.50168329E+03</rscale>
<asrwt>0</asrwt>
<pdfrwt beam="1">  1        2 0.56419313E-01 0.50168329E+03</pdfrwt>
<pdfrwt beam="2">  1       -2 0.22760165E-01 0.50168329E+03</pdfrwt>
<totfact> 0.14845247E+03</totfact>
</mgrwt>
</event>
<event>
 4    1  0.5455400E-005  0.8894001E+03  0.7818608E-02  0.9438930E-01
         -2   -1    0    0    0  501 -0.00000000000E+00  0.00000000000E+00  0.44613932532E+03  0.44613932533E+03  0.25500000000E-02 0.  1.
          2   -1    0    0  501    0  0.00000000000E+00 -0.00000000000E+00 -0.44326537199E+03  0.44326537200E+03  0.25500000000E-02 0. -1.
    5000001    1    1    2    0    0  0.33612468597E+03 -0.13098630738E+03 -0.17394038195E+03  0.44413564787E+03  0.19200000000E+03 0.  0.
   -5000001    1    1    2    0    0 -0.33612468597E+03  0.13098630738E+03  0.17681433528E+03  0.44526904945E+03  0.19200000000E+03 0.  0.
<mgrwt>
<rscale>  0 0.88940005E+03</rscale>
<asrwt>0</asrwt>
<pdfrwt beam="1">  1        2 0.63323625E-01 0.88940005E+03</pdfrwt>
<pdfrwt beam="2">  1       -2 0.63734189E-01 0.88940005E+03</pdfrwt>
<totfact> 0.17615024E+02</totfact>
</mgrwt>
</event>
<event>
 4    1  0.5455400E-005  0.4768120E+03  0.7818608E-02  0.1020015E+00
          2   -1    0    0  501    0  0.00000000000E+00  0.00000000000E+00  0.90470469939E+03  0.90470469939E+03  0.25500000000E-02 0.  1.
         -2   -1    0    0    0  501 -0.00000000000E+00 -0.00000000000E+00 -0.62824280827E+02  0.62824280878E+02  0.25500000000E-02 0. -1.
    5000001    1    1    2    0    0 -0.13115348433E+03 -0.48867758025E+02  0.46071013011E+03  0.51836967332E+03  0.19200000000E+03 0.  0.
   -5000001    1    1    2    0    0  0.13115348433E+03  0.48867758025E+02  0.38117028845E+03  0.44915930696E+03  0.19200000000E+03 0.  0.
<mgrwt>
<rscale>  0 0.47681201E+03</rscale>
<asrwt>0</asrwt>
<pdfrwt beam="1">  1        2 0.12924353E+00 0.47681201E+03</pdfrwt>
<pdfrwt beam="2">  1       -2 0.89748970E-02 0.47681201E+03</pdfrwt>
<totfact> 0.26375515E+03</totfact>
</mgrwt>
</event>
<event>
 4    1  0.5455400E-005  0.7784706E+03  0.7818608E-02  0.9591714E-01
          2   -1    0    0  501    0  0.00000000000E+00  0.00000000000E+00  0.13372228720E+04  0.13372228720E+04  0.25500000000E-02 0.  1.
         -2   -1    0    0    0  501 -0.00000000000E+00 -0.00000000000E+00 -0.11329758037E+03  0.11329758040E+03  0.25500000000E-02 0. -1.
    5000001    1    1    2    0    0  0.79209165527E+02 -0.32267841548E+03  0.49056694402E+03  0.62282853040E+03  0.19200000000E+03 0.  0.
   -5000001    1    1    2    0    0 -0.79209165527E+02  0.32267841548E+03  0.73335834757E+03  0.82769192195E+03  0.19200000000E+03 0.  0.
<mgrwt>
<rscale>  0 0.77847059E+03</rscale>
<asrwt>0</asrwt>
<pdfrwt beam="1">  1        2 0.19103183E+00 0.77847059E+03</pdfrwt>
<pdfrwt beam="2">  1       -2 0.16185369E-01 0.77847059E+03</pdfrwt>
<totfact> 0.55444481E+02</totfact>
</mgrwt>
</event>
<event>
 4    1  0.5455400E-005  0.4752769E+03  0.7818608E-02  0.1020441E+00
          2   -1    0    0  501    0  0.00000000000E+00  0.00000000000E+00  0.25925828290E+04  0.25925828290E+04  0.25500000000E-02 0.  1.
         -2   -1    0    0    0  501 -0.00000000000E+00 -0.00000000000E+00 -0.21782152617E+02  0.21782152766E+02  0.25500000000E-02 0. -1.
    5000001    1    1    2    0    0 -0.44889580728E+02 -0.13204718577E+03  0.13542146081E+04  0.13748500786E+04  0.19200000000E+03 0.  0.
   -5000001    1    1    2    0    0  0.44889580728E+02  0.13204718577E+03  0.12165860682E+04  0.12395149032E+04  0.19200000000E+03 0.  0.
<mgrwt>
<rscale>  0 0.47527691E+03</rscale>
<asrwt>0</asrwt>
<pdfrwt beam="1">  1        2 0.37036899E+00 0.47527691E+03</pdfrwt>
<pdfrwt beam="2">  1       -2 0.31117360E-02 0.47527691E+03</pdfrwt>
<totfact> 0.17757082E+03</totfact>
</mgrwt>
</event>
<event>
 4    1  0.5455400E-005  0.4439965E+03  0.7818608E-02  0.1029528E+00
          2   -1    0    0  501    0  0.00000000000E+00  0.00000000000E+00  0.30634922636E+04  0.30634922636E+04  0.25500000000E-02 0.  1.
         -2   -1    0    0    0  501 -0.00000000000E+00 -0.00000000000E+00 -0.16087268256E+02  0.16087268458E+02  0.25500000000E-02 0. -1.
    5000001    1    1    2    0    0 -0.98078370114E+02  0.15943520521E+01  0.18905473704E+04  0.19028019519E+04  0.19200000000E+03 0.  0.
   -5000001    1    1    2    0    0  0.98078370114E+02 -0.15943520521E+01  0.11568576250E+04  0.11767775801E+04  0.19200000000E+03 0.  0.
<mgrwt>
<rscale>  0 0.44399650E+03</rscale>
<asrwt>0</asrwt>
<pdfrwt beam="1">  1        2 0.43764217E+00 0.44399650E+03</pdfrwt>
<pdfrwt beam="2">  1       -2 0.22981790E-02 0.44399650E+03</pdfrwt>
<totfact> 0.15854954E+03</totfact>
</mgrwt>
</event>
<event>
 4    1  0.5455400E-005  0.4482988E+03  0.7818608E-02  0.1028231E+00
         -2   -1    0    0    0  501 -0.00000000000E+00  0.00000000000E+00  0.17362310671E+03  0.17362310673E+03  0.25500000000E-02 0.  1.
          2   -1    0    0  501    0  0.00000000000E+00 -0.00000000000E+00 -0.28937935599E+03  0.28937935601E+03  0.25500000000E-02 0. -1.
    5000001    1    1    2    0    0 -0.11461583363E+01  0.91258624575E+02  0.15512340453E+02  0.21315272211E+03  0.19200000000E+03 0.  0.
   -5000001    1    1    2    0    0  0.11461583363E+01 -0.91258624575E+02 -0.13126858974E+03  0.24984974062E+03  0.19200000000E+03 0.  0.
<mgrwt>
<rscale>  0 0.44829875E+03</rscale>
<asrwt>0</asrwt>
<pdfrwt beam="1">  1        2 0.41339908E-01 0.44829875E+03</pdfrwt>
<pdfrwt beam="2">  1       -2 0.24803301E-01 0.44829875E+03</pdfrwt>
<totfact> 0.17918266E+03</totfact>
</mgrwt>
</event>
<event>
 4    1  0.5455400E-005  0.5474887E+03  0.7818608E-02  0.1002077E+00
          2   -1    0    0  501    0  0.00000000000E+00  0.00000000000E+00  0.25575152990E+03  0.25575152992E+03  0.25500000000E-02 0.  1.
         -2   -1    0    0    0  501 -0.00000000000E+00 -0.00000000000E+00 -0.29300297051E+03  0.29300297052E+03  0.25500000000E-02 0. -1.
    5000001    1    1    2    0    0  0.66262702499E+02 -0.17941542070E+03 -0.57332607870E+02  0.27700481377E+03  0.19200000000E+03 0.  0.
   -5000001    1    1    2    0    0 -0.66262702499E+02  0.17941542070E+03  0.20081167265E+02  0.27174968667E+03  0.19200000000E+03 0.  0.
<mgrwt>
<rscale>  0 0.54748866E+03</rscale>
<asrwt>0</asrwt>
<pdfrwt beam="1">  1        2 0.36535933E-01 0.54748866E+03</pdfrwt>
<pdfrwt beam="2">  1       -2 0.41857567E-01 0.54748866E+03</pdfrwt>
<totfact> 0.77447119E+02</totfact>
</mgrwt>
</event>
<event>
 4    1  0.5455400E-005  0.6088423E+03  0.7818608E-02  0.9887229E-01
         -2   -1    0    0    0  501 -0.00000000000E+00  0.00000000000E+00  0.10155482091E+03  0.10155482094E+03  0.25500000000E-02 0. -1.
          2   -1    0    0  501    0  0.00000000000E+00 -0.00000000000E+00 -0.91253419723E+03  0.91253419724E+03  0.25500000000E-02 0.  1.
    5000001    1    1    2    0    0 -0.19294443488E+03  0.12029287795E+03 -0.51227433591E+03  0.59244149641E+03  0.19200000000E+03 0.  0.
   -5000001    1    1    2    0    0  0.19294443488E+03 -0.12029287795E+03 -0.29870504042E+03  0.42164752176E+03  0.19200000000E+03 0.  0.
<mgrwt>
<rscale>  0 0.60884233E+03</rscale>
<asrwt>0</asrwt>
<pdfrwt beam="1">  1        2 0.13036202E+00 0.60884233E+03</pdfrwt>
<pdfrwt beam="2">  1       -2 0.14507832E-01 0.60884233E+03</pdfrwt>
<totfact> 0.11870763E+03</totfact>
</mgrwt>
</event>
<event>
 4    1  0.5455400E-005  0.6445945E+03  0.7818608E-02  0.9816975E-01
          2   -1    0    0  501    0  0.00000000000E+00  0.00000000000E+00  0.64958521622E+03  0.64958521622E+03  0.25500000000E-02 0.  1.
         -2   -1    0    0    0  501 -0.00000000000E+00 -0.00000000000E+00 -0.15991051633E+03  0.15991051635E+03  0.25500000000E-02 0. -1.
    5000001    1    1    2    0    0  0.23968467858E+03 -0.71007577607E+02  0.32927383881E+03  0.45582461775E+03  0.19200000000E+03 0.  0.
   -5000001    1    1    2    0    0 -0.23968467858E+03  0.71007577607E+02  0.16040086108E+03  0.35367111482E+03  0.19200000000E+03 0.  0.
<mgrwt>
<rscale>  0 0.64459447E+03</rscale>
<asrwt>0</asrwt>
<pdfrwt beam="1">  1        2 0.92797889E-01 0.64459447E+03</pdfrwt>
<pdfrwt beam="2">  1       -2 0.22844359E-01 0.64459447E+03</pdfrwt>
<totfact> 0.83409972E+02</totfact>
</mgrwt>
</event>
<event>
 4    1  0.5455400E-005  0.5717409E+03  0.7818608E-02  0.9965834E-01
          2   -1    0    0  501    0  0.00000000000E+00  0.00000000000E+00  0.97319295691E+03  0.97319295691E+03  0.25500000000E-02 0.  1.
         -2   -1    0    0    0  501 -0.00000000000E+00 -0.00000000000E+00 -0.83972981154E+02  0.83972981192E+02  0.25500000000E-02 0. -1.
    5000001    1    1    2    0    0 -0.53063879984E+02  0.15356684951E+03  0.19339113058E+03  0.31727382813E+03  0.19200000000E+03 0.  0.
   -5000001    1    1    2    0    0  0.53063879984E+02 -0.15356684951E+03  0.69582884517E+03  0.73989210998E+03  0.19200000000E+03 0.  0.
<mgrwt>
<rscale>  0 0.57174090E+03</rscale>
<asrwt>0</asrwt>
<pdfrwt beam="1">  1        2 0.13902757E+00 0.57174090E+03</pdfrwt>
<pdfrwt beam="2">  1       -2 0.11996140E-01 0.57174090E+03</pdfrwt>
<totfact> 0.14919738E+03</totfact>
</mgrwt>
</event>
<event>
 4    1  0.5455400E-005  0.5257322E+03  0.7818608E-02  0.1007272E+00
         -2   -1    0    0    0  501 -0.00000000000E+00  0.00000000000E+00  0.10499855024E+04  0.10499855024E+04  0.25500000000E-02 0. -1.
          2   -1    0    0  501    0  0.00000000000E+00 -0.00000000000E+00 -0.65809095258E+02  0.65809095308E+02  0.25500000000E-02 0.  1.
    5000001    1    1    2    0    0 -0.36956043048E+02 -0.15479117888E+03  0.31568246200E+03  0.40230022992E+03  0.19200000000E+03 0.  0.
   -5000001    1    1    2    0    0  0.36956043048E+02  0.15479117888E+03  0.66849394512E+03  0.71349436777E+03  0.19200000000E+03 0.  0.
<mgrwt>
<rscale>  0 0.52573224E+03</rscale>
<asrwt>0</asrwt>
<pdfrwt beam="1">  1        2 0.94013001E-02 0.52573224E+03</pdfrwt>
<pdfrwt beam="2">  1       -2 0.14999792E+00 0.52573224E+03</pdfrwt>
<totfact> 0.21917185E+02</totfact>
</mgrwt>
</event>
<event>
 4    1  0.5455400E-005  0.5985229E+03  0.7818608E-02  0.9908475E-01
         -2   -1    0    0    0  501 -0.00000000000E+00  0.00000000000E+00  0.42818566086E+02  0.42818566162E+02  0.25500000000E-02 0. -1.
          2   -1    0    0  501    0  0.00000000000E+00 -0.00000000000E+00 -0.20915559026E+04  0.20915559026E+04  0.25500000000E-02 0.  1.
    5000001    1    1    2    0    0 -0.59070216739E+01 -0.13591860189E+03 -0.36503463976E+03  0.43430754940E+03  0.19200000000E+03 0.  0.
   -5000001    1    1    2    0    0  0.59070216739E+01  0.13591860189E+03 -0.16837026967E+04  0.17000669193E+04  0.19200000000E+03 0.  0.
<mgrwt>
<rscale>  0 0.59852293E+03</rscale>
<asrwt>0</asrwt>
<pdfrwt beam="1">  1        2 0.29879364E+00 0.59852293E+03</pdfrwt>
<pdfrwt beam="2">  1       -2 0.61169393E-02 0.59852293E+03</pdfrwt>
<totfact> 0.11168554E+03</totfact>
</mgrwt>
</event>
<event>
 4    1  0.5455400E-005  0.6263696E+03  0.7818608E-02  0.9852159E-01
         -2   -1    0    0    0  501 -0.00000000000E+00  0.00000000000E+00  0.10985732551E+03  0.10985732554E+03  0.25500000000E-02 0. -1.
          2   -1    0    0  501    0  0.00000000000E+00 -0.00000000000E+00 -0.89283734085E+03  0.89283734085E+03  0.25500000000E-02 0.  1.
    5000001    1    1    2    0    0  0.23663939417E+03  0.16479529954E+02 -0.50412726305E+03  0.58930304185E+03  0.19200000000E+03 0.  0.
   -5000001    1    1    2    0    0 -0.23663939417E+03 -0.16479529954E+02 -0.27885275229E+03  0.41339162454E+03  0.19200000000E+03 0.  0.
<mgrwt>
<rscale>  0 0.62636961E+03</rscale>
<asrwt>0</asrwt>
<pdfrwt beam="1">  1        2 0.12754819E+00 0.62636961E+03</pdfrwt>
<pdfrwt beam="2">  1       -2 0.15693904E-01 0.62636961E+03</pdfrwt>
<totfact> 0.10702838E+03</totfact>
</mgrwt>
</event>
<event>
 4    1  0.5455400E-005  0.8025096E+03  0.7818608E-02  0.9556392E-01
         -2   -1    0    0    0  501 -0.00000000000E+00  0.00000000000E+00  0.11679856830E+03  0.11679856833E+03  0.25500000000E-02 0. -1.
          2   -1    0    0  501    0  0.00000000000E+00 -0.00000000000E+00 -0.13784880005E+04  0.13784880005E+04  0.25500000000E-02 0.  1.
    5000001    1    1    2    0    0  0.12632926516E+03  0.25944173184E+03 -0.25415056486E+03  0.42979716736E+03  0.19200000000E+03 0.  0.
   -5000001    1    1    2    0    0 -0.12632926516E+03 -0.25944173184E+03 -0.10075388673E+04  0.10654894014E+04  0.19200000000E+03 0.  0.
<mgrwt>
<rscale>  0 0.80250963E+03</rscale>
<asrwt>0</asrwt>
<pdfrwt beam="1">  1        2 0.19692685E+00 0.80250963E+03</pdfrwt>
<pdfrwt beam="2">  1       -2 0.16685511E-01 0.80250963E+03</pdfrwt>
<totfact> 0.49940090E+02</totfact>
</mgrwt>
</event>
<event>
 4    1  0.5455400E-005  0.4982833E+03  0.7818608E-02  0.1014228E+00
          2   -1    0    0  501    0  0.00000000000E+00  0.00000000000E+00  0.10432322417E+04  0.10432322417E+04  0.25500000000E-02 0.  1.
         -2   -1    0    0    0  501 -0.00000000000E+00 -0.00000000000E+00 -0.59499265161E+02  0.59499265216E+02  0.25500000000E-02 0. -1.
    5000001    1    1    2    0    0  0.71914644523E+02 -0.14024777353E+03  0.44950513036E+03  0.51357571623E+03  0.19200000000E+03 0.  0.
   -5000001    1    1    2    0    0 -0.71914644523E+02  0.14024777353E+03  0.53422784621E+03  0.58915579072E+03  0.19200000000E+03 0.  0.
<mgrwt>
<rscale>  0 0.49828326E+03</rscale>
<asrwt>0</asrwt>
<pdfrwt beam="1">  1        2 0.14903317E+00 0.49828326E+03</pdfrwt>
<pdfrwt beam="2">  1       -2 0.84998956E-02 0.49828326E+03</pdfrwt>
<totfact> 0.23653179E+03</totfact>
</mgrwt>
</event>
<event>
 4    1  0.5455400E-005  0.4095475E+03  0.7818608E-02  0.1040523E+00
         -2   -1    0    0    0  501 -0.00000000000E+00  0.00000000000E+00  0.27204266747E+02  0.27204266866E+02  0.25500000000E-02 0. -1.
          2   -1    0    0  501    0  0.00000000000E+00 -0.00000000000E+00 -0.15413866090E+04  0.15413866090E+04  0.25500000000E-02 0.  1.
    5000001    1    1    2    0    0  0.34750828107E+02 -0.60740804545E+02 -0.70697340213E+03  0.73591606634E+03  0.19200000000E+03 0.  0.
   -5000001    1    1    2    0    0 -0.34750828107E+02  0.60740804545E+02 -0.80720894008E+03  0.83267480948E+03  0.19200000000E+03 0.  0.
<mgrwt>
<rscale>  0 0.40954752E+03</rscale>
<asrwt>0</asrwt>
<pdfrwt beam="1">  1        2 0.22019803E+00 0.40954752E+03</pdfrwt>
<pdfrwt beam="2">  1       -2 0.38863248E-02 0.40954752E+03</pdfrwt>
<totfact> 0.42789064E+03</totfact>
</mgrwt>
</event>
<event>
 4    1  0.5455400E-005  0.5939426E+03  0.7818608E-02  0.9918054E-01
          2   -1    0    0  501    0  0.00000000000E+00  0.00000000000E+00  0.39977410806E+04  0.39977410806E+04  0.25500000000E-02 0.  1.
         -2   -1    0    0    0  501 -0.00000000000E+00 -0.00000000000E+00 -0.22060445439E+02  0.22060445587E+02  0.25500000000E-02 0. -1.
    5000001    1    1    2    0    0 -0.20093329314E+03 -0.76096541099E+02  0.15015289032E+04  0.15289270483E+04  0.19200000000E+03 0.  0.
   -5000001    1    1    2    0    0  0.20093329314E+03  0.76096541099E+02  0.24741517319E+04  0.24908744778E+04  0.19200000000E+03 0.  0.
<mgrwt>
<rscale>  0 0.59394259E+03</rscale>
<asrwt>0</asrwt>
<pdfrwt beam="1">  1        2 0.57110572E+00 0.59394259E+03</pdfrwt>
<pdfrwt beam="2">  1       -2 0.31514930E-02 0.59394259E+03</pdfrwt>
<totfact> 0.26679720E+02</totfact>
</mgrwt>
</event>
<event>
 4    1  0.5455400E-005  0.5723453E+03  0.7818608E-02  0.9964502E-01
          2   -1    0    0  501    0  0.00000000000E+00  0.00000000000E+00  0.71437494393E+03  0.71437494393E+03  0.25500000000E-02 0.  1.
         -2   -1    0    0    0  501 -0.00000000000E+00 -0.00000000000E+00 -0.11463837239E+03  0.11463837242E+03  0.25500000000E-02 0. -1.
    5000001    1    1    2    0    0 -0.69457963172E+01 -0.19565649689E+03  0.18129808901E+03  0.32872892470E+03  0.19200000000E+03 0.  0.
   -5000001    1    1    2    0    0  0.69457963172E+01  0.19565649689E+03  0.41843848253E+03  0.50028439165E+03  0.19200000000E+03 0.  0.
<mgrwt>
<rscale>  0 0.57234528E+03</rscale>
<asrwt>0</asrwt>
<pdfrwt beam="1">  1        2 0.10205357E+00 0.57234528E+03</pdfrwt>
<pdfrwt beam="2">  1       -2 0.16376910E-01 0.57234528E+03</pdfrwt>
<totfact> 0.13253684E+03</totfact>
</mgrwt>
</event>
<event>
 4    1  0.5455400E-005  0.8068800E+03  0.7818608E-02  0.9550112E-01
          2   -1    0    0  501    0  0.00000000000E+00  0.00000000000E+00  0.59657657922E+03  0.59657657922E+03  0.25500000000E-02 0.  1.
         -2   -1    0    0    0  501 -0.00000000000E+00 -0.00000000000E+00 -0.27282977462E+03  0.27282977463E+03  0.25500000000E-02 0. -1.
    5000001    1    1    2    0    0  0.48943393638E+02 -0.31823505776E+03  0.32252750701E+03  0.49452704734E+03  0.19200000000E+03 0.  0.
   -5000001    1    1    2    0    0 -0.48943393638E+02  0.31823505776E+03  0.12192975883E+01  0.37487930652E+03  0.19200000000E+03 0.  0.
<mgrwt>
<rscale>  0 0.80688005E+03</rscale>
<asrwt>0</asrwt>
<pdfrwt beam="1">  1        2 0.85225225E-01 0.80688005E+03</pdfrwt>
<pdfrwt beam="2">  1       -2 0.38975682E-01 0.80688005E+03</pdfrwt>
<totfact> 0.34141615E+02</totfact>
</mgrwt>
</event>
<event>
 4    1  0.5455400E-005  0.5121650E+03  0.7818608E-02  0.1010652E+00
         -2   -1    0    0    0  501 -0.00000000000E+00  0.00000000000E+00  0.57534494740E+02  0.57534494797E+02  0.25500000000E-02 0. -1.
          2   -1    0    0  501    0  0.00000000000E+00 -0.00000000000E+00 -0.11398074554E+04  0.11398074554E+04  0.25500000000E-02 0.  1.
    5000001    1    1    2    0    0 -0.47369185145E+02 -0.16179022812E+03 -0.50102908700E+03  0.56241805059E+03  0.19200000000E+03 0.  0.
   -5000001    1    1    2    0    0  0.47369185145E+02  0.16179022812E+03 -0.58124387363E+03  0.63492389957E+03  0.19200000000E+03 0.  0.
<mgrwt>
<rscale>  0 0.51216500E+03</rscale>
<asrwt>0</asrwt>
<pdfrwt beam="1">  1        2 0.16282962E+00 0.51216500E+03</pdfrwt>
<pdfrwt beam="2">  1       -2 0.82192142E-02 0.51216500E+03</pdfrwt>
<totfact> 0.21929316E+03</totfact>
</mgrwt>
</event>
<event>
 4    1  0.5455400E-005  0.6710018E+03  0.7818608E-02  0.9768150E-01
         -2   -1    0    0    0  501 -0.00000000000E+00  0.00000000000E+00  0.11250464988E+03  0.11250464991E+03  0.25500000000E-02 0. -1.
          2   -1    0    0  501    0  0.00000000000E+00 -0.00000000000E+00 -0.10004995383E+04  0.10004995383E+04  0.25500000000E-02 0.  1.
    5000001    1    1    2    0    0 -0.16709933039E+03 -0.16241703907E+03 -0.68662102926E+03  0.75007594190E+03  0.19200000000E+03 0.  0.
   -5000001    1    1    2    0    0  0.16709933039E+03  0.16241703907E+03 -0.20137385912E+03  0.36292824626E+03  0.19200000000E+03 0.  0.
<mgrwt>
<rscale>  0 0.67100179E+03</rscale>
<asrwt>0</asrwt>
<pdfrwt beam="1">  1        2 0.14292850E+00 0.67100179E+03</pdfrwt>
<pdfrwt beam="2">  1       -2 0.16072093E-01 0.67100179E+03</pdfrwt>
<totfact> 0.87834947E+02</totfact>
</mgrwt>
</event>
<event>
 4    1  0.5455400E-005  0.1165727E+04  0.7818608E-02  0.9143396E-01
         -2   -1    0    0    0  501 -0.00000000000E+00  0.00000000000E+00  0.50778974943E+03  0.50778974943E+03  0.25500000000E-02 0. -1.
          2   -1    0    0  501    0  0.00000000000E+00 -0.00000000000E+00 -0.66903606657E+03  0.66903606658E+03  0.25500000000E-02 0.  1.
    5000001    1    1    2    0    0  0.37895000059E+03  0.20601709567E+03  0.26441978588E+03  0.54113581458E+03  0.19200000000E+03 0.  0.
   -5000001    1    1    2    0    0 -0.37895000059E+03 -0.20601709567E+03 -0.42566610302E+03  0.63569000143E+03  0.19200000000E+03 0.  0.
<mgrwt>
<rscale>  0 0.11657267E+04</rscale>
<asrwt>0</asrwt>
<pdfrwt beam="1">  1        2 0.95576580E-01 0.11657267E+04</pdfrwt>
<pdfrwt beam="2">  1       -2 0.72541394E-01 0.11657267E+04</pdfrwt>
<totfact> 0.80985583E+01</totfact>
</mgrwt>
</event>
<event>
 4    1  0.5455400E-005  0.4529498E+03  0.7818608E-02  0.1026846E+00
          2   -1    0    0  501    0  0.00000000000E+00  0.00000000000E+00  0.28839389948E+04  0.28839389948E+04  0.25500000000E-02 0.  1.
         -2   -1    0    0    0  501 -0.00000000000E+00 -0.00000000000E+00 -0.17785012361E+02  0.17785012544E+02  0.25500000000E-02 0. -1.
    5000001    1    1    2    0    0 -0.73845603854E+02 -0.92445149332E+02  0.13006028917E+04  0.13200118033E+04  0.19200000000E+03 0.  0.
   -5000001    1    1    2    0    0  0.73845603854E+02  0.92445149332E+02  0.15655510908E+04  0.15817122041E+04  0.19200000000E+03 0.  0.
<mgrwt>
<rscale>  0 0.45294985E+03</rscale>
<asrwt>0</asrwt>
<pdfrwt beam="1">  1        2 0.41199152E+00 0.45294985E+03</pdfrwt>
<pdfrwt beam="2">  1       -2 0.25407146E-02 0.45294985E+03</pdfrwt>
<totfact> 0.17018431E+03</totfact>
</mgrwt>
</event>
<event>
 4    1  0.5455400E-005  0.7095479E+03  0.7818608E-02  0.9701042E-01
         -2   -1    0    0    0  501 -0.00000000000E+00  0.00000000000E+00  0.20425250627E+03  0.20425250628E+03  0.25500000000E-02 0. -1.
          2   -1    0    0  501    0  0.00000000000E+00 -0.00000000000E+00 -0.61622039845E+03  0.61622039846E+03  0.25500000000E-02 0.  1.
    5000001    1    1    2    0    0  0.14044202107E+03 -0.22829664237E+03 -0.35744684394E+03  0.48628753268E+03  0.19200000000E+03 0.  0.
   -5000001    1    1    2    0    0 -0.14044202107E+03  0.22829664237E+03 -0.54521048246E+02  0.33418537206E+03  0.19200000000E+03 0.  0.
<mgrwt>
<rscale>  0 0.70954791E+03</rscale>
<asrwt>0</asrwt>
<pdfrwt beam="1">  1        2 0.88031485E-01 0.70954791E+03</pdfrwt>
<pdfrwt beam="2">  1       -2 0.29178930E-01 0.70954791E+03</pdfrwt>
<totfact> 0.56976211E+02</totfact>
</mgrwt>
</event>
<event>
 4    1  0.5455400E-005  0.4571842E+03  0.7818608E-02  0.1025601E+00
         -2   -1    0    0    0  501 -0.00000000000E+00  0.00000000000E+00  0.26951727542E+02  0.26951727662E+02  0.25500000000E-02 0. -1.
          2   -1    0    0  501    0  0.00000000000E+00 -0.00000000000E+00 -0.19388123648E+04  0.19388123648E+04  0.25500000000E-02 0.  1.
    5000001    1    1    2    0    0 -0.10607128572E+03  0.24381719668E+02 -0.12119264669E+04  0.12318584932E+04  0.19200000000E+03 0.  0.
   -5000001    1    1    2    0    0  0.10607128572E+03 -0.24381719668E+02 -0.69993417035E+03  0.73390559933E+03  0.19200000000E+03 0.  0.
<mgrwt>
<rscale>  0 0.45718418E+03</rscale>
<asrwt>0</asrwt>
<pdfrwt beam="1">  1        2 0.27697311E+00 0.45718418E+03</pdfrwt>
<pdfrwt beam="2">  1       -2 0.38502480E-02 0.45718418E+03</pdfrwt>
<totfact> 0.27399279E+03</totfact>
</mgrwt>
</event>
<event>
 4    1  0.5455400E-005  0.4878757E+03  0.7818608E-02  0.1016993E+00
          2   -1    0    0  501    0  0.00000000000E+00  0.00000000000E+00  0.48862565008E+03  0.48862565009E+03  0.25500000000E-02 0.  1.
         -2   -1    0    0    0  501 -0.00000000000E+00 -0.00000000000E+00 -0.12178172347E+03  0.12178172349E+03  0.25500000000E-02 0. -1.
    5000001    1    1    2    0    0 -0.52518032306E+02 -0.76685465654E+02  0.33147560926E+03  0.39418128304E+03  0.19200000000E+03 0.  0.
   -5000001    1    1    2    0    0  0.52518032306E+02  0.76685465654E+02  0.35368317355E+02  0.21622609055E+03  0.19200000000E+03 0.  0.
<mgrwt>
<rscale>  0 0.48787570E+03</rscale>
<asrwt>0</asrwt>
<pdfrwt beam="1">  1        2 0.69803663E-01 0.48787570E+03</pdfrwt>
<pdfrwt beam="2">  1       -2 0.17397389E-01 0.48787570E+03</pdfrwt>
<totfact> 0.18657833E+03</totfact>
</mgrwt>
</event>
<event>
 4    1  0.5455400E-005  0.4339255E+03  0.7818608E-02  0.1032627E+00
         -2   -1    0    0    0  501 -0.00000000000E+00  0.00000000000E+00  0.81854079930E+02  0.81854079970E+02  0.25500000000E-02 0. -1.
          2   -1    0    0  501    0  0.00000000000E+00 -0.00000000000E+00 -0.57508243631E+03  0.57508243632E+03  0.25500000000E-02 0.  1.
    5000001    1    1    2    0    0 -0.77183940305E+02  0.45715780555E+02 -0.31700092321E+03  0.38131467130E+03  0.19200000000E+03 0.  0.
   -5000001    1    1    2    0    0  0.77183940305E+02 -0.45715780555E+02 -0.17622743318E+03  0.27562184499E+03  0.19200000000E+03 0.  0.
<mgrwt>
<rscale>  0 0.43392554E+03</rscale>
<asrwt>0</asrwt>
<pdfrwt beam="1">  1        2 0.82154632E-01 0.43392554E+03</pdfrwt>
<pdfrwt beam="2">  1       -2 0.11693440E-01 0.43392554E+03</pdfrwt>
<totfact> 0.30000862E+03</totfact>
</mgrwt>
</event>
<event>
 4    1  0.5455400E-005  0.4394626E+03  0.7818608E-02  0.1030912E+00
          2   -1    0    0  501    0  0.00000000000E+00  0.00000000000E+00  0.51983328059E+03  0.51983328059E+03  0.25500000000E-02 0.  1.
         -2   -1    0    0    0  501 -0.00000000000E+00 -0.00000000000E+00 -0.92879461543E+02  0.92879461578E+02  0.25500000000E-02 0. -1.
    5000001    1    1    2    0    0  0.31637737614E+01 -0.10636871352E+03  0.22696011473E+03  0.31575181133E+03  0.19200000000E+03 0.  0.
   -5000001    1    1    2    0    0 -0.31637737614E+01  0.10636871352E+03  0.19999370431E+03  0.29696093084E+03  0.19200000000E+03 0.  0.
<mgrwt>
<rscale>  0 0.43946256E+03</rscale>
<asrwt>0</asrwt>
<pdfrwt beam="1">  1        2 0.74261897E-01 0.43946256E+03</pdfrwt>
<pdfrwt beam="2">  1       -2 0.13268495E-01 0.43946256E+03</pdfrwt>
<totfact> 0.27372950E+03</totfact>
</mgrwt>
</event>
<event>
 4    1  0.5455400E-005  0.6310555E+03  0.7818608E-02  0.9842991E-01
         -2   -1    0    0    0  501 -0.00000000000E+00  0.00000000000E+00  0.95564932034E+02  0.95564932068E+02  0.25500000000E-02 0. -1.
          2   -1    0    0  501    0  0.00000000000E+00 -0.00000000000E+00 -0.10417814240E+04  0.10417814240E+04  0.25500000000E-02 0.  1.
    5000001    1    1    2    0    0  0.47673719551E+02  0.18065124015E+03 -0.17268115553E+03  0.31873254552E+03  0.19200000000E+03 0.  0.
   -5000001    1    1    2    0    0 -0.47673719551E+02 -0.18065124015E+03 -0.77353533646E+03  0.81861381057E+03  0.19200000000E+03 0.  0.
<mgrwt>
<rscale>  0 0.63105553E+03</rscale>
<asrwt>0</asrwt>
<pdfrwt beam="1">  1        2 0.14882591E+00 0.63105553E+03</pdfrwt>
<pdfrwt beam="2">  1       -2 0.13652134E-01 0.63105553E+03</pdfrwt>
<totfact> 0.10928009E+03</totfact>
</mgrwt>
</event>
<event>
 4    1  0.5455400E-005  0.5900482E+03  0.7818608E-02  0.9926271E-01
          2   -1    0    0  501    0  0.00000000000E+00  0.00000000000E+00  0.38417163910E+03  0.38417163911E+03  0.25500000000E-02 0.  1.
         -2   -1    0    0    0  501 -0.00000000000E+00 -0.00000000000E+00 -0.22656338211E+03  0.22656338213E+03  0.25500000000E-02 0. -1.
    5000001    1    1    2    0    0 -0.91897157318E+02  0.18978860068E+03  0.58741748315E+00  0.28518265293E+03  0.19200000000E+03 0.  0.
   -5000001    1    1    2    0    0  0.91897157318E+02 -0.18978860068E+03  0.15702083950E+03  0.32555236831E+03  0.19200000000E+03 0.  0.
<mgrwt>
<rscale>  0 0.59004822E+03</rscale>
<asrwt>0</asrwt>
<pdfrwt beam="1">  1        2 0.54881662E-01 0.59004822E+03</pdfrwt>
<pdfrwt beam="2">  1       -2 0.32366198E-01 0.59004822E+03</pdfrwt>
<totfact> 0.80751182E+02</totfact>
</mgrwt>
</event>
<event>
 4    1  0.5455400E-005  0.6581414E+03  0.7818608E-02  0.9791621E-01
          2   -1    0    0  501    0  0.00000000000E+00  0.00000000000E+00  0.66387511721E+03  0.66387511722E+03  0.25500000000E-02 0.  1.
         -2   -1    0    0    0  501 -0.00000000000E+00 -0.00000000000E+00 -0.16311432070E+03  0.16311432072E+03  0.25500000000E-02 0. -1.
    5000001    1    1    2    0    0  0.77837509303E+01  0.26208840241E+03  0.31534091048E+03  0.45282977738E+03  0.19200000000E+03 0.  0.
   -5000001    1    1    2    0    0 -0.77837509303E+01 -0.26208840241E+03  0.18541988603E+03  0.37415966057E+03  0.19200000000E+03 0.  0.
<mgrwt>
<rscale>  0 0.65814144E+03</rscale>
<asrwt>0</asrwt>
<pdfrwt beam="1">  1        2 0.94839302E-01 0.65814144E+03</pdfrwt>
<pdfrwt beam="2">  1       -2 0.23302046E-01 0.65814144E+03</pdfrwt>
<totfact> 0.78412206E+02</totfact>
</mgrwt>
</event>
<event>
 4    1  0.5455400E-005  0.6446696E+03  0.7818608E-02  0.9816833E-01
         -2   -1    0    0    0  501 -0.00000000000E+00  0.00000000000E+00  0.48560687589E+02  0.48560687656E+02  0.25500000000E-02 0. -1.
          2   -1    0    0  501    0  0.00000000000E+00 -0.00000000000E+00 -0.21395848648E+04  0.21395848648E+04  0.25500000000E-02 0.  1.
    5000001    1    1    2    0    0  0.25361043158E+03  0.14775806313E+02 -0.12151934165E+04  0.12562227569E+04  0.19200000000E+03 0.  0.
   -5000001    1    1    2    0    0 -0.25361043158E+03 -0.14775806313E+02 -0.87583076063E+03  0.93192279547E+03  0.19200000000E+03 0.  0.
<mgrwt>
<rscale>  0 0.64466957E+03</rscale>
<asrwt>0</asrwt>
<pdfrwt beam="1">  1        2 0.30565492E+00 0.64466957E+03</pdfrwt>
<pdfrwt beam="2">  1       -2 0.69372424E-02 0.64466957E+03</pdfrwt>
<totfact> 0.86410398E+02</totfact>
</mgrwt>
</event>
<event>
 4    1  0.5455400E-005  0.5175273E+03  0.7818608E-02  0.1009303E+00
          2   -1    0    0  501    0  0.00000000000E+00  0.00000000000E+00  0.94658211908E+03  0.94658211909E+03  0.25500000000E-02 0.  1.
         -2   -1    0    0    0  501 -0.00000000000E+00 -0.00000000000E+00 -0.70737267602E+02  0.70737267648E+02  0.25500000000E-02 0. -1.
    5000001    1    1    2    0    0  0.57875443212E+02 -0.11987324276E+03  0.21924451660E+03  0.32039244578E+03  0.19200000000E+03 0.  0.
   -5000001    1    1    2    0    0 -0.57875443212E+02  0.11987324276E+03  0.65660033488E+03  0.69692694095E+03  0.19200000000E+03 0.  0.
<mgrwt>
<rscale>  0 0.51752732E+03</rscale>
<asrwt>0</asrwt>
<pdfrwt beam="1">  1        2 0.13522601E+00 0.51752732E+03</pdfrwt>
<pdfrwt beam="2">  1       -2 0.10105324E-01 0.51752732E+03</pdfrwt>
<totfact> 0.20509935E+03</totfact>
</mgrwt>
</event>
<event>
 4    1  0.5455400E-005  0.1107888E+04  0.7818608E-02  0.9197537E-01
         -2   -1    0    0    0  501 -0.00000000000E+00  0.00000000000E+00  0.19218233420E+03  0.19218233422E+03  0.25500000000E-02 0. -1.
          2   -1    0    0  501    0  0.00000000000E+00 -0.00000000000E+00 -0.15966827890E+04  0.15966827890E+04  0.25500000000E-02 0.  1.
    5000001    1    1    2    0    0  0.58515936846E+00 -0.44248788381E+03 -0.11420621326E+04  0.12397442415E+04  0.19200000000E+03 0.  0.
   -5000001    1    1    2    0    0 -0.58515936846E+00  0.44248788381E+03 -0.26243832221E+03  0.54912088168E+03  0.19200000000E+03 0.  0.
<mgrwt>
<rscale>  0 0.11078885E+04</rscale>
<asrwt>0</asrwt>
<pdfrwt beam="1">  1        2 0.22809753E+00 0.11078885E+04</pdfrwt>
<pdfrwt beam="2">  1       -2 0.27454620E-01 0.11078885E+04</pdfrwt>
<totfact> 0.15562625E+02</totfact>
</mgrwt>
</event>
<event>
 4    1  0.5455400E-005  0.8255516E+03  0.7818608E-02  0.9523751E-01
         -2   -1    0    0    0  501 -0.00000000000E+00  0.00000000000E+00  0.55131494413E+02  0.55131494472E+02  0.25500000000E-02 0. -1.
          2   -1    0    0  501    0  0.00000000000E+00 -0.00000000000E+00 -0.30904995058E+04  0.30904995058E+04  0.25500000000E-02 0.  1.
    5000001    1    1    2    0    0 -0.32073836812E+02  0.36263392568E+03 -0.13979301361E+04  0.14572593319E+04  0.19200000000E+03 0.  0.
   -5000001    1    1    2    0    0  0.32073836812E+02 -0.36263392568E+03 -0.16374378753E+04  0.16883716684E+04  0.19200000000E+03 0.  0.
<mgrwt>
<rscale>  0 0.82555159E+03</rscale>
<asrwt>0</asrwt>
<pdfrwt beam="1">  1        2 0.44149982E+00 0.82555159E+03</pdfrwt>
<pdfrwt beam="2">  1       -2 0.78759297E-02 0.82555159E+03</pdfrwt>
<totfact> 0.22052862E+02</totfact>
</mgrwt>
</event>
<event>
 4    1  0.5455400E-005  0.7933979E+03  0.7818608E-02  0.9569623E-01
         -2   -1    0    0    0  501 -0.00000000000E+00  0.00000000000E+00  0.14777182086E+03  0.14777182088E+03  0.25500000000E-02 0. -1.
          2   -1    0    0  501    0  0.00000000000E+00 -0.00000000000E+00 -0.10649532027E+04  0.10649532027E+04  0.25500000000E-02 0.  1.
    5000001    1    1    2    0    0  0.17272112801E+03 -0.27599050307E+03 -0.27451513500E+03  0.46714655644E+03  0.19200000000E+03 0.  0.
   -5000001    1    1    2    0    0 -0.17272112801E+03  0.27599050307E+03 -0.64266624687E+03  0.74557846717E+03  0.19200000000E+03 0.  0.
<mgrwt>
<rscale>  0 0.79339794E+03</rscale>
<asrwt>0</asrwt>
<pdfrwt beam="1">  1        2 0.15213617E+00 0.79339794E+03</pdfrwt>
<pdfrwt beam="2">  1       -2 0.21110261E-01 0.79339794E+03</pdfrwt>
<totfact> 0.49884404E+02</totfact>
</mgrwt>
</event>
<event>
 4    1  0.5455400E-005  0.6226405E+03  0.7818608E-02  0.9859516E-01
          2   -1    0    0  501    0  0.00000000000E+00  0.00000000000E+00  0.32793426202E+02  0.32793426301E+02  0.25500000000E-02 0.  1.
         -2   -1    0    0    0  501 -0.00000000000E+00 -0.00000000000E+00 -0.29554799267E+04  0.29554799267E+04  0.25500000000E-02 0. -1.
    5000001    1    1    2    0    0  0.23452935881E+03  0.25894009535E+02 -0.11436493634E+04  0.11834155594E+04  0.19200000000E+03 0.  0.
   -5000001    1    1    2    0    0 -0.23452935881E+03 -0.25894009535E+02 -0.17790371371E+04  0.18048577936E+04  0.19200000000E+03 0.  0.
<mgrwt>
<rscale>  0 0.62264055E+03</rscale>
<asrwt>0</asrwt>
<pdfrwt beam="1">  1        2 0.46847771E-02 0.62264055E+03</pdfrwt>
<pdfrwt beam="2">  1       -2 0.42221125E+00 0.62264055E+03</pdfrwt>
<totfact> 0.10414670E+01</totfact>
</mgrwt>
</event>
<event>
 4    1  0.5455400E-005  0.6667551E+03  0.7818608E-02  0.9775838E-01
          2   -1    0    0  501    0  0.00000000000E+00  0.00000000000E+00  0.70671911984E+03  0.70671911984E+03  0.25500000000E-02 0. -1.
         -2   -1    0    0    0  501 -0.00000000000E+00 -0.00000000000E+00 -0.15726274305E+03  0.15726274307E+03  0.25500000000E-02 0.  1.
    5000001    1    1    2    0    0  0.75200749115E+02  0.17648533799E+03  0.23883216919E+02  0.27246400725E+03  0.19200000000E+03 0.  0.
   -5000001    1    1    2    0    0 -0.75200749115E+02 -0.17648533799E+03  0.52557315987E+03  0.59151785566E+03  0.19200000000E+03 0.  0.
<mgrwt>
<rscale>  0 0.66675509E+03</rscale>
<asrwt>0</asrwt>
<pdfrwt beam="1">  1        2 0.10095987E+00 0.66675509E+03</pdfrwt>
<pdfrwt beam="2">  1       -2 0.22466106E-01 0.66675509E+03</pdfrwt>
<totfact> 0.77507050E+02</totfact>
</mgrwt>
</event>
<event>
 4    1  0.5455400E-005  0.4154149E+03  0.7818608E-02  0.1038569E+00
         -2   -1    0    0    0  501 -0.00000000000E+00  0.00000000000E+00  0.14031468959E+02  0.14031469191E+02  0.25500000000E-02 0.  1.
          2   -1    0    0  501    0  0.00000000000E+00 -0.00000000000E+00 -0.30746871176E+04  0.30746871176E+04  0.25500000000E-02 0. -1.
    5000001    1    1    2    0    0 -0.14566941310E+02  0.64203286390E+02 -0.18581646850E+04  0.18692175514E+04  0.19200000000E+03 0.  0.
   -5000001    1    1    2    0    0  0.14566941310E+02 -0.64203286390E+02 -0.12024909636E+04  0.12195010354E+04  0.19200000000E+03 0.  0.
<mgrwt>
<rscale>  0 0.41541486E+03</rscale>
<asrwt>0</asrwt>
<pdfrwt beam="1">  1        2 0.43924059E+00 0.41541486E+03</pdfrwt>
<pdfrwt beam="2">  1       -2 0.20044975E-02 0.41541486E+03</pdfrwt>
<totfact> 0.19223835E+03</totfact>
</mgrwt>
</event>
<event>
 4    1  0.5455400E-005  0.5116952E+03  0.7818608E-02  0.1010771E+00
         -2   -1    0    0    0  501 -0.00000000000E+00  0.00000000000E+00  0.10375328007E+03  0.10375328010E+03  0.25500000000E-02 0. -1.
          2   -1    0    0  501    0  0.00000000000E+00 -0.00000000000E+00 -0.63090041749E+03  0.63090041750E+03  0.25500000000E-02 0.  1.
    5000001    1    1    2    0    0  0.68563944346E+02  0.12729322323E+03 -0.38947127475E+03  0.45766412684E+03  0.19200000000E+03 0.  0.
   -5000001    1    1    2    0    0 -0.68563944346E+02 -0.12729322323E+03 -0.13767586268E+03  0.27698957076E+03  0.19200000000E+03 0.  0.
<mgrwt>
<rscale>  0 0.51169517E+03</rscale>
<asrwt>0</asrwt>
<pdfrwt beam="1">  1        2 0.90128628E-01 0.51169517E+03</pdfrwt>
<pdfrwt beam="2">  1       -2 0.14821898E-01 0.51169517E+03</pdfrwt>
<totfact> 0.18220741E+03</totfact>
</mgrwt>
</event>
<event>
 4    1  0.5455400E-005  0.5638106E+03  0.7818608E-02  0.9983469E-01
          2   -1    0    0  501    0  0.00000000000E+00  0.00000000000E+00  0.20383414270E+03  0.20383414271E+03  0.25500000000E-02 0.  1.
         -2   -1    0    0    0  501 -0.00000000000E+00 -0.00000000000E+00 -0.38987880572E+03  0.38987880572E+03  0.25500000000E-02 0. -1.
    5000001    1    1    2    0    0  0.75418238476E+02  0.17466607504E+03 -0.17733405501E+03  0.32327622172E+03  0.19200000000E+03 0.  0.
   -5000001    1    1    2    0    0 -0.75418238476E+02 -0.17466607504E+03 -0.87106080053E+01  0.27043672672E+03  0.19200000000E+03 0.  0.
<mgrwt>
<rscale>  0 0.56381065E+03</rscale>
<asrwt>0</asrwt>
<pdfrwt beam="1">  1        2 0.29119163E-01 0.56381065E+03</pdfrwt>
<pdfrwt beam="2">  1       -2 0.55696972E-01 0.56381065E+03</pdfrwt>
<totfact> 0.56167489E+02</totfact>
</mgrwt>
</event>
<event>
 4    1  0.5455400E-005  0.9429582E+03  0.7818608E-02  0.9373419E-01
         -2   -1    0    0    0  501 -0.00000000000E+00  0.00000000000E+00  0.79952323519E+02  0.79952323560E+02  0.25500000000E-02 0. -1.
          2   -1    0    0  501    0  0.00000000000E+00 -0.00000000000E+00 -0.27803137467E+04  0.27803137467E+04  0.25500000000E-02 0.  1.
    5000001    1    1    2    0    0 -0.39516607763E+03  0.16750636587E+03 -0.14558652112E+04  0.15299091884E+04  0.19200000000E+03 0.  0.
   -5000001    1    1    2    0    0  0.39516607763E+03 -0.16750636587E+03 -0.12444962120E+04  0.13303568819E+04  0.19200000000E+03 0.  0.
<mgrwt>
<rscale>  0 0.94295821E+03</rscale>
<asrwt>0</asrwt>
<pdfrwt beam="1">  1        2 0.39718762E+00 0.94295821E+03</pdfrwt>
<pdfrwt beam="2">  1       -2 0.11421762E-01 0.94295821E+03</pdfrwt>
<totfact> 0.17597867E+02</totfact>
</mgrwt>
</event>
<event>
 4    1  0.5455400E-005  0.4457648E+03  0.7818608E-02  0.1028993E+00
         -2   -1    0    0    0  501 -0.00000000000E+00  0.00000000000E+00  0.45856414849E+02  0.45856414920E+02  0.25500000000E-02 0. -1.
          2   -1    0    0  501    0  0.00000000000E+00 -0.00000000000E+00 -0.10833066952E+04  0.10833066952E+04  0.25500000000E-02 0.  1.
    5000001    1    1    2    0    0  0.12371072142E+02  0.52456702183E+02 -0.26658626748E+03  0.33292189330E+03  0.19200000000E+03 0.  0.
   -5000001    1    1    2    0    0 -0.12371072142E+02 -0.52456702183E+02 -0.77086401291E+03  0.79624121686E+03  0.19200000000E+03 0.  0.
<mgrwt>
<rscale>  0 0.44576479E+03</rscale>
<asrwt>0</asrwt>
<pdfrwt beam="1">  1        2 0.15475808E+00 0.44576479E+03</pdfrwt>
<pdfrwt beam="2">  1       -2 0.65509171E-02 0.44576479E+03</pdfrwt>
<totfact> 0.33790785E+03</totfact>
</mgrwt>
</event>
<event>
 4    1  0.5455400E-005  0.4984466E+03  0.7818608E-02  0.1014185E+00
         -2   -1    0    0    0  501 -0.00000000000E+00  0.00000000000E+00  0.22714676814E+02  0.22714676957E+02  0.25500000000E-02 0. -1.
          2   -1    0    0  501    0  0.00000000000E+00 -0.00000000000E+00 -0.27344548939E+04  0.27344548939E+04  0.25500000000E-02 0.  1.
    5000001    1    1    2    0    0  0.14477489575E+03  0.95669357646E+01 -0.17142242030E+04  0.17310343482E+04  0.19200000000E+03 0.  0.
   -5000001    1    1    2    0    0 -0.14477489575E+03 -0.95669357646E+01 -0.99751601409E+03  0.10261352226E+04  0.19200000000E+03 0.  0.
<mgrwt>
<rscale>  0 0.49844662E+03</rscale>
<asrwt>0</asrwt>
<pdfrwt beam="1">  1        2 0.39063621E+00 0.49844662E+03</pdfrwt>
<pdfrwt beam="2">  1       -2 0.32449556E-02 0.49844662E+03</pdfrwt>
<totfact> 0.14046850E+03</totfact>
</mgrwt>
</event>
<event>
 4    1  0.5455400E-005  0.1022585E+04  0.7818608E-02  0.9284115E-01
         -2   -1    0    0    0  501 -0.00000000000E+00  0.00000000000E+00  0.62436093120E+03  0.62436093121E+03  0.25500000000E-02 0. -1.
          2   -1    0    0  501    0  0.00000000000E+00 -0.00000000000E+00 -0.41870007710E+03  0.41870007710E+03  0.25500000000E-02 0.  1.
    5000001    1    1    2    0    0  0.18151188884E+03  0.41747861224E+03  0.23707507289E+03  0.54799958727E+03  0.19200000000E+03 0.  0.
   -5000001    1    1    2    0    0 -0.18151188884E+03 -0.41747861224E+03 -0.31414218778E+02  0.49506142104E+03  0.19200000000E+03 0.  0.
<mgrwt>
<rscale>  0 0.10225849E+04</rscale>
<asrwt>0</asrwt>
<pdfrwt beam="1">  1        2 0.59814297E-01 0.10225849E+04</pdfrwt>
<pdfrwt beam="2">  1       -2 0.89194419E-01 0.10225849E+04</pdfrwt>
<totfact> 0.88471945E+01</totfact>
</mgrwt>
</event>
<event>
 4    1  0.5455400E-005  0.6115550E+03  0.7818608E-02  0.9881719E-01
          2   -1    0    0  501    0  0.00000000000E+00  0.00000000000E+00  0.30782595684E+03  0.30782595685E+03  0.25500000000E-02 0.  1.
         -2   -1    0    0    0  501 -0.00000000000E+00 -0.00000000000E+00 -0.30374271446E+03  0.30374271448E+03  0.25500000000E-02 0. -1.
    5000001    1    1    2    0    0  0.22208352277E+03 -0.22810989075E+02 -0.80388727025E+02  0.30523397541E+03  0.19200000000E+03 0.  0.
   -5000001    1    1    2    0    0 -0.22208352277E+03  0.22810989075E+02  0.84471969399E+02  0.30633469592E+03  0.19200000000E+03 0.  0.
<mgrwt>
<rscale>  0 0.61155504E+03</rscale>
<asrwt>0</asrwt>
<pdfrwt beam="1">  1        2 0.43975137E-01 0.61155504E+03</pdfrwt>
<pdfrwt beam="2">  1       -2 0.43391816E-01 0.61155504E+03</pdfrwt>
<totfact> 0.58756871E+02</totfact>
</mgrwt>
</event>
<event>
 4    1  0.5455400E-005  0.5604416E+03  0.7818608E-02  0.9991056E-01
         -2   -1    0    0    0  501 -0.00000000000E+00  0.00000000000E+00  0.37662980722E+02  0.37662980809E+02  0.25500000000E-02 0. -1.
          2   -1    0    0  501    0  0.00000000000E+00 -0.00000000000E+00 -0.20849035632E+04  0.20849035632E+04  0.25500000000E-02 0.  1.
    5000001    1    1    2    0    0 -0.33642856795E+02  0.16804047214E+03 -0.14434867511E+04  0.14662494477E+04  0.19200000000E+03 0.  0.
   -5000001    1    1    2    0    0  0.33642856795E+02 -0.16804047214E+03 -0.60375383138E+03  0.65631709637E+03  0.19200000000E+03 0.  0.
<mgrwt>
<rscale>  0 0.56044155E+03</rscale>
<asrwt>0</asrwt>
<pdfrwt beam="1">  1        2 0.29784329E+00 0.56044155E+03</pdfrwt>
<pdfrwt beam="2">  1       -2 0.53804271E-02 0.56044155E+03</pdfrwt>
<totfact> 0.13779520E+03</totfact>
</mgrwt>
</event>
<event>
 4    1  0.5455400E-005  0.5155964E+03  0.7818608E-02  0.1009786E+00
          2   -1    0    0  501    0  0.00000000000E+00  0.00000000000E+00  0.28277120383E+04  0.28277120383E+04  0.25500000000E-02 0.  1.
         -2   -1    0    0    0  501 -0.00000000000E+00 -0.00000000000E+00 -0.23503068068E+02  0.23503068207E+02  0.25500000000E-02 0. -1.
    5000001    1    1    2    0    0 -0.11307539357E+03 -0.12956877534E+03  0.14279219663E+04  0.14509993983E+04  0.19200000000E+03 0.  0.
   -5000001    1    1    2    0    0  0.11307539357E+03  0.12956877534E+03  0.13762870039E+04  0.14002157082E+04  0.19200000000E+03 0.  0.
<mgrwt>
<rscale>  0 0.51559639E+03</rscale>
<asrwt>0</asrwt>
<pdfrwt beam="1">  1        2 0.40395880E+00 0.51559639E+03</pdfrwt>
<pdfrwt beam="2">  1       -2 0.33575817E-02 0.51559639E+03</pdfrwt>
<totfact> 0.11898057E+03</totfact>
</mgrwt>
</event>
<event>
 4    1  0.5455400E-005  0.5005238E+03  0.7818608E-02  0.1013642E+00
          2   -1    0    0  501    0  0.00000000000E+00  0.00000000000E+00  0.33033931379E+04  0.33033931379E+04  0.25500000000E-02 0.  1.
         -2   -1    0    0    0  501 -0.00000000000E+00 -0.00000000000E+00 -0.18959604260E+02  0.18959604431E+02  0.25500000000E-02 0. -1.
    5000001    1    1    2    0    0 -0.43988893633E+02 -0.14127415791E+03  0.20553396831E+04  0.20695841668E+04  0.19200000000E+03 0.  0.
   -5000001    1    1    2    0    0  0.43988893633E+02  0.14127415791E+03  0.12290938505E+04  0.12527685755E+04  0.19200000000E+03 0.  0.
<mgrwt>
<rscale>  0 0.50052383E+03</rscale>
<asrwt>0</asrwt>
<pdfrwt beam="1">  1        2 0.47191308E+00 0.50052383E+03</pdfrwt>
<pdfrwt beam="2">  1       -2 0.27085162E-02 0.50052383E+03</pdfrwt>
<totfact> 0.90581870E+02</totfact>
</mgrwt>
</event>
<event>
 4    1  0.5455400E-005  0.1178936E+04  0.7818608E-02  0.9131496E-01
         -2   -1    0    0    0  501 -0.00000000000E+00  0.00000000000E+00  0.45140243024E+03  0.45140243025E+03  0.25500000000E-02 0. -1.
          2   -1    0    0  501    0  0.00000000000E+00 -0.00000000000E+00 -0.76976190496E+03  0.76976190496E+03  0.25500000000E-02 0.  1.
    5000001    1    1    2    0    0 -0.18659731923E+02 -0.54663880513E+03 -0.26999896426E+03  0.63947291543E+03  0.19200000000E+03 0.  0.
   -5000001    1    1    2    0    0  0.18659731923E+02  0.54663880513E+03 -0.48360510462E+02  0.58169141978E+03  0.19200000000E+03 0.  0.
<mgrwt>
<rscale>  0 0.11789358E+04</rscale>
<asrwt>0</asrwt>
<pdfrwt beam="1">  1        2 0.10996599E+00 0.11789358E+04</pdfrwt>
<pdfrwt beam="2">  1       -2 0.64486062E-01 0.11789358E+04</pdfrwt>
<totfact> 0.87724038E+01</totfact>
</mgrwt>
</event>
<event>
 4    1  0.5455400E-005  0.1053868E+04  0.7818608E-02  0.9251359E-01
          2   -1    0    0  501    0  0.00000000000E+00  0.00000000000E+00  0.24363260575E+03  0.24363260576E+03  0.25500000000E-02 0.  1.
         -2   -1    0    0    0  501 -0.00000000000E+00 -0.00000000000E+00 -0.11396651761E+04  0.11396651761E+04  0.25500000000E-02 0. -1.
    5000001    1    1    2    0    0 -0.19271249454E+03  0.44924689860E+03 -0.39179333146E+03  0.65523041446E+03  0.19200000000E+03 0.  0.
   -5000001    1    1    2    0    0  0.19271249454E+03 -0.44924689860E+03 -0.50423923888E+03  0.72806736740E+03  0.19200000000E+03 0.  0.
<mgrwt>
<rscale>  0 0.10538683E+04</rscale>
<asrwt>0</asrwt>
<pdfrwt beam="1">  1        2 0.34804658E-01 0.10538683E+04</pdfrwt>
<pdfrwt beam="2">  1       -2 0.16280931E+00 0.10538683E+04</pdfrwt>
<totfact> 0.35989338E+01</totfact>
</mgrwt>
</event>
<event>
 4    1  0.5455400E-005  0.6235597E+03  0.7818608E-02  0.9857698E-01
         -2   -1    0    0    0  501 -0.00000000000E+00  0.00000000000E+00  0.86297118674E+02  0.86297118712E+02  0.25500000000E-02 0. -1.
          2   -1    0    0  501    0  0.00000000000E+00 -0.00000000000E+00 -0.11264184554E+04  0.11264184554E+04  0.25500000000E-02 0.  1.
    5000001    1    1    2    0    0 -0.17533609158E+02 -0.18456800696E+03 -0.20664840047E+03  0.33755049705E+03  0.19200000000E+03 0.  0.
   -5000001    1    1    2    0    0  0.17533609158E+02  0.18456800696E+03 -0.83347293628E+03  0.87516507709E+03  0.19200000000E+03 0.  0.
<mgrwt>
<rscale>  0 0.62355968E+03</rscale>
<asrwt>0</asrwt>
<pdfrwt beam="1">  1        2 0.16091691E+00 0.62355968E+03</pdfrwt>
<pdfrwt beam="2">  1       -2 0.12328160E-01 0.62355968E+03</pdfrwt>
<totfact> 0.11548107E+03</totfact>
</mgrwt>
</event>
<event>
 4    1  0.5455400E-005  0.8410734E+03  0.7818608E-02  0.9502397E-01
          2   -1    0    0  501    0  0.00000000000E+00  0.00000000000E+00  0.64484809204E+03  0.64484809205E+03  0.25500000000E-02 0.  1.
         -2   -1    0    0    0  501 -0.00000000000E+00 -0.00000000000E+00 -0.27425236252E+03  0.27425236254E+03  0.25500000000E-02 0. -1.
    5000001    1    1    2    0    0  0.19050305808E+03 -0.23248862620E+03  0.42877920904E+03  0.55772572700E+03  0.19200000000E+03 0.  0.
   -5000001    1    1    2    0    0 -0.19050305808E+03  0.23248862620E+03 -0.58183479523E+02  0.36137472759E+03  0.19200000000E+03 0.  0.
<mgrwt>
<rscale>  0 0.84107339E+03</rscale>
<asrwt>0</asrwt>
<pdfrwt beam="1">  1        2 0.92121154E-01 0.84107339E+03</pdfrwt>
<pdfrwt beam="2">  1       -2 0.39178910E-01 0.84107339E+03</pdfrwt>
<totfact> 0.30755529E+02</totfact>
</mgrwt>
</event>
<event>
 4    1  0.5455400E-005  0.1154268E+04  0.7818608E-02  0.9153855E-01
          2   -1    0    0  501    0  0.00000000000E+00  0.00000000000E+00  0.41881731947E+03  0.41881731947E+03  0.25500000000E-02 0.  1.
         -2   -1    0    0    0  501 -0.00000000000E+00 -0.00000000000E+00 -0.79529595710E+03  0.79529595710E+03  0.25500000000E-02 0. -1.
    5000001    1    1    2    0    0 -0.47381315797E+03  0.26203664751E+03 -0.13007677593E+03  0.58902129074E+03  0.19200000000E+03 0.  0.
   -5000001    1    1    2    0    0  0.47381315797E+03 -0.26203664751E+03 -0.24640186170E+03  0.62509198584E+03  0.19200000000E+03 0.  0.
<mgrwt>
<rscale>  0 0.11542681E+04</rscale>
<asrwt>0</asrwt>
<pdfrwt beam="1">  1        2 0.59831046E-01 0.11542681E+04</pdfrwt>
<pdfrwt beam="2">  1       -2 0.11361371E+00 0.11542681E+04</pdfrwt>
<totfact> 0.49398357E+01</totfact>
</mgrwt>
</event>
<event>
 4    1  0.5455400E-005  0.4299606E+03  0.7818608E-02  0.1033872E+00
         -2   -1    0    0    0  501 -0.00000000000E+00  0.00000000000E+00  0.47220324275E+02  0.47220324344E+02  0.25500000000E-02 0. -1.
          2   -1    0    0  501    0  0.00000000000E+00 -0.00000000000E+00 -0.97874248270E+03  0.97874248270E+03  0.25500000000E-02 0.  1.
    5000001    1    1    2    0    0 -0.60713729984E+02 -0.63876248987E+02 -0.56079586751E+03  0.59926816802E+03  0.19200000000E+03 0.  0.
   -5000001    1    1    2    0    0  0.60713729984E+02  0.63876248987E+02 -0.37072629092E+03  0.42669463902E+03  0.19200000000E+03 0.  0.
<mgrwt>
<rscale>  0 0.42996064E+03</rscale>
<asrwt>0</asrwt>
<pdfrwt beam="1">  1        2 0.13982034E+00 0.42996064E+03</pdfrwt>
<pdfrwt beam="2">  1       -2 0.67457613E-02 0.42996064E+03</pdfrwt>
<totfact> 0.37223286E+03</totfact>
</mgrwt>
</event>
<event>
 4    1  0.5455400E-005  0.4368256E+03  0.7818608E-02  0.1031725E+00
         -2   -1    0    0    0  501 -0.00000000000E+00  0.00000000000E+00  0.11116703569E+03  0.11116703572E+03  0.25500000000E-02 0. -1.
          2   -1    0    0  501    0  0.00000000000E+00 -0.00000000000E+00 -0.42912140339E+03  0.42912140340E+03  0.25500000000E-02 0.  1.
    5000001    1    1    2    0    0 -0.87513422090E+02  0.55005093786E+02 -0.17442520667E+03  0.27923522720E+03  0.19200000000E+03 0.  0.
   -5000001    1    1    2    0    0  0.87513422090E+02 -0.55005093786E+02 -0.14352916103E+03  0.26105321192E+03  0.19200000000E+03 0.  0.
<mgrwt>
<rscale>  0 0.43682561E+03</rscale>
<asrwt>0</asrwt>
<pdfrwt beam="1">  1        2 0.61303057E-01 0.43682561E+03</pdfrwt>
<pdfrwt beam="2">  1       -2 0.15881005E-01 0.43682561E+03</pdfrwt>
<totfact> 0.25140120E+03</totfact>
</mgrwt>
</event>
<event>
 4    1  0.5455400E-005  0.5975212E+03  0.7818608E-02  0.9910562E-01
         -2   -1    0    0    0  501 -0.00000000000E+00  0.00000000000E+00  0.22228555156E+03  0.22228555157E+03  0.25500000000E-02 0. -1.
          2   -1    0    0  501    0  0.00000000000E+00 -0.00000000000E+00 -0.40154613522E+03  0.40154613523E+03  0.25500000000E-02 0.  1.
    5000001    1    1    2    0    0  0.18387010472E+00 -0.22800050994E+03 -0.11076100276E+03  0.31798783951E+03  0.19200000000E+03 0.  0.
   -5000001    1    1    2    0    0 -0.18387010472E+00  0.22800050994E+03 -0.68499580905E+02  0.30584384729E+03  0.19200000000E+03 0.  0.
<mgrwt>
<rscale>  0 0.59752123E+03</rscale>
<asrwt>0</asrwt>
<pdfrwt beam="1">  1        2 0.57363734E-01 0.59752123E+03</pdfrwt>
<pdfrwt beam="2">  1       -2 0.31755079E-01 0.59752123E+03</pdfrwt>
<totfact> 0.79657515E+02</totfact>
</mgrwt>
</event>
<event>
 4    1  0.5455400E-005  0.6540977E+03  0.7818608E-02  0.9799120E-01
          2   -1    0    0  501    0  0.00000000000E+00  0.00000000000E+00  0.56971943151E+03  0.56971943151E+03  0.25500000000E-02 0.  1.
         -2   -1    0    0    0  501 -0.00000000000E+00 -0.00000000000E+00 -0.18774319419E+03  0.18774319421E+03  0.25500000000E-02 0. -1.
    5000001    1    1    2    0    0 -0.86327344331E+02 -0.22070587055E+03  0.54294577920E+02  0.30979895556E+03  0.19200000000E+03 0.  0.
   -5000001    1    1    2    0    0  0.86327344331E+02  0.22070587055E+03  0.32768165940E+03  0.44766367016E+03  0.19200000000E+03 0.  0.
<mgrwt>
<rscale>  0 0.65409769E+03</rscale>
<asrwt>0</asrwt>
<pdfrwt beam="1">  1        2 0.81388490E-01 0.65409769E+03</pdfrwt>
<pdfrwt beam="2">  1       -2 0.26820456E-01 0.65409769E+03</pdfrwt>
<totfact> 0.73018029E+02</totfact>
</mgrwt>
</event>
<event>
 4    1  0.5455400E-005  0.7248465E+03  0.7818608E-02  0.9675660E-01
         -2   -1    0    0    0  501 -0.00000000000E+00  0.00000000000E+00  0.64613408795E+03  0.64613408796E+03  0.25500000000E-02 0.  1.
          2   -1    0    0  501    0  0.00000000000E+00 -0.00000000000E+00 -0.20328691233E+03  0.20328691235E+03  0.25500000000E-02 0. -1.
    5000001    1    1    2    0    0  0.24153629822E+03  0.12850774465E+03  0.57226425031E+02  0.33910601221E+03  0.19200000000E+03 0.  0.
   -5000001    1    1    2    0    0 -0.24153629822E+03 -0.12850774465E+03  0.38562075059E+03  0.51031498810E+03  0.19200000000E+03 0.  0.
<mgrwt>
<rscale>  0 0.72484648E+03</rscale>
<asrwt>0</asrwt>
<pdfrwt beam="1">  1        2 0.29040988E-01 0.72484648E+03</pdfrwt>
<pdfrwt beam="2">  1       -2 0.92304869E-01 0.72484648E+03</pdfrwt>
<totfact> 0.18574980E+02</totfact>
</mgrwt>
</event>
<event>
 4    1  0.5455400E-005  0.6227428E+03  0.7818608E-02  0.9859314E-01
         -2   -1    0    0    0  501 -0.00000000000E+00  0.00000000000E+00  0.73583377742E+03  0.73583377742E+03  0.25500000000E-02 0. -1.
          2   -1    0    0  501    0  0.00000000000E+00 -0.00000000000E+00 -0.13175822786E+03  0.13175822788E+03  0.25500000000E-02 0.  1.
    5000001    1    1    2    0    0  0.15984189962E+03  0.52315283464E+01  0.56085179862E+03  0.61399962686E+03  0.19200000000E+03 0.  0.
   -5000001    1    1    2    0    0 -0.15984189962E+03 -0.52315283464E+01  0.43223750936E+02  0.25359237845E+03  0.19200000000E+03 0.  0.
<mgrwt>
<rscale>  0 0.62274282E+03</rscale>
<asrwt>0</asrwt>
<pdfrwt beam="1">  1        2 0.18822604E-01 0.62274282E+03</pdfrwt>
<pdfrwt beam="2">  1       -2 0.10511911E+00 0.62274282E+03</pdfrwt>
<totfact> 0.22641852E+02</totfact>
</mgrwt>
</event>
<event>
 4    1  0.5455400E-005  0.5292678E+03  0.7818608E-02  0.1006410E+00
         -2   -1    0    0    0  501 -0.00000000000E+00  0.00000000000E+00  0.21430300954E+03  0.21430300955E+03  0.25500000000E-02 0. -1.
          2   -1    0    0  501    0  0.00000000000E+00 -0.00000000000E+00 -0.32678539046E+03  0.32678539047E+03  0.25500000000E-02 0.  1.
    5000001    1    1    2    0    0  0.17128980463E+03  0.50365447145E+02 -0.92963010118E+02  0.27817799461E+03  0.19200000000E+03 0.  0.
   -5000001    1    1    2    0    0 -0.17128980463E+03 -0.50365447145E+02 -0.19519370799E+02  0.26291040541E+03  0.19200000000E+03 0.  0.
<mgrwt>
<rscale>  0 0.52926777E+03</rscale>
<asrwt>0</asrwt>
<pdfrwt beam="1">  1        2 0.46683627E-01 0.52926777E+03</pdfrwt>
<pdfrwt beam="2">  1       -2 0.30614716E-01 0.52926777E+03</pdfrwt>
<totfact> 0.10709999E+03</totfact>
</mgrwt>
</event>
<event>
 4    1  0.5455400E-005  0.9756128E+03  0.7818608E-02  0.9335704E-01
         -2   -1    0    0    0  501 -0.00000000000E+00  0.00000000000E+00  0.18480023907E+03  0.18480023909E+03  0.25500000000E-02 0. -1.
          2   -1    0    0  501    0  0.00000000000E+00 -0.00000000000E+00 -0.12876340408E+04  0.12876340408E+04  0.25500000000E-02 0.  1.
    5000001    1    1    2    0    0 -0.41359617960E+03 -0.15716907549E+03 -0.66157243648E+03  0.81872217924E+03  0.19200000000E+03 0.  0.
   -5000001    1    1    2    0    0  0.41359617960E+03  0.15716907549E+03 -0.44126136527E+03  0.65371210066E+03  0.19200000000E+03 0.  0.
<mgrwt>
<rscale>  0 0.97561279E+03</rscale>
<asrwt>0</asrwt>
<pdfrwt beam="1">  1        2 0.18394772E+00 0.97561279E+03</pdfrwt>
<pdfrwt beam="2">  1       -2 0.26400035E-01 0.97561279E+03</pdfrwt>
<totfact> 0.24687295E+02</totfact>
</mgrwt>
</event>
<event>
 4    1  0.5455400E-005  0.7972741E+03  0.7818608E-02  0.9563971E-01
         -2   -1    0    0    0  501 -0.00000000000E+00  0.00000000000E+00  0.36870277068E+03  0.36870277069E+03  0.25500000000E-02 0. -1.
          2   -1    0    0  501    0  0.00000000000E+00 -0.00000000000E+00 -0.43100167472E+03  0.43100167473E+03  0.25500000000E-02 0.  1.
    5000001    1    1    2    0    0  0.21839827140E+03 -0.27074333264E+03 -0.63617158190E+02  0.40238153529E+03  0.19200000000E+03 0.  0.
   -5000001    1    1    2    0    0 -0.21839827140E+03  0.27074333264E+03  0.13182541484E+01  0.39732291013E+03  0.19200000000E+03 0.  0.
<mgrwt>
<rscale>  0 0.79727414E+03</rscale>
<asrwt>0</asrwt>
<pdfrwt beam="1">  1        2 0.61571668E-01 0.79727414E+03</pdfrwt>
<pdfrwt beam="2">  1       -2 0.52671825E-01 0.79727414E+03</pdfrwt>
<totfact> 0.27216972E+02</totfact>
</mgrwt>
</event>
<event>
 4    1  0.5455400E-005  0.5682919E+03  0.7818608E-02  0.9973466E-01
         -2   -1    0    0    0  501 -0.00000000000E+00  0.00000000000E+00  0.87517683309E+02  0.87517683346E+02  0.25500000000E-02 0. -1.
          2   -1    0    0  501    0  0.00000000000E+00 -0.00000000000E+00 -0.92254403114E+03  0.92254403115E+03  0.25500000000E-02 0.  1.
    5000001    1    1    2    0    0  0.85541139378E+02 -0.16986311389E+03 -0.26150804083E+03  0.37606012738E+03  0.19200000000E+03 0.  0.
   -5000001    1    1    2    0    0 -0.85541139378E+02  0.16986311389E+03 -0.57351830701E+03  0.63400158711E+03  0.19200000000E+03 0.  0.
<mgrwt>
<rscale>  0 0.56829188E+03</rscale>
<asrwt>0</asrwt>
<pdfrwt beam="1">  1        2 0.13179200E+00 0.56829188E+03</pdfrwt>
<pdfrwt beam="2">  1       -2 0.12502527E-01 0.56829188E+03</pdfrwt>
<totfact> 0.14993555E+03</totfact>
</mgrwt>
</event>
<event>
 4    1  0.5455400E-005  0.1142647E+04  0.7818608E-02  0.9164594E-01
          2   -1    0    0  501    0  0.00000000000E+00  0.00000000000E+00  0.34302064213E+04  0.34302064213E+04  0.25500000000E-02 0.  1.
         -2   -1    0    0    0  501 -0.00000000000E+00 -0.00000000000E+00 -0.95157744965E+02  0.95157744999E+02  0.25500000000E-02 0. -1.
    5000001    1    1    2    0    0 -0.53801222241E+03  0.81979439731E+01  0.16821101896E+04  0.17764805228E+04  0.19200000000E+03 0.  0.
   -5000001    1    1    2    0    0  0.53801222241E+03 -0.81979439731E+01  0.16529384867E+04  0.17488836435E+04  0.19200000000E+03 0.  0.
<mgrwt>
<rscale>  0 0.11426473E+04</rscale>
<asrwt>0</asrwt>
<pdfrwt beam="1">  1        2 0.49002950E+00 0.11426473E+04</pdfrwt>
<pdfrwt beam="2">  1       -2 0.13593963E-01 0.11426473E+04</pdfrwt>
<totfact> 0.55662594E+01</totfact>
</mgrwt>
</event>
<event>
 4    1  0.5455400E-005  0.5335223E+03  0.7818608E-02  0.1005381E+00
         -2   -1    0    0    0  501 -0.00000000000E+00  0.00000000000E+00  0.52770302408E+02  0.52770302469E+02  0.25500000000E-02 0. -1.
          2   -1    0    0  501    0  0.00000000000E+00 -0.00000000000E+00 -0.13485142340E+04  0.13485142340E+04  0.25500000000E-02 0.  1.
    5000001    1    1    2    0    0  0.70372919914E+02 -0.15392888708E+03 -0.84531349108E+03  0.88321308207E+03  0.19200000000E+03 0.  0.
   -5000001    1    1    2    0    0 -0.70372919914E+02  0.15392888708E+03 -0.45043044056E+03  0.51807145445E+03  0.19200000000E+03 0.  0.
<mgrwt>
<rscale>  0 0.53352227E+03</rscale>
<asrwt>0</asrwt>
<pdfrwt beam="1">  1        2 0.19264487E+00 0.53352227E+03</pdfrwt>
<pdfrwt beam="2">  1       -2 0.75386154E-02 0.53352227E+03</pdfrwt>
<totfact> 0.19300375E+03</totfact>
</mgrwt>
</event>
<event>
 4    1  0.5455400E-005  0.6206284E+03  0.7818608E-02  0.9863509E-01
         -2   -1    0    0    0  501 -0.00000000000E+00  0.00000000000E+00  0.41856548168E+02  0.41856548245E+02  0.25500000000E-02 0. -1.
          2   -1    0    0  501    0  0.00000000000E+00 -0.00000000000E+00 -0.23005934890E+04  0.23005934890E+04  0.25500000000E-02 0.  1.
    5000001    1    1    2    0    0  0.23793004005E+03  0.69117430859E+01 -0.13281008735E+04  0.13628552405E+04  0.19200000000E+03 0.  0.
   -5000001    1    1    2    0    0 -0.23793004005E+03 -0.69117430859E+01 -0.93063606733E+03  0.97959479682E+03  0.19200000000E+03 0.  0.
<mgrwt>
<rscale>  0 0.62062840E+03</rscale>
<asrwt>0</asrwt>
<pdfrwt beam="1">  1        2 0.32865613E+00 0.62062840E+03</pdfrwt>
<pdfrwt beam="2">  1       -2 0.59795084E-02 0.62062840E+03</pdfrwt>
<totfact> 0.90673198E+02</totfact>
</mgrwt>
</event>
<event>
 4    1  0.5455400E-005  0.5231249E+03  0.7818608E-02  0.1007913E+00
         -2   -1    0    0    0  501 -0.00000000000E+00  0.00000000000E+00  0.35025616997E+03  0.35025616998E+03  0.25500000000E-02 0. -1.
          2   -1    0    0  501    0  0.00000000000E+00 -0.00000000000E+00 -0.19532819430E+03  0.19532819432E+03  0.25500000000E-02 0.  1.
    5000001    1    1    2    0    0 -0.14449759107E+03  0.20187914970E+02  0.18312399474E+03  0.30279614130E+03  0.19200000000E+03 0.  0.
   -5000001    1    1    2    0    0  0.14449759107E+03 -0.20187914970E+02 -0.28196019064E+02  0.24278822300E+03  0.19200000000E+03 0.  0.
<mgrwt>
<rscale>  0 0.52312486E+03</rscale>
<asrwt>0</asrwt>
<pdfrwt beam="1">  1        2 0.27904028E-01 0.52312486E+03</pdfrwt>
<pdfrwt beam="2">  1       -2 0.50036595E-01 0.52312486E+03</pdfrwt>
<totfact> 0.73394249E+02</totfact>
</mgrwt>
</event>
<event>
 4    1  0.5455400E-005  0.5668836E+03  0.7818608E-02  0.9976599E-01
         -2   -1    0    0    0  501 -0.00000000000E+00  0.00000000000E+00  0.43301683443E+02  0.43301683518E+02  0.25500000000E-02 0. -1.
          2   -1    0    0  501    0  0.00000000000E+00 -0.00000000000E+00 -0.18553380074E+04  0.18553380074E+04  0.25500000000E-02 0.  1.
    5000001    1    1    2    0    0 -0.42244324964E+02  0.19176336408E+03 -0.67115207154E+03  0.72516679042E+03  0.19200000000E+03 0.  0.
   -5000001    1    1    2    0    0  0.42244324964E+02 -0.19176336408E+03 -0.11408842524E+04  0.11734729005E+04  0.19200000000E+03 0.  0.
<mgrwt>
<rscale>  0 0.56688362E+03</rscale>
<asrwt>0</asrwt>
<pdfrwt beam="1">  1        2 0.26504824E+00 0.56688362E+03</pdfrwt>
<pdfrwt beam="2">  1       -2 0.61859559E-02 0.56688362E+03</pdfrwt>
<totfact> 0.14442903E+03</totfact>
</mgrwt>
</event>
<event>
 4    1  0.5455400E-005  0.4619665E+03  0.7818608E-02  0.1024212E+00
          2   -1    0    0  501    0  0.00000000000E+00  0.00000000000E+00  0.60457621882E+03  0.60457621883E+03  0.25500000000E-02 0.  1.
         -2   -1    0    0    0  501 -0.00000000000E+00 -0.00000000000E+00 -0.88249016646E+02  0.88249016683E+02  0.25500000000E-02 0. -1.
    5000001    1    1    2    0    0 -0.63035078848E+02 -0.10371791661E+03  0.32105274832E+03  0.39328068170E+03  0.19200000000E+03 0.  0.
   -5000001    1    1    2    0    0  0.63035078848E+02  0.10371791661E+03  0.19527445386E+03  0.29954455382E+03  0.19200000000E+03 0.  0.
<mgrwt>
<rscale>  0 0.46196648E+03</rscale>
<asrwt>0</asrwt>
<pdfrwt beam="1">  1        2 0.86368032E-01 0.46196648E+03</pdfrwt>
<pdfrwt beam="2">  1       -2 0.12607002E-01 0.46196648E+03</pdfrwt>
<totfact> 0.25046443E+03</totfact>
</mgrwt>
</event>
<event>
 4    1  0.5455400E-005  0.5276671E+03  0.7818608E-02  0.1006799E+00
         -2   -1    0    0    0  501 -0.00000000000E+00  0.00000000000E+00  0.19917722273E+02  0.19917722436E+02  0.25500000000E-02 0. -1.
          2   -1    0    0  501    0  0.00000000000E+00 -0.00000000000E+00 -0.34947848589E+04  0.34947848589E+04  0.25500000000E-02 0.  1.
    5000001    1    1    2    0    0 -0.98093348091E+02 -0.14923611907E+03 -0.19316776952E+04  0.19493938653E+04  0.19200000000E+03 0.  0.
   -5000001    1    1    2    0    0  0.98093348091E+02  0.14923611907E+03 -0.15431894414E+04  0.15653087160E+04  0.19200000000E+03 0.  0.
<mgrwt>
<rscale>  0 0.52766715E+03</rscale>
<asrwt>0</asrwt>
<pdfrwt beam="1">  1        2 0.49925459E+00 0.52766715E+03</pdfrwt>
<pdfrwt beam="2">  1       -2 0.28453911E-02 0.52766715E+03</pdfrwt>
<totfact> 0.64930117E+02</totfact>
</mgrwt>
</event>
<event>
 4    1  0.5455400E-005  0.6007052E+03  0.7818608E-02  0.9903944E-01
         -2   -1    0    0    0  501 -0.00000000000E+00  0.00000000000E+00  0.43820403048E+02  0.43820403122E+02  0.25500000000E-02 0. -1.
          2   -1    0    0  501    0  0.00000000000E+00 -0.00000000000E+00 -0.20586682433E+04  0.20586682433E+04  0.25500000000E-02 0.  1.
    5000001    1    1    2    0    0  0.17877192699E+03  0.19762100796E+02 -0.50024818462E+03  0.56520986255E+03  0.19200000000E+03 0.  0.
   -5000001    1    1    2    0    0 -0.17877192699E+03 -0.19762100796E+02 -0.15145996557E+04  0.15372787839E+04  0.19200000000E+03 0.  0.
<mgrwt>
<rscale>  0 0.60070516E+03</rscale>
<asrwt>0</asrwt>
<pdfrwt beam="1">  1        2 0.29409540E+00 0.60070516E+03</pdfrwt>
<pdfrwt beam="2">  1       -2 0.62600589E-02 0.60070516E+03</pdfrwt>
<totfact> 0.11186770E+03</totfact>
</mgrwt>
</event>
<event>
 4    1  0.5455400E-005  0.7927644E+03  0.7818608E-02  0.9570550E-01
         -2   -1    0    0    0  501 -0.00000000000E+00  0.00000000000E+00  0.83813543256E+03  0.83813543256E+03  0.25500000000E-02 0. -1.
          2   -1    0    0  501    0  0.00000000000E+00 -0.00000000000E+00 -0.18746237132E+03  0.18746237133E+03  0.25500000000E-02 0.  1.
    5000001    1    1    2    0    0  0.31596774621E+03 -0.13312454684E+03  0.39252287002E+03  0.55542413083E+03  0.19200000000E+03 0.  0.
   -5000001    1    1    2    0    0 -0.31596774621E+03  0.13312454684E+03  0.25815019122E+03  0.47017367307E+03  0.19200000000E+03 0.  0.
<mgrwt>
<rscale>  0 0.79276442E+03</rscale>
<asrwt>0</asrwt>
<pdfrwt beam="1">  1        2 0.26780338E-01 0.79276442E+03</pdfrwt>
<pdfrwt beam="2">  1       -2 0.11973364E+00 0.79276442E+03</pdfrwt>
<totfact> 0.10896367E+02</totfact>
</mgrwt>
</event>
<event>
 4    1  0.5455400E-005  0.5668960E+03  0.7818608E-02  0.9976571E-01
          2   -1    0    0  501    0  0.00000000000E+00  0.00000000000E+00  0.11075679252E+04  0.11075679252E+04  0.25500000000E-02 0.  1.
         -2   -1    0    0    0  501 -0.00000000000E+00 -0.00000000000E+00 -0.72539822731E+02  0.72539822776E+02  0.25500000000E-02 0. -1.
    5000001    1    1    2    0    0  0.32188737792E+01 -0.16752198423E+03  0.77588657861E+03  0.81666269611E+03  0.19200000000E+03 0.  0.
   -5000001    1    1    2    0    0 -0.32188737792E+01  0.16752198423E+03  0.25914152389E+03  0.36344505190E+03  0.19200000000E+03 0.  0.
<mgrwt>
<rscale>  0 0.56689604E+03</rscale>
<asrwt>0</asrwt>
<pdfrwt beam="1">  1        2 0.15822398E+00 0.56689604E+03</pdfrwt>
<pdfrwt beam="2">  1       -2 0.10362832E-01 0.56689604E+03</pdfrwt>
<totfact> 0.15756163E+03</totfact>
</mgrwt>
</event>
<event>
 4    1  0.5455400E-005  0.7765150E+03  0.7818608E-02  0.9594647E-01
         -2   -1    0    0    0  501 -0.00000000000E+00  0.00000000000E+00  0.54728430938E+02  0.54728430997E+02  0.25500000000E-02 0. -1.
          2   -1    0    0  501    0  0.00000000000E+00 -0.00000000000E+00 -0.27543984498E+04  0.27543984498E+04  0.25500000000E-02 0.  1.
    5000001    1    1    2    0    0 -0.11701287939E+03  0.24896791423E+03 -0.20569165006E+04  0.20840936943E+04  0.19200000000E+03 0.  0.
   -5000001    1    1    2    0    0  0.11701287939E+03 -0.24896791423E+03 -0.64275351826E+03  0.72503318648E+03  0.19200000000E+03 0.  0.
<mgrwt>
<rscale>  0 0.77651505E+03</rscale>
<asrwt>0</asrwt>
<pdfrwt beam="1">  1        2 0.39348541E+00 0.77651505E+03</pdfrwt>
<pdfrwt beam="2">  1       -2 0.78183490E-02 0.77651505E+03</pdfrwt>
<totfact> 0.34122306E+02</totfact>
</mgrwt>
</event>
<event>
 4    1  0.5455400E-005  0.3954833E+03  0.7818608E-02  0.1045355E+00
         -2   -1    0    0    0  501 -0.00000000000E+00  0.00000000000E+00  0.45581046687E+02  0.45581046758E+02  0.25500000000E-02 0. -1.
          2   -1    0    0  501    0  0.00000000000E+00 -0.00000000000E+00 -0.85785151022E+03  0.85785151022E+03  0.25500000000E-02 0.  1.
    5000001    1    1    2    0    0 -0.31794988692E+02  0.30859554651E+02 -0.36828509405E+03  0.41768546051E+03  0.19200000000E+03 0.  0.
   -5000001    1    1    2    0    0  0.31794988692E+02 -0.30859554651E+02 -0.44398536948E+03  0.48574709647E+03  0.19200000000E+03 0.  0.
<mgrwt>
<rscale>  0 0.39548335E+03</rscale>
<asrwt>0</asrwt>
<pdfrwt beam="1">  1        2 0.12255021E+00 0.39548335E+03</pdfrwt>
<pdfrwt beam="2">  1       -2 0.65115786E-02 0.39548335E+03</pdfrwt>
<totfact> 0.46821294E+03</totfact>
</mgrwt>
</event>
<event>
 4    1  0.5455400E-005  0.6949835E+03  0.7818608E-02  0.9725850E-01
         -2   -1    0    0    0  501 -0.00000000000E+00  0.00000000000E+00  0.54323436040E+02  0.54323436100E+02  0.25500000000E-02 0. -1.
          2   -1    0    0  501    0  0.00000000000E+00 -0.00000000000E+00 -0.22228068096E+04  0.22228068096E+04  0.25500000000E-02 0.  1.
    5000001    1    1    2    0    0 -0.28662883918E+03 -0.19758838266E+02 -0.96430118046E+03  0.10243472408E+04  0.19200000000E+03 0.  0.
   -5000001    1    1    2    0    0  0.28662883918E+03  0.19758838266E+02 -0.12041821931E+04  0.12527830049E+04  0.19200000000E+03 0.  0.
<mgrwt>
<rscale>  0 0.69498346E+03</rscale>
<asrwt>0</asrwt>
<pdfrwt beam="1">  1        2 0.31754377E+00 0.69498346E+03</pdfrwt>
<pdfrwt beam="2">  1       -2 0.77604923E-02 0.69498346E+03</pdfrwt>
<totfact> 0.65419733E+02</totfact>
</mgrwt>
</event>
<event>
 4    1  0.5455400E-005  0.7644177E+03  0.7818608E-02  0.9612999E-01
         -2   -1    0    0    0  501 -0.00000000000E+00  0.00000000000E+00  0.11748991552E+03  0.11748991555E+03  0.25500000000E-02 0. -1.
          2   -1    0    0  501    0  0.00000000000E+00 -0.00000000000E+00 -0.12433714190E+04  0.12433714190E+04  0.25500000000E-02 0.  1.
    5000001    1    1    2    0    0 -0.31890819523E+03  0.23414489134E+02 -0.41432456178E+03  0.55747602440E+03  0.19200000000E+03 0.  0.
   -5000001    1    1    2    0    0  0.31890819523E+03 -0.23414489134E+02 -0.71155694165E+03  0.80338531010E+03  0.19200000000E+03 0.  0.
<mgrwt>
<rscale>  0 0.76441769E+03</rscale>
<asrwt>0</asrwt>
<pdfrwt beam="1">  1        2 0.17762448E+00 0.76441769E+03</pdfrwt>
<pdfrwt beam="2">  1       -2 0.16784274E-01 0.76441769E+03</pdfrwt>
<totfact> 0.58721868E+02</totfact>
</mgrwt>
</event>
<event>
 4    1  0.5455400E-005  0.6067010E+03  0.7818608E-02  0.9891600E-01
         -2   -1    0    0    0  501 -0.00000000000E+00  0.00000000000E+00  0.36950996313E+02  0.36950996401E+02  0.25500000000E-02 0. -1.
          2   -1    0    0  501    0  0.00000000000E+00 -0.00000000000E+00 -0.24903664829E+04  0.24903664829E+04  0.25500000000E-02 0.  1.
    5000001    1    1    2    0    0 -0.14885126836E+03  0.12910995672E+03 -0.69435761703E+03  0.74687521136E+03  0.19200000000E+03 0.  0.
   -5000001    1    1    2    0    0  0.14885126836E+03 -0.12910995672E+03 -0.17590578696E+04  0.17804422679E+04  0.19200000000E+03 0.  0.
<mgrwt>
<rscale>  0 0.60670099E+03</rscale>
<asrwt>0</asrwt>
<pdfrwt beam="1">  1        2 0.35576653E+00 0.60670099E+03</pdfrwt>
<pdfrwt beam="2">  1       -2 0.52787153E-02 0.60670099E+03</pdfrwt>
<totfact> 0.88250965E+02</totfact>
</mgrwt>
</event>
<event>
 4    1  0.5455400E-005  0.4584602E+03  0.7818608E-02  0.1025229E+00
          2   -1    0    0  501    0  0.00000000000E+00  0.00000000000E+00  0.69698392138E+03  0.69698392139E+03  0.25500000000E-02 0.  1.
         -2   -1    0    0    0  501 -0.00000000000E+00 -0.00000000000E+00 -0.75391185323E+02  0.75391185366E+02  0.25500000000E-02 0. -1.
    5000001    1    1    2    0    0  0.95100221826E+02  0.38021041231E+02  0.43219871436E+03  0.48388984331E+03  0.19200000000E+03 0.  0.
   -5000001    1    1    2    0    0 -0.95100221826E+02 -0.38021041231E+02  0.18939402170E+03  0.28848526345E+03  0.19200000000E+03 0.  0.
<mgrwt>
<rscale>  0 0.45846022E+03</rscale>
<asrwt>0</asrwt>
<pdfrwt beam="1">  1        2 0.99569131E-01 0.45846022E+03</pdfrwt>
<pdfrwt beam="2">  1       -2 0.10770169E-01 0.45846022E+03</pdfrwt>
<totfact> 0.27348995E+03</totfact>
</mgrwt>
</event>
<event>
 4    1  0.5455400E-005  0.4586174E+03  0.7818608E-02  0.1025183E+00
         -2   -1    0    0    0  501 -0.00000000000E+00  0.00000000000E+00  0.16166543552E+02  0.16166543754E+02  0.25500000000E-02 0. -1.
          2   -1    0    0  501    0  0.00000000000E+00 -0.00000000000E+00 -0.32525494274E+04  0.32525494274E+04  0.25500000000E-02 0.  1.
    5000001    1    1    2    0    0 -0.68935805204E+02  0.52016384794E+02 -0.22659800486E+04  0.22757388757E+04  0.19200000000E+03 0.  0.
   -5000001    1    1    2    0    0  0.68935805204E+02 -0.52016384794E+02 -0.97040283527E+03  0.99297709552E+03  0.19200000000E+03 0.  0.
<mgrwt>
<rscale>  0 0.45861741E+03</rscale>
<asrwt>0</asrwt>
<pdfrwt beam="1">  1        2 0.46464950E+00 0.45861741E+03</pdfrwt>
<pdfrwt beam="2">  1       -2 0.23095083E-02 0.45861741E+03</pdfrwt>
<totfact> 0.12354657E+03</totfact>
</mgrwt>
</event>
<event>
 4    1  0.5455400E-005  0.6559532E+03  0.7818608E-02  0.9795672E-01
         -2   -1    0    0    0  501 -0.00000000000E+00  0.00000000000E+00  0.11827257735E+03  0.11827257737E+03  0.25500000000E-02 0. -1.
          2   -1    0    0  501    0  0.00000000000E+00 -0.00000000000E+00 -0.90949786854E+03  0.90949786854E+03  0.25500000000E-02 0.  1.
    5000001    1    1    2    0    0  0.26584577662E+03 -0.14661974979E+00 -0.40428824012E+03  0.52056409744E+03  0.19200000000E+03 0.  0.
   -5000001    1    1    2    0    0 -0.26584577662E+03  0.14661974979E+00 -0.38693705107E+03  0.50720634847E+03  0.19200000000E+03 0.  0.
<mgrwt>
<rscale>  0 0.65595322E+03</rscale>
<asrwt>0</asrwt>
<pdfrwt beam="1">  1        2 0.12992826E+00 0.65595322E+03</pdfrwt>
<pdfrwt beam="2">  1       -2 0.16896083E-01 0.65595322E+03</pdfrwt>
<totfact> 0.92023695E+02</totfact>
</mgrwt>
</event>
<event>
 4    1  0.5455400E-005  0.5394757E+03  0.7818608E-02  0.1003960E+00
          2   -1    0    0  501    0  0.00000000000E+00  0.00000000000E+00  0.76219713851E+03  0.76219713852E+03  0.25500000000E-02 0.  1.
         -2   -1    0    0    0  501 -0.00000000000E+00 -0.00000000000E+00 -0.95458906547E+02  0.95458906581E+02  0.25500000000E-02 0. -1.
    5000001    1    1    2    0    0 -0.99236415029E+02  0.47306572840E+02  0.57867579056E+03  0.61952840813E+03  0.19200000000E+03 0.  0.
   -5000001    1    1    2    0    0  0.99236415029E+02 -0.47306572840E+02  0.88062441409E+02  0.23812763697E+03  0.19200000000E+03 0.  0.
<mgrwt>
<rscale>  0 0.53947569E+03</rscale>
<asrwt>0</asrwt>
<pdfrwt beam="1">  1        2 0.10888530E+00 0.53947569E+03</pdfrwt>
<pdfrwt beam="2">  1       -2 0.13636987E-01 0.53947569E+03</pdfrwt>
<totfact> 0.16639237E+03</totfact>
</mgrwt>
</event>
<event>
 4    1  0.5455400E-005  0.4510226E+03  0.7818608E-02  0.1027418E+00
          2   -1    0    0  501    0  0.00000000000E+00  0.00000000000E+00  0.28437415251E+04  0.28437415251E+04  0.25500000000E-02 0.  1.
         -2   -1    0    0    0  501 -0.00000000000E+00 -0.00000000000E+00 -0.17883251613E+02  0.17883251795E+02  0.25500000000E-02 0. -1.
    5000001    1    1    2    0    0 -0.82384381334E+02 -0.52460546261E+02  0.18362741197E+04  0.18488661222E+04  0.19200000000E+03 0.  0.
   -5000001    1    1    2    0    0  0.82384381334E+02  0.52460546261E+02  0.98958415382E+03  0.10127586547E+04  0.19200000000E+03 0.  0.
<mgrwt>
<rscale>  0 0.45102260E+03</rscale>
<asrwt>0</asrwt>
<pdfrwt beam="1">  1        2 0.40624908E+00 0.45102260E+03</pdfrwt>
<pdfrwt beam="2">  1       -2 0.25547484E-02 0.45102260E+03</pdfrwt>
<totfact> 0.17727892E+03</totfact>
</mgrwt>
</event>
<event>
 4    1  0.5455400E-005  0.5791836E+03  0.7818608E-02  0.9949560E-01
         -2   -1    0    0    0  501 -0.00000000000E+00  0.00000000000E+00  0.47523781524E+02  0.47523781592E+02  0.25500000000E-02 0. -1.
          2   -1    0    0  501    0  0.00000000000E+00 -0.00000000000E+00 -0.17646619190E+04  0.17646619190E+04  0.25500000000E-02 0.  1.
    5000001    1    1    2    0    0  0.14390824391E+03  0.16158803145E+03 -0.90044594193E+03  0.94577331793E+03  0.19200000000E+03 0.  0.
   -5000001    1    1    2    0    0 -0.14390824391E+03 -0.16158803145E+03 -0.81669219558E+03  0.86641238270E+03  0.19200000000E+03 0.  0.
<mgrwt>
<rscale>  0 0.57918359E+03</rscale>
<asrwt>0</asrwt>
<pdfrwt beam="1">  1        2 0.25209452E+00 0.57918359E+03</pdfrwt>
<pdfrwt beam="2">  1       -2 0.67891127E-02 0.57918359E+03</pdfrwt>
<totfact> 0.13855463E+03</totfact>
</mgrwt>
</event>
<event>
 4    1  0.5455400E-005  0.7690896E+03  0.7818608E-02  0.9605869E-01
         -2   -1    0    0    0  501 -0.00000000000E+00  0.00000000000E+00  0.20495428127E+03  0.20495428129E+03  0.25500000000E-02 0. -1.
          2   -1    0    0  501    0  0.00000000000E+00 -0.00000000000E+00 -0.72150097355E+03  0.72150097356E+03  0.25500000000E-02 0.  1.
    5000001    1    1    2    0    0  0.27365687600E+03 -0.24467602252E+01 -0.29344156084E+02  0.33558777081E+03  0.19200000000E+03 0.  0.
   -5000001    1    1    2    0    0 -0.27365687600E+03  0.24467602252E+01 -0.48720253620E+03  0.59086748404E+03  0.19200000000E+03 0.  0.
<mgrwt>
<rscale>  0 0.76908963E+03</rscale>
<asrwt>0</asrwt>
<pdfrwt beam="1">  1        2 0.10307157E+00 0.76908963E+03</pdfrwt>
<pdfrwt beam="2">  1       -2 0.29279183E-01 0.76908963E+03</pdfrwt>
<totfact> 0.46651787E+02</totfact>
</mgrwt>
</event>
<event>
 4    1  0.5455400E-005  0.1119121E+04  0.7818608E-02  0.9186753E-01
          2   -1    0    0  501    0  0.00000000000E+00  0.00000000000E+00  0.52095366349E+03  0.52095366349E+03  0.25500000000E-02 0.  1.
         -2   -1    0    0    0  501 -0.00000000000E+00 -0.00000000000E+00 -0.60102885736E+03  0.60102885737E+03  0.25500000000E-02 0. -1.
    5000001    1    1    2    0    0 -0.16055518109E+03 -0.26173562919E+03  0.38762144618E+03  0.53046950082E+03  0.19200000000E+03 0.  0.
   -5000001    1    1    2    0    0  0.16055518109E+03  0.26173562919E+03 -0.46769664006E+03  0.59151302004E+03  0.19200000000E+03 0.  0.
<mgrwt>
<rscale>  0 0.11191214E+04</rscale>
<asrwt>0</asrwt>
<pdfrwt beam="1">  1        2 0.74421952E-01 0.11191214E+04</pdfrwt>
<pdfrwt beam="2">  1       -2 0.85861265E-01 0.11191214E+04</pdfrwt>
<totfact> 0.74870742E+01</totfact>
</mgrwt>
</event>
<event>
 4    1  0.5455400E-005  0.4154501E+03  0.7818608E-02  0.1038557E+00
         -2   -1    0    0    0  501 -0.00000000000E+00  0.00000000000E+00  0.20081778311E+02  0.20081778473E+02  0.25500000000E-02 0. -1.
          2   -1    0    0  501    0  0.00000000000E+00 -0.00000000000E+00 -0.21486988257E+04  0.21486988257E+04  0.25500000000E-02 0.  1.
    5000001    1    1    2    0    0  0.58178421719E+02  0.53464717211E+02 -0.10983363789E+04  0.11177879968E+04  0.19200000000E+03 0.  0.
   -5000001    1    1    2    0    0 -0.58178421719E+02 -0.53464717211E+02 -0.10302806686E+04  0.10509926074E+04  0.19200000000E+03 0.  0.
<mgrwt>
<rscale>  0 0.41545009E+03</rscale>
<asrwt>0</asrwt>
<pdfrwt beam="1">  1        2 0.30695683E+00 0.41545009E+03</pdfrwt>
<pdfrwt beam="2">  1       -2 0.28688268E-02 0.41545009E+03</pdfrwt>
<totfact> 0.33689991E+03</totfact>
</mgrwt>
</event>
<event>
 4    1  0.5455400E-005  0.1117697E+04  0.7818608E-02  0.9188113E-01
          2   -1    0    0  501    0  0.00000000000E+00  0.00000000000E+00  0.13470579105E+04  0.13470579105E+04  0.25500000000E-02 0. -1.
         -2   -1    0    0    0  501 -0.00000000000E+00 -0.00000000000E+00 -0.23184720399E+03  0.23184720400E+03  0.25500000000E-02 0.  1.
    5000001    1    1    2    0    0  0.42270156920E+03 -0.17659579533E+03  0.19583417590E+03  0.53392669533E+03  0.19200000000E+03 0.  0.
   -5000001    1    1    2    0    0 -0.42270156920E+03  0.17659579533E+03  0.91937653064E+03  0.10449784192E+04  0.19200000000E+03 0.  0.
<mgrwt>
<rscale>  0 0.11176969E+04</rscale>
<asrwt>0</asrwt>
<pdfrwt beam="1">  1        2 0.19243685E+00 0.11176969E+04</pdfrwt>
<pdfrwt beam="2">  1       -2 0.33121029E-01 0.11176969E+04</pdfrwt>
<totfact> 0.14902408E+02</totfact>
</mgrwt>
</event>
<event>
 4    1  0.5455400E-005  0.4945070E+03  0.7818608E-02  0.1015223E+00
          2   -1    0    0  501    0  0.00000000000E+00  0.00000000000E+00  0.16571275879E+04  0.16571275879E+04  0.25500000000E-02 0.  1.
         -2   -1    0    0    0  501 -0.00000000000E+00 -0.00000000000E+00 -0.36891730970E+02  0.36891731058E+02  0.25500000000E-02 0. -1.
    5000001    1    1    2    0    0  0.14770083299E+03 -0.36971535546E+02  0.69712914927E+03  0.73894213661E+03  0.19200000000E+03 0.  0.
   -5000001    1    1    2    0    0 -0.14770083299E+03  0.36971535546E+02  0.92310670770E+03  0.95507718238E+03  0.19200000000E+03 0.  0.
<mgrwt>
<rscale>  0 0.49450705E+03</rscale>
<asrwt>0</asrwt>
<pdfrwt beam="1">  1        2 0.23673254E+00 0.49450705E+03</pdfrwt>
<pdfrwt beam="2">  1       -2 0.52702467E-02 0.49450705E+03</pdfrwt>
<totfact> 0.23394569E+03</totfact>
</mgrwt>
</event>
<event>
 4    1  0.5455400E-005  0.1132870E+04  0.7818608E-02  0.9173734E-01
         -2   -1    0    0    0  501 -0.00000000000E+00  0.00000000000E+00  0.16304590007E+03  0.16304590009E+03  0.25500000000E-02 0. -1.
          2   -1    0    0  501    0  0.00000000000E+00 -0.00000000000E+00 -0.19678410707E+04  0.19678410707E+04  0.25500000000E-02 0.  1.
    5000001    1    1    2    0    0  0.27504444536E+03  0.45630584554E+03 -0.92299796035E+03  0.10828913641E+04  0.19200000000E+03 0.  0.
   -5000001    1    1    2    0    0 -0.27504444536E+03 -0.45630584554E+03 -0.88179721025E+03  0.10479956067E+04  0.19200000000E+03 0.  0.
<mgrwt>
<rscale>  0 0.11328697E+04</rscale>
<asrwt>0</asrwt>
<pdfrwt beam="1">  1        2 0.28112014E+00 0.11328697E+04</pdfrwt>
<pdfrwt beam="2">  1       -2 0.23292273E-01 0.11328697E+04</pdfrwt>
<totfact> 0.13470102E+02</totfact>
</mgrwt>
</event>
<event>
 4    1  0.5455400E-005  0.4751521E+03  0.7818608E-02  0.1020476E+00
         -2   -1    0    0    0  501 -0.00000000000E+00  0.00000000000E+00  0.19793868264E+02  0.19793868428E+02  0.25500000000E-02 0. -1.
          2   -1    0    0  501    0  0.00000000000E+00 -0.00000000000E+00 -0.28515077285E+04  0.28515077285E+04  0.25500000000E-02 0.  1.
    5000001    1    1    2    0    0  0.80508354180E+02 -0.37256054919E+02 -0.76197151450E+03  0.79078075193E+03  0.19200000000E+03 0.  0.
   -5000001    1    1    2    0    0 -0.80508354180E+02  0.37256054919E+02 -0.20697423457E+04  0.20805208450E+04  0.19200000000E+03 0.  0.
<mgrwt>
<rscale>  0 0.47515205E+03</rscale>
<asrwt>0</asrwt>
<pdfrwt beam="1">  1        2 0.40735799E+00 0.47515205E+03</pdfrwt>
<pdfrwt beam="2">  1       -2 0.28276973E-02 0.47515205E+03</pdfrwt>
<totfact> 0.15043142E+03</totfact>
</mgrwt>
</event>
<event>
 4    1  0.5455400E-005  0.6021721E+03  0.7818608E-02  0.9900910E-01
         -2   -1    0    0    0  501 -0.00000000000E+00  0.00000000000E+00  0.57977711767E+02  0.57977711823E+02  0.25500000000E-02 0. -1.
          2   -1    0    0  501    0  0.00000000000E+00 -0.00000000000E+00 -0.15635801588E+04  0.15635801588E+04  0.25500000000E-02 0.  1.
    5000001    1    1    2    0    0 -0.12701921229E+03  0.19386833851E+03 -0.77532909028E+03  0.83169586461E+03  0.19200000000E+03 0.  0.
   -5000001    1    1    2    0    0  0.12701921229E+03 -0.19386833851E+03 -0.73027335677E+03  0.78986200604E+03  0.19200000000E+03 0.  0.
<mgrwt>
<rscale>  0 0.60217207E+03</rscale>
<asrwt>0</asrwt>
<pdfrwt beam="1">  1        2 0.22336857E+00 0.60217207E+03</pdfrwt>
<pdfrwt beam="2">  1       -2 0.82825312E-02 0.60217207E+03</pdfrwt>
<totfact> 0.12788550E+03</totfact>
</mgrwt>
</event>
<event>
 4    1  0.5455400E-005  0.1659269E+04  0.7818608E-02  0.8784942E-01
         -2   -1    0    0    0  501 -0.00000000000E+00  0.00000000000E+00  0.16583704722E+03  0.16583704724E+03  0.25500000000E-02 0. -1.
          2   -1    0    0  501    0  0.00000000000E+00 -0.00000000000E+00 -0.41504217582E+04  0.41504217582E+04  0.25500000000E-02 0.  1.
    5000001    1    1    2    0    0 -0.62894300621E+03  0.28492902213E+03 -0.30794862471E+04  0.31617800997E+04  0.19200000000E+03 0.  0.
   -5000001    1    1    2    0    0  0.62894300621E+03 -0.28492902213E+03 -0.90509846388E+03  0.11544787058E+04  0.19200000000E+03 0.  0.
<mgrwt>
<rscale>  0 0.16592693E+04</rscale>
<asrwt>0</asrwt>
<pdfrwt beam="1">  1        2 0.59291733E+00 0.16592693E+04</pdfrwt>
<pdfrwt beam="2">  1       -2 0.23691009E-01 0.16592693E+04</pdfrwt>
<totfact> 0.68579654E+00</totfact>
</mgrwt>
</event>
<event>
 4    1  0.5455400E-005  0.6987191E+03  0.7818608E-02  0.9719425E-01
         -2   -1    0    0    0  501 -0.00000000000E+00  0.00000000000E+00  0.29366956657E+03  0.29366956658E+03  0.25500000000E-02 0.  1.
          2   -1    0    0  501    0  0.00000000000E+00 -0.00000000000E+00 -0.41561028621E+03  0.41561028622E+03  0.25500000000E-02 0. -1.
    5000001    1    1    2    0    0  0.10018147840E+03  0.27383534501E+03 -0.74047927336E+02  0.35688824628E+03  0.19200000000E+03 0.  0.
   -5000001    1    1    2    0    0 -0.10018147840E+03 -0.27383534501E+03 -0.47892792305E+02  0.35239160652E+03  0.19200000000E+03 0.  0.
<mgrwt>
<rscale>  0 0.69871909E+03</rscale>
<asrwt>0</asrwt>
<pdfrwt beam="1">  1        2 0.59372898E-01 0.69871909E+03</pdfrwt>
<pdfrwt beam="2">  1       -2 0.41952795E-01 0.69871909E+03</pdfrwt>
<totfact> 0.44914389E+02</totfact>
</mgrwt>
</event>
<event>
 4    1  0.5455400E-005  0.6513933E+03  0.7818608E-02  0.9804168E-01
          2   -1    0    0  501    0  0.00000000000E+00  0.00000000000E+00  0.20050556717E+04  0.20050556717E+04  0.25500000000E-02 0.  1.
         -2   -1    0    0    0  501 -0.00000000000E+00 -0.00000000000E+00 -0.52905411504E+02  0.52905411565E+02  0.25500000000E-02 0. -1.
    5000001    1    1    2    0    0 -0.18147822007E+03 -0.15085196556E+03  0.60867388335E+03  0.68046936459E+03  0.19200000000E+03 0.  0.
   -5000001    1    1    2    0    0  0.18147822007E+03  0.15085196556E+03  0.13434763769E+04  0.13774917187E+04  0.19200000000E+03 0.  0.
<mgrwt>
<rscale>  0 0.65139326E+03</rscale>
<asrwt>0</asrwt>
<pdfrwt beam="1">  1        2 0.28643653E+00 0.65139326E+03</pdfrwt>
<pdfrwt beam="2">  1       -2 0.75579158E-02 0.65139326E+03</pdfrwt>
<totfact> 0.88127890E+02</totfact>
</mgrwt>
</event>
<event>
 4    1  0.5455400E-005  0.8376288E+03  0.7818608E-02  0.9507093E-01
          2   -1    0    0  501    0  0.00000000000E+00  0.00000000000E+00  0.11019676777E+04  0.11019676777E+04  0.25500000000E-02 0.  1.
         -2   -1    0    0    0  501 -0.00000000000E+00 -0.00000000000E+00 -0.15917483089E+03  0.15917483091E+03  0.25500000000E-02 0. -1.
    5000001    1    1    2    0    0 -0.33009894037E+03  0.21773293051E+02  0.72824368837E+03  0.82258267449E+03  0.19200000000E+03 0.  0.
   -5000001    1    1    2    0    0  0.33009894037E+03 -0.21773293051E+02  0.21454915848E+03  0.43855983415E+03  0.19200000000E+03 0.  0.
<mgrwt>
<rscale>  0 0.83762884E+03</rscale>
<asrwt>0</asrwt>
<pdfrwt beam="1">  1        2 0.15742395E+00 0.83762884E+03</pdfrwt>
<pdfrwt beam="2">  1       -2 0.22739262E-01 0.83762884E+03</pdfrwt>
<totfact> 0.41498064E+02</totfact>
</mgrwt>
</event>
<event>
 4    1  0.5455400E-005  0.4366306E+03  0.7818608E-02  0.1031786E+00
         -2   -1    0    0    0  501 -0.00000000000E+00  0.00000000000E+00  0.53970003693E+02  0.53970003754E+02  0.25500000000E-02 0. -1.
          2   -1    0    0  501    0  0.00000000000E+00 -0.00000000000E+00 -0.88311221417E+03  0.88311221418E+03  0.25500000000E-02 0.  1.
    5000001    1    1    2    0    0 -0.92713150923E+02 -0.41994975406E+02 -0.45950054702E+03  0.50829524789E+03  0.19200000000E+03 0.  0.
   -5000001    1    1    2    0    0  0.92713150923E+02  0.41994975406E+02 -0.36964166346E+03  0.42878697004E+03  0.19200000000E+03 0.  0.
<mgrwt>
<rscale>  0 0.43663060E+03</rscale>
<asrwt>0</asrwt>
<pdfrwt beam="1">  1        2 0.12615888E+00 0.43663060E+03</pdfrwt>
<pdfrwt beam="2">  1       -2 0.77100011E-02 0.43663060E+03</pdfrwt>
<totfact> 0.34639659E+03</totfact>
</mgrwt>
</event>
<event>
 4    1  0.5455400E-005  0.6843859E+03  0.7818608E-02  0.9744313E-01
          2   -1    0    0  501    0  0.00000000000E+00  0.00000000000E+00  0.18968059345E+04  0.18968059345E+04  0.25500000000E-02 0.  1.
         -2   -1    0    0    0  501 -0.00000000000E+00 -0.00000000000E+00 -0.61733263809E+02  0.61733263861E+02  0.25500000000E-02 0. -1.
    5000001    1    1    2    0    0  0.52214049104E+02  0.27138095935E+03  0.10952894969E+04  0.11458171818E+04  0.19200000000E+03 0.  0.
   -5000001    1    1    2    0    0 -0.52214049104E+02 -0.27138095935E+03  0.73978317370E+03  0.81272201651E+03  0.19200000000E+03 0.  0.
<mgrwt>
<rscale>  0 0.68438592E+03</rscale>
<asrwt>0</asrwt>
<pdfrwt beam="1">  1        2 0.27097229E+00 0.68438592E+03</pdfrwt>
<pdfrwt beam="2">  1       -2 0.88190371E-02 0.68438592E+03</pdfrwt>
<totfact> 0.77922977E+02</totfact>
</mgrwt>
</event>
<event>
 4    1  0.5455400E-005  0.7616784E+03  0.7818608E-02  0.9617205E-01
          2   -1    0    0  501    0  0.00000000000E+00  0.00000000000E+00  0.33909194008E+04  0.33909194008E+04  0.25500000000E-02 0.  1.
         -2   -1    0    0    0  501 -0.00000000000E+00 -0.00000000000E+00 -0.42772622232E+02  0.42772622308E+02  0.25500000000E-02 0. -1.
    5000001    1    1    2    0    0 -0.44659944575E+02 -0.29993830845E+03  0.22481569799E+04  0.22766271776E+04  0.19200000000E+03 0.  0.
   -5000001    1    1    2    0    0  0.44659944575E+02  0.29993830845E+03  0.10999897986E+04  0.11570648454E+04  0.19200000000E+03 0.  0.
<mgrwt>
<rscale>  0 0.76167845E+03</rscale>
<asrwt>0</asrwt>
<pdfrwt beam="1">  1        2 0.48441725E+00 0.76167845E+03</pdfrwt>
<pdfrwt beam="2">  1       -2 0.61103722E-02 0.76167845E+03</pdfrwt>
<totfact> 0.22391766E+02</totfact>
</mgrwt>
</event>
<event>
 4    1  0.5455400E-005  0.6245700E+03  0.7818608E-02  0.9855703E-01
         -2   -1    0    0    0  501 -0.00000000000E+00  0.00000000000E+00  0.53252519036E+02  0.53252519097E+02  0.25500000000E-02 0. -1.
          2   -1    0    0  501    0  0.00000000000E+00 -0.00000000000E+00 -0.18313107916E+04  0.18313107916E+04  0.25500000000E-02 0.  1.
    5000001    1    1    2    0    0  0.18394204822E+03  0.48186901337E+02 -0.41672274240E+03  0.49666739233E+03  0.19200000000E+03 0.  0.
   -5000001    1    1    2    0    0 -0.18394204822E+03 -0.48186901337E+02 -0.13613355302E+04  0.13878959184E+04  0.19200000000E+03 0.  0.
<mgrwt>
<rscale>  0 0.62456997E+03</rscale>
<asrwt>0</asrwt>
<pdfrwt beam="1">  1        2 0.26161579E+00 0.62456997E+03</pdfrwt>
<pdfrwt beam="2">  1       -2 0.76075039E-02 0.62456997E+03</pdfrwt>
<totfact> 0.10685223E+03</totfact>
</mgrwt>
</event>
<event>
 4    1  0.5455400E-005  0.7698559E+03  0.7818608E-02  0.9604704E-01
          2   -1    0    0  501    0  0.00000000000E+00  0.00000000000E+00  0.20290181897E+04  0.20290181897E+04  0.25500000000E-02 0.  1.
         -2   -1    0    0    0  501 -0.00000000000E+00 -0.00000000000E+00 -0.73025229381E+02  0.73025229426E+02  0.25500000000E-02 0. -1.
    5000001    1    1    2    0    0 -0.29134065124E+03 -0.10313026551E+03  0.63489125440E+03  0.73175551357E+03  0.19200000000E+03 0.  0.
   -5000001    1    1    2    0    0  0.29134065124E+03  0.10313026551E+03  0.13211017060E+04  0.13702879056E+04  0.19200000000E+03 0.  0.
<mgrwt>
<rscale>  0 0.76985588E+03</rscale>
<asrwt>0</asrwt>
<pdfrwt beam="1">  1        2 0.28985969E+00 0.76985588E+03</pdfrwt>
<pdfrwt beam="2">  1       -2 0.10432178E-01 0.76985588E+03</pdfrwt>
<totfact> 0.50610966E+02</totfact>
</mgrwt>
</event>
<event>
 4    1  0.5455400E-005  0.9982222E+03  0.7818608E-02  0.9310497E-01
         -2   -1    0    0    0  501 -0.00000000000E+00  0.00000000000E+00  0.21116751898E+03  0.21116751900E+03  0.25500000000E-02 0. -1.
          2   -1    0    0  501    0  0.00000000000E+00 -0.00000000000E+00 -0.11796883878E+04  0.11796883878E+04  0.25500000000E-02 0.  1.
    5000001    1    1    2    0    0 -0.43770328052E+03  0.14089268203E+03 -0.44453308108E+03  0.66776385781E+03  0.19200000000E+03 0.  0.
   -5000001    1    1    2    0    0  0.43770328052E+03 -0.14089268203E+03 -0.52398778777E+03  0.72309204902E+03  0.19200000000E+03 0.  0.
<mgrwt>
<rscale>  0 0.99822216E+03</rscale>
<asrwt>0</asrwt>
<pdfrwt beam="1">  1        2 0.16852691E+00 0.99822216E+03</pdfrwt>
<pdfrwt beam="2">  1       -2 0.30166789E-01 0.99822216E+03</pdfrwt>
<totfact> 0.22181729E+02</totfact>
</mgrwt>
</event>
<event>
 4    1  0.5455400E-005  0.4955771E+03  0.7818608E-02  0.1014940E+00
          2   -1    0    0  501    0  0.00000000000E+00  0.00000000000E+00  0.24377723062E+04  0.24377723062E+04  0.25500000000E-02 0.  1.
         -2   -1    0    0    0  501 -0.00000000000E+00 -0.00000000000E+00 -0.25186585586E+02  0.25186585715E+02  0.25500000000E-02 0. -1.
    5000001    1    1    2    0    0  0.79218372503E+02 -0.12622110169E+03  0.14460783395E+04  0.14663607609E+04  0.19200000000E+03 0.  0.
   -5000001    1    1    2    0    0 -0.79218372503E+02  0.12622110169E+03  0.96650738113E+03  0.99659813106E+03  0.19200000000E+03 0.  0.
<mgrwt>
<rscale>  0 0.49557708E+03</rscale>
<asrwt>0</asrwt>
<pdfrwt beam="1">  1        2 0.34825323E+00 0.49557708E+03</pdfrwt>
<pdfrwt beam="2">  1       -2 0.35980832E-02 0.49557708E+03</pdfrwt>
<totfact> 0.17061881E+03</totfact>
</mgrwt>
</event>
<event>
 4    1  0.5455400E-005  0.5542362E+03  0.7818608E-02  0.1000518E+00
          2   -1    0    0  501    0  0.00000000000E+00  0.00000000000E+00  0.21094141952E+04  0.21094141952E+04  0.25500000000E-02 0.  1.
         -2   -1    0    0    0  501 -0.00000000000E+00 -0.00000000000E+00 -0.36405582731E+02  0.36405582820E+02  0.25500000000E-02 0. -1.
    5000001    1    1    2    0    0  0.49369782867E+02 -0.19269395451E+03  0.11101798069E+04  0.11440854598E+04  0.19200000000E+03 0.  0.
   -5000001    1    1    2    0    0 -0.49369782867E+02  0.19269395451E+03  0.96282880551E+03  0.10017343182E+04  0.19200000000E+03 0.  0.
<mgrwt>
<rscale>  0 0.55423624E+03</rscale>
<asrwt>0</asrwt>
<pdfrwt beam="1">  1        2 0.30134490E+00 0.55423624E+03</pdfrwt>
<pdfrwt beam="2">  1       -2 0.52007974E-02 0.55423624E+03</pdfrwt>
<totfact> 0.14125333E+03</totfact>
</mgrwt>
</event>
<event>
 4    1  0.5455400E-005  0.5378045E+03  0.7818608E-02  0.1004357E+00
         -2   -1    0    0    0  501 -0.00000000000E+00  0.00000000000E+00  0.10786702865E+03  0.10786702868E+03  0.25500000000E-02 0. -1.
          2   -1    0    0  501    0  0.00000000000E+00 -0.00000000000E+00 -0.67034782217E+03  0.67034782218E+03  0.25500000000E-02 0.  1.
    5000001    1    1    2    0    0 -0.30844929480E+02 -0.18232407914E+03 -0.33241974260E+03  0.42609900819E+03  0.19200000000E+03 0.  0.
   -5000001    1    1    2    0    0  0.30844929480E+02  0.18232407914E+03 -0.23006105092E+03  0.35211584267E+03  0.19200000000E+03 0.  0.
<mgrwt>
<rscale>  0 0.53780453E+03</rscale>
<asrwt>0</asrwt>
<pdfrwt beam="1">  1        2 0.95763972E-01 0.53780453E+03</pdfrwt>
<pdfrwt beam="2">  1       -2 0.15409576E-01 0.53780453E+03</pdfrwt>
<totfact> 0.15876399E+03</totfact>
</mgrwt>
</event>
<event>
 4    1  0.5455400E-005  0.6887691E+03  0.7818608E-02  0.9736634E-01
          2   -1    0    0  501    0  0.00000000000E+00  0.00000000000E+00  0.21662033363E+04  0.21662033363E+04  0.25500000000E-02 0.  1.
         -2   -1    0    0    0  501 -0.00000000000E+00 -0.00000000000E+00 -0.54750494297E+02  0.54750494356E+02  0.25500000000E-02 0. -1.
    5000001    1    1    2    0    0  0.22478808773E+03  0.17570727529E+03  0.99679848153E+03  0.10544543346E+04  0.19200000000E+03 0.  0.
   -5000001    1    1    2    0    0 -0.22478808773E+03 -0.17570727529E+03  0.11146543604E+04  0.11664994960E+04  0.19200000000E+03 0.  0.
<mgrwt>
<rscale>  0 0.68876906E+03</rscale>
<asrwt>0</asrwt>
<pdfrwt beam="1">  1        2 0.30945748E+00 0.68876906E+03</pdfrwt>
<pdfrwt beam="2">  1       -2 0.78215028E-02 0.68876906E+03</pdfrwt>
<totfact> 0.69041594E+02</totfact>
</mgrwt>
</event>
<event>
 4    1  0.5455400E-005  0.4781204E+03  0.7818608E-02  0.1019653E+00
         -2   -1    0    0    0  501 -0.00000000000E+00  0.00000000000E+00  0.97856113782E+02  0.97856113815E+02  0.25500000000E-02 0.  1.
          2   -1    0    0  501    0  0.00000000000E+00 -0.00000000000E+00 -0.58401856676E+03  0.58401856677E+03  0.25500000000E-02 0. -1.
    5000001    1    1    2    0    0  0.54054179014E+02  0.12363958632E+03 -0.17808248801E+03  0.29459459280E+03  0.19200000000E+03 0.  0.
   -5000001    1    1    2    0    0 -0.54054179014E+02 -0.12363958632E+03 -0.30807996498E+03  0.38728008778E+03  0.19200000000E+03 0.  0.
<mgrwt>
<rscale>  0 0.47812043E+03</rscale>
<asrwt>0</asrwt>
<pdfrwt beam="1">  1        2 0.83431222E-01 0.47812043E+03</pdfrwt>
<pdfrwt beam="2">  1       -2 0.13979445E-01 0.47812043E+03</pdfrwt>
<totfact> 0.21986372E+03</totfact>
</mgrwt>
</event>
<event>
 4    1  0.5455400E-005  0.4715094E+03  0.7818608E-02  0.1021495E+00
          2   -1    0    0  501    0  0.00000000000E+00  0.00000000000E+00  0.10145230925E+04  0.10145230925E+04  0.25500000000E-02 0.  1.
         -2   -1    0    0    0  501 -0.00000000000E+00 -0.00000000000E+00 -0.54784629795E+02  0.54784629854E+02  0.25500000000E-02 0. -1.
    5000001    1    1    2    0    0 -0.64411153382E+02  0.11487549071E+03  0.39589491662E+03  0.45928418224E+03  0.19200000000E+03 0.  0.
   -5000001    1    1    2    0    0  0.64411153382E+02 -0.11487549071E+03  0.56384354612E+03  0.61002354016E+03  0.19200000000E+03 0.  0.
<mgrwt>
<rscale>  0 0.47150937E+03</rscale>
<asrwt>0</asrwt>
<pdfrwt beam="1">  1        2 0.14493188E+00 0.47150937E+03</pdfrwt>
<pdfrwt beam="2">  1       -2 0.78263751E-02 0.47150937E+03</pdfrwt>
<totfact> 0.28048885E+03</totfact>
</mgrwt>
</event>
<event>
 4    1  0.5455400E-005  0.4567560E+03  0.7818608E-02  0.1025726E+00
          2   -1    0    0  501    0  0.00000000000E+00  0.00000000000E+00  0.37745434567E+03  0.37745434568E+03  0.25500000000E-02 0.  1.
         -2   -1    0    0    0  501 -0.00000000000E+00 -0.00000000000E+00 -0.13817966860E+03  0.13817966863E+03  0.25500000000E-02 0. -1.
    5000001    1    1    2    0    0 -0.78577124911E+02  0.83351320552E+02  0.67040686737E+02  0.23341007021E+03  0.19200000000E+03 0.  0.
   -5000001    1    1    2    0    0  0.78577124911E+02 -0.83351320552E+02  0.17223399033E+03  0.28222394410E+03  0.19200000000E+03 0.  0.
<mgrwt>
<rscale>  0 0.45675602E+03</rscale>
<asrwt>0</asrwt>
<pdfrwt beam="1">  1        2 0.53922049E-01 0.45675602E+03</pdfrwt>
<pdfrwt beam="2">  1       -2 0.19739953E-01 0.45675602E+03</pdfrwt>
<totfact> 0.19997691E+03</totfact>
</mgrwt>
</event>
<event>
 4    1  0.5455400E-005  0.5618691E+03  0.7818608E-02  0.9987834E-01
          2   -1    0    0  501    0  0.00000000000E+00  0.00000000000E+00  0.29853460634E+03  0.29853460636E+03  0.25500000000E-02 0.  1.
         -2   -1    0    0    0  501 -0.00000000000E+00 -0.00000000000E+00 -0.26437209619E+03  0.26437209620E+03  0.25500000000E-02 0. -1.
    5000001    1    1    2    0    0 -0.99842642147E+02 -0.17889156844E+03  0.26557751650E+02  0.28202847484E+03  0.19200000000E+03 0.  0.
   -5000001    1    1    2    0    0  0.99842642147E+02  0.17889156844E+03  0.76047585093E+01  0.28087822771E+03  0.19200000000E+03 0.  0.
<mgrwt>
<rscale>  0 0.56186909E+03</rscale>
<asrwt>0</asrwt>
<pdfrwt beam="1">  1        2 0.42647801E-01 0.56186909E+03</pdfrwt>
<pdfrwt beam="2">  1       -2 0.37767442E-01 0.56186909E+03</pdfrwt>
<totfact> 0.79661320E+02</totfact>
</mgrwt>
</event>
<event>
 4    1  0.5455400E-005  0.6061045E+03  0.7818608E-02  0.9892822E-01
         -2   -1    0    0    0  501 -0.00000000000E+00  0.00000000000E+00  0.81381537340E+02  0.81381537380E+02  0.25500000000E-02 0. -1.
          2   -1    0    0  501    0  0.00000000000E+00 -0.00000000000E+00 -0.11285196251E+04  0.11285196251E+04  0.25500000000E-02 0.  1.
    5000001    1    1    2    0    0 -0.43781296114E+02  0.16366885608E+03 -0.20001116046E+03  0.32491962183E+03  0.19200000000E+03 0.  0.
   -5000001    1    1    2    0    0  0.43781296114E+02 -0.16366885608E+03 -0.84712692735E+03  0.88498154070E+03  0.19200000000E+03 0.  0.
<mgrwt>
<rscale>  0 0.60610449E+03</rscale>
<asrwt>0</asrwt>
<pdfrwt beam="1">  1        2 0.16121708E+00 0.60610449E+03</pdfrwt>
<pdfrwt beam="2">  1       -2 0.11625935E-01 0.60610449E+03</pdfrwt>
<totfact> 0.12689474E+03</totfact>
</mgrwt>
</event>
<event>
 4    1  0.5455400E-005  0.5879544E+03  0.7818608E-02  0.9930717E-01
         -2   -1    0    0    0  501 -0.00000000000E+00  0.00000000000E+00  0.85369499690E+02  0.85369499728E+02  0.25500000000E-02 0. -1.
          2   -1    0    0  501    0  0.00000000000E+00 -0.00000000000E+00 -0.10123358692E+04  0.10123358692E+04  0.25500000000E-02 0.  1.
    5000001    1    1    2    0    0  0.17817149437E+03  0.57353156749E+02 -0.68848568072E+03  0.73885790146E+03  0.19200000000E+03 0.  0.
   -5000001    1    1    2    0    0 -0.17817149437E+03 -0.57353156749E+02 -0.23848068883E+03  0.35884746751E+03  0.19200000000E+03 0.  0.
<mgrwt>
<rscale>  0 0.58795444E+03</rscale>
<asrwt>0</asrwt>
<pdfrwt beam="1">  1        2 0.14461940E+00 0.58795444E+03</pdfrwt>
<pdfrwt beam="2">  1       -2 0.12195643E-01 0.58795444E+03</pdfrwt>
<totfact> 0.13738324E+03</totfact>
</mgrwt>
</event>
<event>
 4    1  0.5455400E-005  0.5417826E+03  0.7818608E-02  0.1003414E+00
         -2   -1    0    0    0  501 -0.00000000000E+00  0.00000000000E+00  0.42285538846E+03  0.42285538846E+03  0.25500000000E-02 0. -1.
          2   -1    0    0  501    0  0.00000000000E+00 -0.00000000000E+00 -0.17353944999E+03  0.17353945000E+03  0.25500000000E-02 0.  1.
    5000001    1    1    2    0    0  0.65037403838E+02  0.17921529279E+03  0.11030078537E+03  0.29219556520E+03  0.19200000000E+03 0.  0.
   -5000001    1    1    2    0    0 -0.65037403838E+02 -0.17921529279E+03  0.13901515311E+03  0.30419927327E+03  0.19200000000E+03 0.  0.
<mgrwt>
<rscale>  0 0.54178258E+03</rscale>
<asrwt>0</asrwt>
<pdfrwt beam="1">  1        2 0.24791350E-01 0.54178258E+03</pdfrwt>
<pdfrwt beam="2">  1       -2 0.60407912E-01 0.54178258E+03</pdfrwt>
<totfact> 0.56916974E+02</totfact>
</mgrwt>
</event>
<event>
 4    1  0.5455400E-005  0.1133171E+04  0.7818608E-02  0.9173451E-01
          2   -1    0    0  501    0  0.00000000000E+00  0.00000000000E+00  0.45612256402E+03  0.45612256403E+03  0.25500000000E-02 0.  1.
         -2   -1    0    0    0  501 -0.00000000000E+00 -0.00000000000E+00 -0.70380009453E+03  0.70380009454E+03  0.25500000000E-02 0. -1.
    5000001    1    1    2    0    0 -0.38923372701E+03 -0.34742491197E+03 -0.11950703990E+02  0.55606994437E+03  0.19200000000E+03 0.  0.
   -5000001    1    1    2    0    0  0.38923372701E+03  0.34742491197E+03 -0.23572682652E+03  0.60385271420E+03  0.19200000000E+03 0.  0.
<mgrwt>
<rscale>  0 0.11331710E+04</rscale>
<asrwt>0</asrwt>
<pdfrwt beam="1">  1        2 0.65160366E-01 0.11331710E+04</pdfrwt>
<pdfrwt beam="2">  1       -2 0.10054287E+00 0.11331710E+04</pdfrwt>
<totfact> 0.60316080E+01</totfact>
</mgrwt>
</event>
<event>
 4    1  0.5455400E-005  0.6385794E+03  0.7818608E-02  0.9828448E-01
         -2   -1    0    0    0  501 -0.00000000000E+00  0.00000000000E+00  0.61905369303E+02  0.61905369356E+02  0.25500000000E-02 0. -1.
          2   -1    0    0  501    0  0.00000000000E+00 -0.00000000000E+00 -0.16468024261E+04  0.16468024261E+04  0.25500000000E-02 0.  1.
    5000001    1    1    2    0    0  0.55226126043E+02 -0.24844594434E+03 -0.74559534797E+03  0.81089563766E+03  0.19200000000E+03 0.  0.
   -5000001    1    1    2    0    0 -0.55226126043E+02  0.24844594434E+03 -0.83930170886E+03  0.89781215783E+03  0.19200000000E+03 0.  0.
<mgrwt>
<rscale>  0 0.63857940E+03</rscale>
<asrwt>0</asrwt>
<pdfrwt beam="1">  1        2 0.23525746E+00 0.63857940E+03</pdfrwt>
<pdfrwt beam="2">  1       -2 0.88436253E-02 0.63857940E+03</pdfrwt>
<totfact> 0.10417012E+03</totfact>
</mgrwt>
</event>
<event>
 4    1  0.5455400E-005  0.8336845E+03  0.7818608E-02  0.9512500E-01
         -2   -1    0    0    0  501 -0.00000000000E+00  0.00000000000E+00  0.24015448517E+03  0.24015448518E+03  0.25500000000E-02 0. -1.
          2   -1    0    0  501    0  0.00000000000E+00 -0.00000000000E+00 -0.72352373969E+03  0.72352373970E+03  0.25500000000E-02 0.  1.
    5000001    1    1    2    0    0 -0.24298597683E+03 -0.23165117055E+03 -0.42146383262E+03  0.57201417111E+03  0.19200000000E+03 0.  0.
   -5000001    1    1    2    0    0  0.24298597683E+03  0.23165117055E+03 -0.61905421909E+02  0.39166405376E+03  0.19200000000E+03 0.  0.
<mgrwt>
<rscale>  0 0.83368452E+03</rscale>
<asrwt>0</asrwt>
<pdfrwt beam="1">  1        2 0.10336053E+00 0.83368452E+03</pdfrwt>
<pdfrwt beam="2">  1       -2 0.34307784E-01 0.83368452E+03</pdfrwt>
<totfact> 0.34468691E+02</totfact>
</mgrwt>
</event>
<event>
 4    1  0.5455400E-005  0.5258170E+03  0.7818608E-02  0.1007252E+00
          2   -1    0    0  501    0  0.00000000000E+00  0.00000000000E+00  0.22440132618E+04  0.22440132618E+04  0.25500000000E-02 0.  1.
         -2   -1    0    0    0  501 -0.00000000000E+00 -0.00000000000E+00 -0.30802348721E+02  0.30802348826E+02  0.25500000000E-02 0. -1.
    5000001    1    1    2    0    0  0.12005044622E+03 -0.80288673903E+02  0.64471881930E+03  0.68802960456E+03  0.19200000000E+03 0.  0.
   -5000001    1    1    2    0    0 -0.12005044622E+03  0.80288673903E+02  0.15684920938E+04  0.15867860061E+04  0.19200000000E+03 0.  0.
<mgrwt>
<rscale>  0 0.52581700E+03</rscale>
<asrwt>0</asrwt>
<pdfrwt beam="1">  1        2 0.32057348E+00 0.52581700E+03</pdfrwt>
<pdfrwt beam="2">  1       -2 0.44003334E-02 0.52581700E+03</pdfrwt>
<totfact> 0.15677427E+03</totfact>
</mgrwt>
</event>
<event>
 4    1  0.5455400E-005  0.5675544E+03  0.7818608E-02  0.9975105E-01
         -2   -1    0    0    0  501 -0.00000000000E+00  0.00000000000E+00  0.21139167094E+03  0.21139167095E+03  0.25500000000E-02 0.  1.
          2   -1    0    0  501    0  0.00000000000E+00 -0.00000000000E+00 -0.38094919038E+03  0.38094919039E+03  0.25500000000E-02 0. -1.
    5000001    1    1    2    0    0 -0.10355349819E+02 -0.18171111902E+03 -0.19192342868E+03  0.32684058274E+03  0.19200000000E+03 0.  0.
   -5000001    1    1    2    0    0  0.10355349819E+02  0.18171111902E+03  0.22365909238E+02  0.26550027861E+03  0.19200000000E+03 0.  0.
<mgrwt>
<rscale>  0 0.56755435E+03</rscale>
<asrwt>0</asrwt>
<pdfrwt beam="1">  1        2 0.54421313E-01 0.56755435E+03</pdfrwt>
<pdfrwt beam="2">  1       -2 0.30198810E-01 0.56755435E+03</pdfrwt>
<totfact> 0.92732130E+02</totfact>
</mgrwt>
</event>
<event>
 4    1  0.5455400E-005  0.5832376E+03  0.7818608E-02  0.9940806E-01
          2   -1    0    0  501    0  0.00000000000E+00  0.00000000000E+00  0.50371107799E+03  0.50371107800E+03  0.25500000000E-02 0.  1.
         -2   -1    0    0    0  501 -0.00000000000E+00 -0.00000000000E+00 -0.16882995637E+03  0.16882995639E+03  0.25500000000E-02 0. -1.
    5000001    1    1    2    0    0 -0.14810536998E+03 -0.14312236198E+03  0.25494311697E+03  0.37984102465E+03  0.19200000000E+03 0.  0.
   -5000001    1    1    2    0    0  0.14810536998E+03  0.14312236198E+03  0.79938004652E+02  0.29270000974E+03  0.19200000000E+03 0.  0.
<mgrwt>
<rscale>  0 0.58323758E+03</rscale>
<asrwt>0</asrwt>
<pdfrwt beam="1">  1        2 0.71958726E-01 0.58323758E+03</pdfrwt>
<pdfrwt beam="2">  1       -2 0.24118565E-01 0.58323758E+03</pdfrwt>
<totfact> 0.10199631E+03</totfact>
</mgrwt>
</event>
<event>
 4    1  0.5455400E-005  0.6039872E+03  0.7818608E-02  0.9897168E-01
          2   -1    0    0  501    0  0.00000000000E+00  0.00000000000E+00  0.28674682410E+04  0.28674682410E+04  0.25500000000E-02 0. -1.
         -2   -1    0    0    0  501 -0.00000000000E+00 -0.00000000000E+00 -0.31805112185E+02  0.31805112288E+02  0.25500000000E-02 0.  1.
    5000001    1    1    2    0    0  0.17483111574E+03  0.15077356828E+03  0.15724524945E+04  0.16008652146E+04  0.19200000000E+03 0.  0.
   -5000001    1    1    2    0    0 -0.17483111574E+03 -0.15077356828E+03  0.12632106344E+04  0.12984081387E+04  0.19200000000E+03 0.  0.
<mgrwt>
<rscale>  0 0.60398725E+03</rscale>
<asrwt>0</asrwt>
<pdfrwt beam="1">  1        2 0.40963839E+00 0.60398725E+03</pdfrwt>
<pdfrwt beam="2">  1       -2 0.45435867E-02 0.60398725E+03</pdfrwt>
<totfact> 0.70741648E+02</totfact>
</mgrwt>
</event>
<event>
 4    1  0.5455400E-005  0.2889829E+04  0.7818608E-02  0.8275910E-01
          2   -1    0    0  501    0  0.00000000000E+00  0.00000000000E+00  0.11197527469E+04  0.11197527469E+04  0.25500000000E-02 0.  1.
         -2   -1    0    0    0  501 -0.00000000000E+00 -0.00000000000E+00 -0.18644995797E+04  0.18644995797E+04  0.25500000000E-02 0. -1.
    5000001    1    1    2    0    0 -0.14285313226E+04  0.96774909297E+02 -0.40243476286E+03  0.14996282409E+04  0.19200000000E+03 0.  0.
   -5000001    1    1    2    0    0  0.14285313226E+04 -0.96774909297E+02 -0.34231206995E+03  0.14846240857E+04  0.19200000000E+03 0.  0.
<mgrwt>
<rscale>  0 0.28898294E+04</rscale>
<asrwt>0</asrwt>
<pdfrwt beam="1">  1        2 0.15996468E+00 0.28898294E+04</pdfrwt>
<pdfrwt beam="2">  1       -2 0.26635708E+00 0.28898294E+04</pdfrwt>
<totfact> 0.10549103E+00</totfact>
</mgrwt>
</event>
<event>
 4    1  0.5455400E-005  0.4737061E+03  0.7818608E-02  0.1020879E+00
          2   -1    0    0  501    0  0.00000000000E+00  0.00000000000E+00  0.60596384204E+03  0.60596384204E+03  0.25500000000E-02 0.  1.
         -2   -1    0    0    0  501 -0.00000000000E+00 -0.00000000000E+00 -0.92578751522E+02  0.92578751557E+02  0.25500000000E-02 0. -1.
    5000001    1    1    2    0    0  0.69218322654E+02  0.74938920782E+02  0.39524807016E+03  0.45110093660E+03  0.19200000000E+03 0.  0.
   -5000001    1    1    2    0    0 -0.69218322654E+02 -0.74938920782E+02  0.11813702035E+03  0.24744165700E+03  0.19200000000E+03 0.  0.
<mgrwt>
<rscale>  0 0.47370614E+03</rscale>
<asrwt>0</asrwt>
<pdfrwt beam="1">  1        2 0.86566267E-01 0.47370614E+03</pdfrwt>
<pdfrwt beam="2">  1       -2 0.13225535E-01 0.47370614E+03</pdfrwt>
<totfact> 0.23087697E+03</totfact>
</mgrwt>
</event>
<event>
 4    1  0.5455400E-005  0.4223607E+03  0.7818608E-02  0.1036301E+00
         -2   -1    0    0    0  501 -0.00000000000E+00  0.00000000000E+00  0.34750027299E+02  0.34750027393E+02  0.25500000000E-02 0. -1.
          2   -1    0    0  501    0  0.00000000000E+00 -0.00000000000E+00 -0.12833701552E+04  0.12833701552E+04  0.25500000000E-02 0.  1.
    5000001    1    1    2    0    0 -0.57882656702E+02  0.41229410394E+02 -0.78595877187E+03  0.81218560521E+03  0.19200000000E+03 0.  0.
   -5000001    1    1    2    0    0  0.57882656702E+02 -0.41229410394E+02 -0.46266135600E+03  0.50593457736E+03  0.19200000000E+03 0.  0.
<mgrwt>
<rscale>  0 0.42236074E+03</rscale>
<asrwt>0</asrwt>
<pdfrwt beam="1">  1        2 0.18333856E+00 0.42236074E+03</pdfrwt>
<pdfrwt beam="2">  1       -2 0.49642904E-02 0.42236074E+03</pdfrwt>
<totfact> 0.40162564E+03</totfact>
</mgrwt>
</event>
<event>
 4    1  0.5455400E-005  0.9041333E+03  0.7818608E-02  0.9420429E-01
         -2   -1    0    0    0  501 -0.00000000000E+00  0.00000000000E+00  0.37604921716E+03  0.37604921717E+03  0.25500000000E-02 0. -1.
          2   -1    0    0  501    0  0.00000000000E+00 -0.00000000000E+00 -0.54345087365E+03  0.54345087365E+03  0.25500000000E-02 0.  1.
    5000001    1    1    2    0    0 -0.40595841382E+03 -0.17587098234E+02 -0.13340620302E+03  0.46879926918E+03  0.19200000000E+03 0.  0.
   -5000001    1    1    2    0    0  0.40595841382E+03  0.17587098234E+02 -0.33995453469E+02  0.45070082165E+03  0.19200000000E+03 0.  0.
<mgrwt>
<rscale>  0 0.90413334E+03</rscale>
<asrwt>0</asrwt>
<pdfrwt beam="1">  1        2 0.77635838E-01 0.90413334E+03</pdfrwt>
<pdfrwt beam="2">  1       -2 0.53721317E-01 0.90413334E+03</pdfrwt>
<totfact> 0.19962972E+02</totfact>
</mgrwt>
</event>
<event>
 4    1  0.5455400E-005  0.5159788E+03  0.7818608E-02  0.1009690E+00
          2   -1    0    0  501    0  0.00000000000E+00  0.00000000000E+00  0.10983424846E+04  0.10983424846E+04  0.25500000000E-02 0.  1.
         -2   -1    0    0    0  501 -0.00000000000E+00 -0.00000000000E+00 -0.60599071690E+02  0.60599071744E+02  0.25500000000E-02 0. -1.
    5000001    1    1    2    0    0  0.65538388005E+02 -0.96986680843E+02  0.80292016562E+03  0.83381442115E+03  0.19200000000E+03 0.  0.
   -5000001    1    1    2    0    0 -0.65538388005E+02  0.96986680843E+02  0.23482324724E+03  0.32512713515E+03  0.19200000000E+03 0.  0.
<mgrwt>
<rscale>  0 0.51597882E+03</rscale>
<asrwt>0</asrwt>
<pdfrwt beam="1">  1        2 0.15690607E+00 0.51597882E+03</pdfrwt>
<pdfrwt beam="2">  1       -2 0.86570102E-02 0.51597882E+03</pdfrwt>
<totfact> 0.21324641E+03</totfact>
</mgrwt>
</event>
<event>
 4    1  0.5455400E-005  0.6803204E+03  0.7818608E-02  0.9751492E-01
          2   -1    0    0  501    0  0.00000000000E+00  0.00000000000E+00  0.12521357013E+04  0.12521357013E+04  0.25500000000E-02 0.  1.
         -2   -1    0    0    0  501 -0.00000000000E+00 -0.00000000000E+00 -0.92409274146E+02  0.92409274181E+02  0.25500000000E-02 0. -1.
    5000001    1    1    2    0    0 -0.16064479894E+03  0.22898861859E+03  0.53135572089E+03  0.63043274105E+03  0.19200000000E+03 0.  0.
   -5000001    1    1    2    0    0  0.16064479894E+03 -0.22898861859E+03  0.62837070623E+03  0.71411223440E+03  0.19200000000E+03 0.  0.
<mgrwt>
<rscale>  0 0.68032037E+03</rscale>
<asrwt>0</asrwt>
<pdfrwt beam="1">  1        2 0.17887652E+00 0.68032037E+03</pdfrwt>
<pdfrwt beam="2">  1       -2 0.13201325E-01 0.68032037E+03</pdfrwt>
<totfact> 0.87390569E+02</totfact>
</mgrwt>
</event>
<event>
 4    1  0.5455400E-005  0.5864162E+03  0.7818608E-02  0.9933996E-01
          2   -1    0    0  501    0  0.00000000000E+00  0.00000000000E+00  0.17285819543E+04  0.17285819543E+04  0.25500000000E-02 0.  1.
         -2   -1    0    0    0  501 -0.00000000000E+00 -0.00000000000E+00 -0.49734986266E+02  0.49734986332E+02  0.25500000000E-02 0. -1.
    5000001    1    1    2    0    0  0.29090610735E+02  0.21099527715E+03  0.65392542993E+03  0.71403623054E+03  0.19200000000E+03 0.  0.
   -5000001    1    1    2    0    0 -0.29090610735E+02 -0.21099527715E+03  0.10249215381E+04  0.10642807101E+04  0.19200000000E+03 0.  0.
<mgrwt>
<rscale>  0 0.58641623E+03</rscale>
<asrwt>0</asrwt>
<pdfrwt beam="1">  1        2 0.24694029E+00 0.58641623E+03</pdfrwt>
<pdfrwt beam="2">  1       -2 0.71049978E-02 0.58641623E+03</pdfrwt>
<totfact> 0.13445370E+03</totfact>
</mgrwt>
</event>
<event>
 4    1  0.5455400E-005  0.4793945E+03  0.7818608E-02  0.1019302E+00
          2   -1    0    0  501    0  0.00000000000E+00  0.00000000000E+00  0.63284855855E+03  0.63284855855E+03  0.25500000000E-02 0.  1.
         -2   -1    0    0    0  501 -0.00000000000E+00 -0.00000000000E+00 -0.90787561129E+02  0.90787561165E+02  0.25500000000E-02 0. -1.
    5000001    1    1    2    0    0 -0.13331097769E+03 -0.50761092591E+02  0.29452567488E+03  0.37941781515E+03  0.19200000000E+03 0.  0.
   -5000001    1    1    2    0    0  0.13331097769E+03  0.50761092591E+02  0.24753532254E+03  0.34421830456E+03  0.19200000000E+03 0.  0.
<mgrwt>
<rscale>  0 0.47939452E+03</rscale>
<asrwt>0</asrwt>
<pdfrwt beam="1">  1        2 0.90406942E-01 0.47939452E+03</pdfrwt>
<pdfrwt beam="2">  1       -2 0.12969651E-01 0.47939452E+03</pdfrwt>
<totfact> 0.22660586E+03</totfact>
</mgrwt>
</event>
<event>
 4    1  0.5455400E-005  0.6074522E+03  0.7818608E-02  0.9890065E-01
          2   -1    0    0  501    0  0.00000000000E+00  0.00000000000E+00  0.11370875554E+04  0.11370875554E+04  0.25500000000E-02 0.  1.
         -2   -1    0    0    0  501 -0.00000000000E+00 -0.00000000000E+00 -0.81127905234E+02  0.81127905274E+02  0.25500000000E-02 0. -1.
    5000001    1    1    2    0    0 -0.76086400498E+01 -0.23093656857E+03  0.61757526680E+03  0.68676983064E+03  0.19200000000E+03 0.  0.
   -5000001    1    1    2    0    0  0.76086400498E+01  0.23093656857E+03  0.43838438332E+03  0.53144563000E+03  0.19200000000E+03 0.  0.
<mgrwt>
<rscale>  0 0.60745216E+03</rscale>
<asrwt>0</asrwt>
<pdfrwt beam="1">  1        2 0.16244107E+00 0.60745216E+03</pdfrwt>
<pdfrwt beam="2">  1       -2 0.11589702E-01 0.60745216E+03</pdfrwt>
<totfact> 0.12610506E+03</totfact>
</mgrwt>
</event>
<event>
 4    1  0.5455400E-005  0.6241277E+03  0.7818608E-02  0.9856576E-01
         -2   -1    0    0    0  501 -0.00000000000E+00  0.00000000000E+00  0.13579658669E+03  0.13579658671E+03  0.25500000000E-02 0. -1.
          2   -1    0    0  501    0  0.00000000000E+00 -0.00000000000E+00 -0.71713019842E+03  0.71713019842E+03  0.25500000000E-02 0.  1.
    5000001    1    1    2    0    0  0.20128300746E+03  0.12931697525E+03 -0.21237532757E+03  0.37310187475E+03  0.19200000000E+03 0.  0.
   -5000001    1    1    2    0    0 -0.20128300746E+03 -0.12931697525E+03 -0.36895828416E+03  0.47982491039E+03  0.19200000000E+03 0.  0.
<mgrwt>
<rscale>  0 0.62412766E+03</rscale>
<asrwt>0</asrwt>
<pdfrwt beam="1">  1        2 0.10244717E+00 0.62412766E+03</pdfrwt>
<pdfrwt beam="2">  1       -2 0.19399513E-01 0.62412766E+03</pdfrwt>
<totfact> 0.98558870E+02</totfact>
</mgrwt>
</event>
<event>
 4    1  0.5455400E-005  0.4226313E+03  0.7818608E-02  0.1036213E+00
         -2   -1    0    0    0  501 -0.00000000000E+00  0.00000000000E+00  0.50261126018E+02  0.50261126083E+02  0.25500000000E-02 0. -1.
          2   -1    0    0  501    0  0.00000000000E+00 -0.00000000000E+00 -0.88844625392E+03  0.88844625392E+03  0.25500000000E-02 0.  1.
    5000001    1    1    2    0    0  0.61020833822E+01 -0.68169304276E+02 -0.54287831376E+03  0.57988374095E+03  0.19200000000E+03 0.  0.
   -5000001    1    1    2    0    0 -0.61020833822E+01  0.68169304276E+02 -0.29530681414E+03  0.35882363905E+03  0.19200000000E+03 0.  0.
<mgrwt>
<rscale>  0 0.42263132E+03</rscale>
<asrwt>0</asrwt>
<pdfrwt beam="1">  1        2 0.12692088E+00 0.42263132E+03</pdfrwt>
<pdfrwt beam="2">  1       -2 0.71801614E-02 0.42263132E+03</pdfrwt>
<totfact> 0.38429067E+03</totfact>
</mgrwt>
</event>
<event>
 4    1  0.5455400E-005  0.9530473E+03  0.7818608E-02  0.9361596E-01
         -2   -1    0    0    0  501 -0.00000000000E+00  0.00000000000E+00  0.66637072080E+03  0.66637072080E+03  0.25500000000E-02 0. -1.
          2   -1    0    0  501    0  0.00000000000E+00 -0.00000000000E+00 -0.34076343189E+03  0.34076343189E+03  0.25500000000E-02 0.  1.
    5000001    1    1    2    0    0  0.35340810534E+03 -0.24055536020E+03  0.25399464853E+03  0.53304920197E+03  0.19200000000E+03 0.  0.
   -5000001    1    1    2    0    0 -0.35340810534E+03  0.24055536020E+03  0.71612640384E+02  0.47408495073E+03  0.19200000000E+03 0.  0.
<mgrwt>
<rscale>  0 0.95304727E+03</rscale>
<asrwt>0</asrwt>
<pdfrwt beam="1">  1        2 0.48680491E-01 0.95304727E+03</pdfrwt>
<pdfrwt beam="2">  1       -2 0.95195816E-01 0.95304727E+03</pdfrwt>
<totfact> 0.96101205E+01</totfact>
</mgrwt>
</event>
<event>
 4    1  0.5455400E-005  0.7688941E+03  0.7818608E-02  0.9606166E-01
          2   -1    0    0  501    0  0.00000000000E+00  0.00000000000E+00  0.13754084716E+04  0.13754084716E+04  0.25500000000E-02 0.  1.
         -2   -1    0    0    0  501 -0.00000000000E+00 -0.00000000000E+00 -0.10745863715E+03  0.10745863718E+03  0.25500000000E-02 0. -1.
    5000001    1    1    2    0    0  0.21761476357E+03 -0.25210951670E+03  0.64262691439E+03  0.74883158643E+03  0.19200000000E+03 0.  0.
   -5000001    1    1    2    0    0 -0.21761476357E+03  0.25210951670E+03  0.62532292005E+03  0.73403552235E+03  0.19200000000E+03 0.  0.
<mgrwt>
<rscale>  0 0.76889406E+03</rscale>
<asrwt>0</asrwt>
<pdfrwt beam="1">  1        2 0.19648692E+00 0.76889406E+03</pdfrwt>
<pdfrwt beam="2">  1       -2 0.15351234E-01 0.76889406E+03</pdfrwt>
<totfact> 0.57872199E+02</totfact>
</mgrwt>
</event>
<event>
 4    1  0.5455400E-005  0.5630160E+03  0.7818608E-02  0.9985253E-01
         -2   -1    0    0    0  501 -0.00000000000E+00  0.00000000000E+00  0.96324717020E+02  0.96324717054E+02  0.25500000000E-02 0. -1.
          2   -1    0    0  501    0  0.00000000000E+00 -0.00000000000E+00 -0.82270418160E+03  0.82270418161E+03  0.25500000000E-02 0.  1.
    5000001    1    1    2    0    0 -0.44447433329E+02  0.20043836070E+03 -0.33834626749E+03  0.43987874181E+03  0.19200000000E+03 0.  0.
   -5000001    1    1    2    0    0  0.44447433329E+02 -0.20043836070E+03 -0.38803319709E+03  0.47915015685E+03  0.19200000000E+03 0.  0.
<mgrwt>
<rscale>  0 0.56301598E+03</rscale>
<asrwt>0</asrwt>
<pdfrwt beam="1">  1        2 0.11752916E+00 0.56301598E+03</pdfrwt>
<pdfrwt beam="2">  1       -2 0.13760674E-01 0.56301598E+03</pdfrwt>
<totfact> 0.14873688E+03</totfact>
</mgrwt>
</event>
<event>
 4    1  0.5455400E-005  0.5838679E+03  0.7818608E-02  0.9939452E-01
          2   -1    0    0  501    0  0.00000000000E+00  0.00000000000E+00  0.49296156340E+03  0.49296156341E+03  0.25500000000E-02 0.  1.
         -2   -1    0    0    0  501 -0.00000000000E+00 -0.00000000000E+00 -0.17288455504E+03  0.17288455506E+03  0.25500000000E-02 0. -1.
    5000001    1    1    2    0    0 -0.11278024519E+03  0.17802170570E+03  0.88362152655E+02  0.29846772259E+03  0.19200000000E+03 0.  0.
   -5000001    1    1    2    0    0  0.11278024519E+03 -0.17802170570E+03  0.23171485570E+03  0.36737839588E+03  0.19200000000E+03 0.  0.
<mgrwt>
<rscale>  0 0.58386793E+03</rscale>
<asrwt>0</asrwt>
<pdfrwt beam="1">  1        2 0.70423080E-01 0.58386793E+03</pdfrwt>
<pdfrwt beam="2">  1       -2 0.24697794E-01 0.58386793E+03</pdfrwt>
<totfact> 0.10018403E+03</totfact>
</mgrwt>
</event>
<event>
 4    1  0.5455400E-005  0.5394215E+03  0.7818608E-02  0.1003973E+00
          2   -1    0    0  501    0  0.00000000000E+00  0.00000000000E+00  0.15907013379E+03  0.15907013381E+03  0.25500000000E-02 0.  1.
         -2   -1    0    0    0  501 -0.00000000000E+00 -0.00000000000E+00 -0.45730705796E+03  0.45730705797E+03  0.25500000000E-02 0. -1.
    5000001    1    1    2    0    0 -0.11867609583E+03  0.95248562461E+02 -0.27800962169E+03  0.37055317314E+03  0.19200000000E+03 0.  0.
   -5000001    1    1    2    0    0  0.11867609583E+03 -0.95248562461E+02 -0.20227302489E+02  0.24582401864E+03  0.19200000000E+03 0.  0.
<mgrwt>
<rscale>  0 0.53942152E+03</rscale>
<asrwt>0</asrwt>
<pdfrwt beam="1">  1        2 0.22724305E-01 0.53942152E+03</pdfrwt>
<pdfrwt beam="2">  1       -2 0.65329579E-01 0.53942152E+03</pdfrwt>
<totfact> 0.53274271E+02</totfact>
</mgrwt>
</event>
<event>
 4    1  0.5455400E-005  0.6361783E+03  0.7818608E-02  0.9833066E-01
         -2   -1    0    0    0  501 -0.00000000000E+00  0.00000000000E+00  0.60577088599E+02  0.60577088652E+02  0.25500000000E-02 0. -1.
          2   -1    0    0  501    0  0.00000000000E+00 -0.00000000000E+00 -0.16702803145E+04  0.16702803145E+04  0.25500000000E-02 0.  1.
    5000001    1    1    2    0    0  0.23651324425E+03 -0.85867588574E+02 -0.71860201970E+03  0.78521628879E+03  0.19200000000E+03 0.  0.
   -5000001    1    1    2    0    0 -0.23651324425E+03  0.85867588574E+02 -0.89110120619E+03  0.94564111435E+03  0.19200000000E+03 0.  0.
<mgrwt>
<rscale>  0 0.63617834E+03</rscale>
<asrwt>0</asrwt>
<pdfrwt beam="1">  1        2 0.23861144E+00 0.63617834E+03</pdfrwt>
<pdfrwt beam="2">  1       -2 0.86538709E-02 0.63617834E+03</pdfrwt>
<totfact> 0.10493112E+03</totfact>
</mgrwt>
</event>
<event>
 4    1  0.5455400E-005  0.5609847E+03  0.7818608E-02  0.9989829E-01
         -2   -1    0    0    0  501 -0.00000000000E+00  0.00000000000E+00  0.74922369757E+02  0.74922369800E+02  0.25500000000E-02 0. -1.
          2   -1    0    0  501    0  0.00000000000E+00 -0.00000000000E+00 -0.10500998193E+04  0.10500998193E+04  0.25500000000E-02 0.  1.
    5000001    1    1    2    0    0 -0.16078157982E+03 -0.48574978290E+02 -0.25370123341E+03  0.35977570896E+03  0.19200000000E+03 0.  0.
   -5000001    1    1    2    0    0  0.16078157982E+03  0.48574978290E+02 -0.72147621616E+03  0.76524648017E+03  0.19200000000E+03 0.  0.
<mgrwt>
<rscale>  0 0.56098473E+03</rscale>
<asrwt>0</asrwt>
<pdfrwt beam="1">  1        2 0.15001425E+00 0.56098473E+03</pdfrwt>
<pdfrwt beam="2">  1       -2 0.10703196E-01 0.56098473E+03</pdfrwt>
<totfact> 0.16156393E+03</totfact>
</mgrwt>
</event>
<event>
 4    1  0.5455400E-005  0.6765194E+03  0.7818608E-02  0.9758252E-01
         -2   -1    0    0    0  501 -0.00000000000E+00  0.00000000000E+00  0.15467339590E+04  0.15467339590E+04  0.25500000000E-02 0. -1.
          2   -1    0    0  501    0  0.00000000000E+00 -0.00000000000E+00 -0.73974976352E+02  0.73974976396E+02  0.25500000000E-02 0.  1.
    5000001    1    1    2    0    0  0.11889971337E+03  0.21421089817E+03  0.41917269573E+03  0.52210458682E+03  0.19200000000E+03 0.  0.
   -5000001    1    1    2    0    0 -0.11889971337E+03 -0.21421089817E+03  0.10535862870E+04  0.10986043486E+04  0.19200000000E+03 0.  0.
<mgrwt>
<rscale>  0 0.67651935E+03</rscale>
<asrwt>0</asrwt>
<pdfrwt beam="1">  1        2 0.10567854E-01 0.67651935E+03</pdfrwt>
<pdfrwt beam="2">  1       -2 0.22096199E+00 0.67651935E+03</pdfrwt>
<totfact> 0.61985653E+01</totfact>
</mgrwt>
</event>
<event>
 4    1  0.5455400E-005  0.5806699E+03  0.7818608E-02  0.9946342E-01
          2   -1    0    0  501    0  0.00000000000E+00  0.00000000000E+00  0.12246977201E+03  0.12246977204E+03  0.25500000000E-02 0.  1.
         -2   -1    0    0    0  501 -0.00000000000E+00 -0.00000000000E+00 -0.68828723922E+03  0.68828723922E+03  0.25500000000E-02 0. -1.
    5000001    1    1    2    0    0 -0.18626092246E+03  0.27813412872E+02 -0.43562788754E+03  0.51195934758E+03  0.19200000000E+03 0.  0.
   -5000001    1    1    2    0    0  0.18626092246E+03 -0.27813412872E+02 -0.13018957966E+03  0.29879766368E+03  0.19200000000E+03 0.  0.
<mgrwt>
<rscale>  0 0.58066989E+03</rscale>
<asrwt>0</asrwt>
<pdfrwt beam="1">  1        2 0.17495682E-01 0.58066989E+03</pdfrwt>
<pdfrwt beam="2">  1       -2 0.98326747E-01 0.58066989E+03</pdfrwt>
<totfact> 0.28958475E+02</totfact>
</mgrwt>
</event>
<event>
 4    1  0.5455400E-005  0.7217046E+03  0.7818608E-02  0.9680818E-01
          2   -1    0    0  501    0  0.00000000000E+00  0.00000000000E+00  0.14857699445E+04  0.14857699445E+04  0.25500000000E-02 0.  1.
         -2   -1    0    0    0  501 -0.00000000000E+00 -0.00000000000E+00 -0.87641021789E+02  0.87641021826E+02  0.25500000000E-02 0. -1.
    5000001    1    1    2    0    0  0.22651795871E+03  0.96260861380E+02  0.10937456742E+04  0.11374181900E+04  0.19200000000E+03 0.  0.
   -5000001    1    1    2    0    0 -0.22651795871E+03 -0.96260861380E+02  0.30438324849E+03  0.43599277633E+03  0.19200000000E+03 0.  0.
<mgrwt>
<rscale>  0 0.72170464E+03</rscale>
<asrwt>0</asrwt>
<pdfrwt beam="1">  1        2 0.21225282E+00 0.72170464E+03</pdfrwt>
<pdfrwt beam="2">  1       -2 0.12520148E-01 0.72170464E+03</pdfrwt>
<totfact> 0.71315027E+02</totfact>
</mgrwt>
</event>
<event>
 4    1  0.5455400E-005  0.6188360E+03  0.7818608E-02  0.9867080E-01
          2   -1    0    0  501    0  0.00000000000E+00  0.00000000000E+00  0.19778482961E+04  0.19778482961E+04  0.25500000000E-02 0.  1.
         -2   -1    0    0    0  501 -0.00000000000E+00 -0.00000000000E+00 -0.48405880093E+02  0.48405880160E+02  0.25500000000E-02 0. -1.
    5000001    1    1    2    0    0  0.19744848531E+03  0.31719449166E+01  0.50306216571E+03  0.57352550785E+03  0.19200000000E+03 0.  0.
   -5000001    1    1    2    0    0 -0.19744848531E+03 -0.31719449166E+01  0.14263802503E+04  0.14527286684E+04  0.19200000000E+03 0.  0.
<mgrwt>
<rscale>  0 0.61883596E+03</rscale>
<asrwt>0</asrwt>
<pdfrwt beam="1">  1        2 0.28254973E+00 0.61883596E+03</pdfrwt>
<pdfrwt beam="2">  1       -2 0.69151265E-02 0.61883596E+03</pdfrwt>
<totfact> 0.10490575E+03</totfact>
</mgrwt>
</event>
<event>
 4    1  0.5455400E-005  0.6595504E+03  0.7818608E-02  0.9789022E-01
         -2   -1    0    0    0  501 -0.00000000000E+00  0.00000000000E+00  0.19356822300E+03  0.19356822302E+03  0.25500000000E-02 0. -1.
          2   -1    0    0  501    0  0.00000000000E+00 -0.00000000000E+00 -0.56182615088E+03  0.56182615088E+03  0.25500000000E-02 0.  1.
    5000001    1    1    2    0    0 -0.19392711580E+03 -0.43187702314E+02 -0.39033307601E+03  0.47822255708E+03  0.19200000000E+03 0.  0.
   -5000001    1    1    2    0    0  0.19392711580E+03  0.43187702314E+02  0.22075148128E+02  0.27717181682E+03  0.19200000000E+03 0.  0.
<mgrwt>
<rscale>  0 0.65955042E+03</rscale>
<asrwt>0</asrwt>
<pdfrwt beam="1">  1        2 0.80260878E-01 0.65955042E+03</pdfrwt>
<pdfrwt beam="2">  1       -2 0.27652603E-01 0.65955042E+03</pdfrwt>
<totfact> 0.70188587E+02</totfact>
</mgrwt>
</event>
<event>
 4    1  0.5455400E-005  0.1054869E+04  0.7818608E-02  0.9250332E-01
         -2   -1    0    0    0  501 -0.00000000000E+00  0.00000000000E+00  0.33371244441E+03  0.33371244442E+03  0.25500000000E-02 0. -1.
          2   -1    0    0  501    0  0.00000000000E+00 -0.00000000000E+00 -0.83361321055E+03  0.83361321055E+03  0.25500000000E-02 0.  1.
    5000001    1    1    2    0    0 -0.36531685671E+03  0.10974590963E+03  0.92602289320E+02  0.43696653701E+03  0.19200000000E+03 0.  0.
   -5000001    1    1    2    0    0  0.36531685671E+03 -0.10974590963E+03 -0.59250305546E+03  0.73035911797E+03  0.19200000000E+03 0.  0.
<mgrwt>
<rscale>  0 0.10548689E+04</rscale>
<asrwt>0</asrwt>
<pdfrwt beam="1">  1        2 0.11908760E+00 0.10548689E+04</pdfrwt>
<pdfrwt beam="2">  1       -2 0.47673207E-01 0.10548689E+04</pdfrwt>
<totfact> 0.14944321E+02</totfact>
</mgrwt>
</event>
<event>
 4    1  0.5455400E-005  0.7955212E+03  0.7818608E-02  0.9566523E-01
         -2   -1    0    0    0  501 -0.00000000000E+00  0.00000000000E+00  0.80727165563E+02  0.80727165604E+02  0.25500000000E-02 0. -1.
          2   -1    0    0  501    0  0.00000000000E+00 -0.00000000000E+00 -0.19598542459E+04  0.19598542459E+04  0.25500000000E-02 0.  1.
    5000001    1    1    2    0    0  0.29621965904E+03 -0.16471755629E+03 -0.73321315246E+03  0.83026711768E+03  0.19200000000E+03 0.  0.
   -5000001    1    1    2    0    0 -0.29621965904E+03  0.16471755629E+03 -0.11459139279E+04  0.12103142939E+04  0.19200000000E+03 0.  0.
<mgrwt>
<rscale>  0 0.79552116E+03</rscale>
<asrwt>0</asrwt>
<pdfrwt beam="1">  1        2 0.27997915E+00 0.79552116E+03</pdfrwt>
<pdfrwt beam="2">  1       -2 0.11532453E-01 0.79552116E+03</pdfrwt>
<totfact> 0.46460501E+02</totfact>
</mgrwt>
</event>
<event>
 4    1  0.5455400E-005  0.6503501E+03  0.7818608E-02  0.9806122E-01
         -2   -1    0    0    0  501 -0.00000000000E+00  0.00000000000E+00  0.76023423795E+02  0.76023423838E+02  0.25500000000E-02 0. -1.
          2   -1    0    0  501    0  0.00000000000E+00 -0.00000000000E+00 -0.13908715213E+04  0.13908715213E+04  0.25500000000E-02 0.  1.
    5000001    1    1    2    0    0 -0.22703412684E+03 -0.10321015982E+03 -0.84174489728E+03  0.89866306475E+03  0.19200000000E+03 0.  0.
   -5000001    1    1    2    0    0  0.22703412684E+03  0.10321015982E+03 -0.47310320024E+03  0.56823188041E+03  0.19200000000E+03 0.  0.
<mgrwt>
<rscale>  0 0.65035011E+03</rscale>
<asrwt>0</asrwt>
<pdfrwt beam="1">  1        2 0.19869592E+00 0.65035011E+03</pdfrwt>
<pdfrwt beam="2">  1       -2 0.10860490E-01 0.65035011E+03</pdfrwt>
<totfact> 0.10149233E+03</totfact>
</mgrwt>
</event>
<event>
 4    1  0.5455400E-005  0.6044875E+03  0.7818608E-02  0.9896139E-01
         -2   -1    0    0    0  501 -0.00000000000E+00  0.00000000000E+00  0.54420677144E+02  0.54420677204E+02  0.25500000000E-02 0. -1.
          2   -1    0    0  501    0  0.00000000000E+00 -0.00000000000E+00 -0.16786135847E+04  0.16786135847E+04  0.25500000000E-02 0.  1.
    5000001    1    1    2    0    0 -0.89650049700E+02 -0.71211349720E+02 -0.22890609300E+03  0.31995341403E+03  0.19200000000E+03 0.  0.
   -5000001    1    1    2    0    0  0.89650049700E+02  0.71211349720E+02 -0.13952868145E+04  0.14130808478E+04  0.19200000000E+03 0.  0.
<mgrwt>
<rscale>  0 0.60448751E+03</rscale>
<asrwt>0</asrwt>
<pdfrwt beam="1">  1        2 0.23980191E+00 0.60448751E+03</pdfrwt>
<pdfrwt beam="2">  1       -2 0.77743835E-02 0.60448751E+03</pdfrwt>
<totfact> 0.12348813E+03</totfact>
</mgrwt>
</event>
<event>
 4    1  0.5455400E-005  0.1318459E+04  0.7818608E-02  0.9015054E-01
          2   -1    0    0  501    0  0.00000000000E+00  0.00000000000E+00  0.59582544593E+03  0.59582544594E+03  0.25500000000E-02 0.  1.
         -2   -1    0    0    0  501 -0.00000000000E+00 -0.00000000000E+00 -0.72938065604E+03  0.72938065604E+03  0.25500000000E-02 0. -1.
    5000001    1    1    2    0    0 -0.22288919255E+03 -0.38692505517E+03  0.38084278277E+03  0.61749155108E+03  0.19200000000E+03 0.  0.
   -5000001    1    1    2    0    0  0.22288919255E+03  0.38692505517E+03 -0.51439799287E+03  0.70771455090E+03  0.19200000000E+03 0.  0.
<mgrwt>
<rscale>  0 0.13184590E+04</rscale>
<asrwt>0</asrwt>
<pdfrwt beam="1">  1        2 0.85117921E-01 0.13184590E+04</pdfrwt>
<pdfrwt beam="2">  1       -2 0.10419724E+00 0.13184590E+04</pdfrwt>
<totfact> 0.40165995E+01</totfact>
</mgrwt>
</event>
<event>
 4    1  0.5455400E-005  0.6035281E+03  0.7818608E-02  0.9898113E-01
          2   -1    0    0  501    0  0.00000000000E+00  0.00000000000E+00  0.10403438680E+04  0.10403438680E+04  0.25500000000E-02 0.  1.
         -2   -1    0    0    0  501 -0.00000000000E+00 -0.00000000000E+00 -0.87530247658E+02  0.87530247695E+02  0.25500000000E-02 0. -1.
    5000001    1    1    2    0    0  0.40370264489E+02  0.19073798944E+03  0.71416957136E+03  0.76479599602E+03  0.19200000000E+03 0.  0.
   -5000001    1    1    2    0    0 -0.40370264489E+02 -0.19073798944E+03  0.23864404895E+03  0.36307811965E+03  0.19200000000E+03 0.  0.
<mgrwt>
<rscale>  0 0.60352815E+03</rscale>
<asrwt>0</asrwt>
<pdfrwt beam="1">  1        2 0.14862055E+00 0.60352815E+03</pdfrwt>
<pdfrwt beam="2">  1       -2 0.12504321E-01 0.60352815E+03</pdfrwt>
<totfact> 0.12677639E+03</totfact>
</mgrwt>
</event>
<event>
 4    1  0.5455400E-005  0.4750672E+03  0.7818608E-02  0.1020500E+00
         -2   -1    0    0    0  501 -0.00000000000E+00  0.00000000000E+00  0.42240590109E+02  0.42240590186E+02  0.25500000000E-02 0. -1.
          2   -1    0    0  501    0  0.00000000000E+00 -0.00000000000E+00 -0.13357343020E+04  0.13357343020E+04  0.25500000000E-02 0.  1.
    5000001    1    1    2    0    0 -0.12077646039E+03  0.36701456399E+02 -0.47212618646E+03  0.52507245807E+03  0.19200000000E+03 0.  0.
   -5000001    1    1    2    0    0  0.12077646039E+03 -0.36701456399E+02 -0.82136752543E+03  0.85290243411E+03  0.19200000000E+03 0.  0.
<mgrwt>
<rscale>  0 0.47506718E+03</rscale>
<asrwt>0</asrwt>
<pdfrwt beam="1">  1        2 0.19081916E+00 0.47506718E+03</pdfrwt>
<pdfrwt beam="2">  1       -2 0.60343708E-02 0.47506718E+03</pdfrwt>
<totfact> 0.27833825E+03</totfact>
</mgrwt>
</event>
<event>
 4    1  0.5455400E-005  0.8974081E+03  0.7818608E-02  0.9428827E-01
         -2   -1    0    0    0  501 -0.00000000000E+00  0.00000000000E+00  0.20424175091E+03  0.20424175093E+03  0.25500000000E-02 0. -1.
          2   -1    0    0  501    0  0.00000000000E+00 -0.00000000000E+00 -0.98576965505E+03  0.98576965505E+03  0.25500000000E-02 0.  1.
    5000001    1    1    2    0    0  0.87867124481E+01  0.38479347359E+03 -0.22131888679E+03  0.48372437739E+03  0.19200000000E+03 0.  0.
   -5000001    1    1    2    0    0 -0.87867124481E+01 -0.38479347359E+03 -0.56020901735E+03  0.70628702859E+03  0.19200000000E+03 0.  0.
<mgrwt>
<rscale>  0 0.89740809E+03</rscale>
<asrwt>0</asrwt>
<pdfrwt beam="1">  1        2 0.14082423E+00 0.89740809E+03</pdfrwt>
<pdfrwt beam="2">  1       -2 0.29177394E-01 0.89740809E+03</pdfrwt>
<totfact> 0.30939972E+02</totfact>
</mgrwt>
</event>
<event>
 4    1  0.5455400E-005  0.6066033E+03  0.7818608E-02  0.9891800E-01
         -2   -1    0    0    0  501 -0.00000000000E+00  0.00000000000E+00  0.45821086237E+02  0.45821086308E+02  0.25500000000E-02 0. -1.
          2   -1    0    0  501    0  0.00000000000E+00 -0.00000000000E+00 -0.20076321897E+04  0.20076321897E+04  0.25500000000E-02 0.  1.
    5000001    1    1    2    0    0 -0.17103298587E+03 -0.13804829330E+03 -0.70138271407E+03  0.75967843535E+03  0.19200000000E+03 0.  0.
   -5000001    1    1    2    0    0  0.17103298587E+03  0.13804829330E+03 -0.12604283894E+04  0.12937748407E+04  0.19200000000E+03 0.  0.
<mgrwt>
<rscale>  0 0.60660329E+03</rscale>
<asrwt>0</asrwt>
<pdfrwt beam="1">  1        2 0.28680454E+00 0.60660329E+03</pdfrwt>
<pdfrwt beam="2">  1       -2 0.65458707E-02 0.60660329E+03</pdfrwt>
<totfact> 0.11058919E+03</totfact>
</mgrwt>
</event>
<event>
 4    1  0.5455400E-005  0.5186248E+03  0.7818608E-02  0.1009029E+00
          2   -1    0    0  501    0  0.00000000000E+00  0.00000000000E+00  0.40248309088E+03  0.40248309089E+03  0.25500000000E-02 0.  1.
         -2   -1    0    0    0  501 -0.00000000000E+00 -0.00000000000E+00 -0.16707020487E+03  0.16707020489E+03  0.25500000000E-02 0. -1.
    5000001    1    1    2    0    0  0.83924218931E+02 -0.62584224642E+02  0.27074225046E+03  0.34803078295E+03  0.19200000000E+03 0.  0.
   -5000001    1    1    2    0    0 -0.83924218931E+02  0.62584224642E+02 -0.35329364449E+02  0.22152251283E+03  0.19200000000E+03 0.  0.
<mgrwt>
<rscale>  0 0.51862484E+03</rscale>
<asrwt>0</asrwt>
<pdfrwt beam="1">  1        2 0.57497584E-01 0.51862484E+03</pdfrwt>
<pdfrwt beam="2">  1       -2 0.23867172E-01 0.51862484E+03</pdfrwt>
<totfact> 0.13365219E+03</totfact>
</mgrwt>
</event>
<event>
 4    1  0.5455400E-005  0.6204173E+03  0.7818608E-02  0.9863929E-01
         -2   -1    0    0    0  501 -0.00000000000E+00  0.00000000000E+00  0.85622738765E+02  0.85622738803E+02  0.25500000000E-02 0. -1.
          2   -1    0    0  501    0  0.00000000000E+00 -0.00000000000E+00 -0.11238766611E+04  0.11238766611E+04  0.25500000000E-02 0.  1.
    5000001    1    1    2    0    0  0.98841016269E+01  0.20734492035E+03 -0.27041723613E+03  0.39125323392E+03  0.19200000000E+03 0.  0.
   -5000001    1    1    2    0    0 -0.98841016269E+01 -0.20734492035E+03 -0.76783668617E+03  0.81824616594E+03  0.19200000000E+03 0.  0.
<mgrwt>
<rscale>  0 0.62041727E+03</rscale>
<asrwt>0</asrwt>
<pdfrwt beam="1">  1        2 0.16055380E+00 0.62041727E+03</pdfrwt>
<pdfrwt beam="2">  1       -2 0.12231820E-01 0.62041727E+03</pdfrwt>
<totfact> 0.11739203E+03</totfact>
</mgrwt>
</event>
<event>
 4    1  0.5455400E-005  0.5617796E+03  0.7818608E-02  0.9988036E-01
         -2   -1    0    0    0  501 -0.00000000000E+00  0.00000000000E+00  0.22656926455E+03  0.22656926456E+03  0.25500000000E-02 0. -1.
          2   -1    0    0  501    0  0.00000000000E+00 -0.00000000000E+00 -0.34823383414E+03  0.34823383415E+03  0.25500000000E-02 0.  1.
    5000001    1    1    2    0    0 -0.11140463832E+03  0.40914455621E+02 -0.23189083604E+03  0.32360832183E+03  0.19200000000E+03 0.  0.
   -5000001    1    1    2    0    0  0.11140463832E+03 -0.40914455621E+02  0.11022626645E+03  0.25119477688E+03  0.19200000000E+03 0.  0.
<mgrwt>
<rscale>  0 0.56177961E+03</rscale>
<asrwt>0</asrwt>
<pdfrwt beam="1">  1        2 0.49747690E-01 0.56177961E+03</pdfrwt>
<pdfrwt beam="2">  1       -2 0.32367038E-01 0.56177961E+03</pdfrwt>
<totfact> 0.90034083E+02</totfact>
</mgrwt>
</event>
<event>
 4    1  0.5455400E-005  0.5607031E+03  0.7818608E-02  0.9990465E-01
          2   -1    0    0  501    0  0.00000000000E+00  0.00000000000E+00  0.31611112418E+03  0.31611112419E+03  0.25500000000E-02 0.  1.
         -2   -1    0    0    0  501 -0.00000000000E+00 -0.00000000000E+00 -0.24863723386E+03  0.24863723388E+03  0.25500000000E-02 0. -1.
    5000001    1    1    2    0    0  0.60085813475E+02  0.18764497170E+03 -0.20615840246E+02  0.27588032415E+03  0.19200000000E+03 0.  0.
   -5000001    1    1    2    0    0 -0.60085813475E+02 -0.18764497170E+03  0.88089730567E+02  0.28886803391E+03  0.19200000000E+03 0.  0.
<mgrwt>
<rscale>  0 0.56070311E+03</rscale>
<asrwt>0</asrwt>
<pdfrwt beam="1">  1        2 0.45158732E-01 0.56070311E+03</pdfrwt>
<pdfrwt beam="2">  1       -2 0.35519605E-01 0.56070311E+03</pdfrwt>
<totfact> 0.84087838E+02</totfact>
</mgrwt>
</event>
<event>
 4    1  0.5455400E-005  0.9012929E+03  0.7818608E-02  0.9423967E-01
         -2   -1    0    0    0  501 -0.00000000000E+00  0.00000000000E+00  0.34080443061E+03  0.34080443062E+03  0.25500000000E-02 0. -1.
          2   -1    0    0  501    0  0.00000000000E+00 -0.00000000000E+00 -0.59589074664E+03  0.59589074664E+03  0.25500000000E-02 0.  1.
    5000001    1    1    2    0    0 -0.91449570160E+02 -0.20928492047E+03 -0.47852894097E+03  0.56393009244E+03  0.19200000000E+03 0.  0.
   -5000001    1    1    2    0    0  0.91449570160E+02  0.20928492047E+03  0.22344262494E+03  0.37276508482E+03  0.19200000000E+03 0.  0.
<mgrwt>
<rscale>  0 0.90129286E+03</rscale>
<asrwt>0</asrwt>
<pdfrwt beam="1">  1        2 0.85127250E-01 0.90129286E+03</pdfrwt>
<pdfrwt beam="2">  1       -2 0.48686347E-01 0.90129286E+03</pdfrwt>
<totfact> 0.21912831E+02</totfact>
</mgrwt>
</event>
<event>
 4    1  0.5455400E-005  0.5570365E+03  0.7818608E-02  0.9998782E-01
          2   -1    0    0  501    0  0.00000000000E+00  0.00000000000E+00  0.16017742818E+03  0.16017742820E+03  0.25500000000E-02 0.  1.
         -2   -1    0    0    0  501 -0.00000000000E+00 -0.00000000000E+00 -0.48429060912E+03  0.48429060913E+03  0.25500000000E-02 0. -1.
    5000001    1    1    2    0    0 -0.12150622998E+03 -0.16080743458E+03 -0.17276263347E+03  0.32761825722E+03  0.19200000000E+03 0.  0.
   -5000001    1    1    2    0    0  0.12150622998E+03  0.16080743458E+03 -0.15135054747E+03  0.31684978011E+03  0.19200000000E+03 0.  0.
<mgrwt>
<rscale>  0 0.55703653E+03</rscale>
<asrwt>0</asrwt>
<pdfrwt beam="1">  1        2 0.22882490E-01 0.55703653E+03</pdfrwt>
<pdfrwt beam="2">  1       -2 0.69184372E-01 0.55703653E+03</pdfrwt>
<totfact> 0.46708845E+02</totfact>
</mgrwt>
</event>
<event>
 4    1  0.5455400E-005  0.4785233E+03  0.7818608E-02  0.1019542E+00
          2   -1    0    0  501    0  0.00000000000E+00  0.00000000000E+00  0.98057293496E+02  0.98057293529E+02  0.25500000000E-02 0.  1.
         -2   -1    0    0    0  501 -0.00000000000E+00 -0.00000000000E+00 -0.58380292409E+03  0.58380292409E+03  0.25500000000E-02 0. -1.
    5000001    1    1    2    0    0  0.69922517521E+02 -0.89068186661E+02 -0.11897934642E+03  0.25267050719E+03  0.19200000000E+03 0.  0.
   -5000001    1    1    2    0    0 -0.69922517521E+02  0.89068186661E+02 -0.36676628417E+03  0.42918971043E+03  0.19200000000E+03 0.  0.
<mgrwt>
<rscale>  0 0.47852329E+03</rscale>
<asrwt>0</asrwt>
<pdfrwt beam="1">  1        2 0.14008185E-01 0.47852329E+03</pdfrwt>
<pdfrwt beam="2">  1       -2 0.83400416E-01 0.47852329E+03</pdfrwt>
<totfact> 0.55282810E+02</totfact>
</mgrwt>
</event>
<event>
 4    1  0.5455400E-005  0.5311473E+03  0.7818608E-02  0.1005954E+00
         -2   -1    0    0    0  501 -0.00000000000E+00  0.00000000000E+00  0.38981681489E+02  0.38981681572E+02  0.25500000000E-02 0. -1.
          2   -1    0    0  501    0  0.00000000000E+00 -0.00000000000E+00 -0.18092952546E+04  0.18092952546E+04  0.25500000000E-02 0.  1.
    5000001    1    1    2    0    0 -0.12270226313E+03 -0.10707585630E+03 -0.59103209195E+03  0.64242043718E+03  0.19200000000E+03 0.  0.
   -5000001    1    1    2    0    0  0.12270226313E+03  0.10707585630E+03 -0.11792814812E+04  0.12058564990E+04  0.19200000000E+03 0.  0.
<mgrwt>
<rscale>  0 0.53114733E+03</rscale>
<asrwt>0</asrwt>
<pdfrwt beam="1">  1        2 0.25847070E+00 0.53114733E+03</pdfrwt>
<pdfrwt beam="2">  1       -2 0.55688128E-02 0.53114733E+03</pdfrwt>
<totfact> 0.17976063E+03</totfact>
</mgrwt>
</event>
<event>
 4    1  0.5455400E-005  0.1026732E+04  0.7818608E-02  0.9279702E-01
         -2   -1    0    0    0  501 -0.00000000000E+00  0.00000000000E+00  0.52620117635E+03  0.52620117636E+03  0.25500000000E-02 0. -1.
          2   -1    0    0  501    0  0.00000000000E+00 -0.00000000000E+00 -0.50084357665E+03  0.50084357666E+03  0.25500000000E-02 0.  1.
    5000001    1    1    2    0    0 -0.40759952213E+03  0.49051988922E+02  0.25386850213E+03  0.51947731849E+03  0.19200000000E+03 0.  0.
   -5000001    1    1    2    0    0  0.40759952213E+03 -0.49051988922E+02 -0.22851090243E+03  0.50756743452E+03  0.19200000000E+03 0.  0.
<mgrwt>
<rscale>  0 0.10267317E+04</rscale>
<asrwt>0</asrwt>
<pdfrwt beam="1">  1        2 0.71549082E-01 0.10267317E+04</pdfrwt>
<pdfrwt beam="2">  1       -2 0.75171597E-01 0.10267317E+04</pdfrwt>
<totfact> 0.10625236E+02</totfact>
</mgrwt>
</event>
<event>
 4    1  0.5455400E-005  0.7229977E+03  0.7818608E-02  0.9678692E-01
          2   -1    0    0  501    0  0.00000000000E+00  0.00000000000E+00  0.13828394061E+04  0.13828394061E+04  0.25500000000E-02 0.  1.
         -2   -1    0    0    0  501 -0.00000000000E+00 -0.00000000000E+00 -0.94502241832E+02  0.94502241867E+02  0.25500000000E-02 0. -1.
    5000001    1    1    2    0    0  0.16932487171E+03 -0.18761531813E+03  0.29056170046E+03  0.43030282541E+03  0.19200000000E+03 0.  0.
   -5000001    1    1    2    0    0 -0.16932487171E+03  0.18761531813E+03  0.99777546381E+03  0.10470388226E+04  0.19200000000E+03 0.  0.
<mgrwt>
<rscale>  0 0.72299772E+03</rscale>
<asrwt>0</asrwt>
<pdfrwt beam="1">  1        2 0.19754847E+00 0.72299772E+03</pdfrwt>
<pdfrwt beam="2">  1       -2 0.13500322E-01 0.72299772E+03</pdfrwt>
<totfact> 0.71335105E+02</totfact>
</mgrwt>
</event>
<event>
 4    1  0.5455400E-005  0.4560949E+03  0.7818608E-02  0.1025920E+00
          2   -1    0    0  501    0  0.00000000000E+00  0.00000000000E+00  0.45059541337E+03  0.45059541338E+03  0.25500000000E-02 0.  1.
         -2   -1    0    0    0  501 -0.00000000000E+00 -0.00000000000E+00 -0.11541538038E+03  0.11541538041E+03  0.25500000000E-02 0. -1.
    5000001    1    1    2    0    0 -0.28927573443E+02 -0.10110959191E+03  0.24687470742E+03  0.32995617171E+03  0.19200000000E+03 0.  0.
   -5000001    1    1    2    0    0  0.28927573443E+02  0.10110959191E+03  0.88305325566E+02  0.23605462208E+03  0.19200000000E+03 0.  0.
<mgrwt>
<rscale>  0 0.45609491E+03</rscale>
<asrwt>0</asrwt>
<pdfrwt beam="1">  1        2 0.64370773E-01 0.45609491E+03</pdfrwt>
<pdfrwt beam="2">  1       -2 0.16487912E-01 0.45609491E+03</pdfrwt>
<totfact> 0.22366038E+03</totfact>
</mgrwt>
</event>
<event>
 4    1  0.5455400E-005  0.6079968E+03  0.7818608E-02  0.9888953E-01
         -2   -1    0    0    0  501 -0.00000000000E+00  0.00000000000E+00  0.19239335144E+03  0.19239335146E+03  0.25500000000E-02 0. -1.
          2   -1    0    0  501    0  0.00000000000E+00 -0.00000000000E+00 -0.48034410457E+03  0.48034410457E+03  0.25500000000E-02 0.  1.
    5000001    1    1    2    0    0 -0.11303355915E+03 -0.12626390780E+03 -0.32522189676E+03  0.41394739043E+03  0.19200000000E+03 0.  0.
   -5000001    1    1    2    0    0  0.11303355915E+03  0.12626390780E+03  0.37271143639E+02  0.25879006560E+03  0.19200000000E+03 0.  0.
<mgrwt>
<rscale>  0 0.60799675E+03</rscale>
<asrwt>0</asrwt>
<pdfrwt beam="1">  1        2 0.68620586E-01 0.60799675E+03</pdfrwt>
<pdfrwt beam="2">  1       -2 0.27484765E-01 0.60799675E+03</pdfrwt>
<totfact> 0.85028277E+02</totfact>
</mgrwt>
</event>
<event>
 4    1  0.5455400E-005  0.4121680E+03  0.7818608E-02  0.1039646E+00
         -2   -1    0    0    0  501 -0.00000000000E+00  0.00000000000E+00  0.36992701974E+02  0.36992702062E+02  0.25500000000E-02 0. -1.
          2   -1    0    0  501    0  0.00000000000E+00 -0.00000000000E+00 -0.11480808022E+04  0.11480808022E+04  0.25500000000E-02 0.  1.
    5000001    1    1    2    0    0  0.54322941372E+02  0.30566132861E+02 -0.43625393955E+03  0.48069405053E+03  0.19200000000E+03 0.  0.
   -5000001    1    1    2    0    0 -0.54322941372E+02 -0.30566132861E+02 -0.67483416070E+03  0.70437945376E+03  0.19200000000E+03 0.  0.
<mgrwt>
<rscale>  0 0.41216798E+03</rscale>
<asrwt>0</asrwt>
<pdfrwt beam="1">  1        2 0.16401152E+00 0.41216798E+03</pdfrwt>
<pdfrwt beam="2">  1       -2 0.52846724E-02 0.41216798E+03</pdfrwt>
<totfact> 0.43287182E+03</totfact>
</mgrwt>
</event>
<event>
 4    1  0.5455400E-005  0.6284995E+03  0.7818608E-02  0.9847981E-01
          2   -1    0    0  501    0  0.00000000000E+00  0.00000000000E+00  0.97126593194E+03  0.97126593195E+03  0.25500000000E-02 0.  1.
         -2   -1    0    0    0  501 -0.00000000000E+00 -0.00000000000E+00 -0.10167443826E+03  0.10167443829E+03  0.25500000000E-02 0. -1.
    5000001    1    1    2    0    0 -0.22645670086E+03 -0.26868178999E+02  0.26507091990E+03  0.39891243272E+03  0.19200000000E+03 0.  0.
   -5000001    1    1    2    0    0  0.22645670086E+03  0.26868178999E+02  0.60452057379E+03  0.67402793751E+03  0.19200000000E+03 0.  0.
<mgrwt>
<rscale>  0 0.62849954E+03</rscale>
<asrwt>0</asrwt>
<pdfrwt beam="1">  1        2 0.13875227E+00 0.62849954E+03</pdfrwt>
<pdfrwt beam="2">  1       -2 0.14524921E-01 0.62849954E+03</pdfrwt>
<totfact> 0.10874969E+03</totfact>
</mgrwt>
</event>
<event>
 4    1  0.5455400E-005  0.9020285E+03  0.7818608E-02  0.9423049E-01
          2   -1    0    0  501    0  0.00000000000E+00  0.00000000000E+00  0.32599453084E+04  0.32599453084E+04  0.25500000000E-02 0.  1.
         -2   -1    0    0    0  501 -0.00000000000E+00 -0.00000000000E+00 -0.62397935072E+02  0.62397935124E+02  0.25500000000E-02 0. -1.
    5000001    1    1    2    0    0  0.31690325290E+03 -0.21832093797E+03  0.20991748927E+04  0.21427764545E+04  0.19200000000E+03 0.  0.
   -5000001    1    1    2    0    0 -0.31690325290E+03  0.21832093797E+03  0.10983724806E+04  0.11795667890E+04  0.19200000000E+03 0.  0.
<mgrwt>
<rscale>  0 0.90202850E+03</rscale>
<asrwt>0</asrwt>
<pdfrwt beam="1">  1        2 0.46570645E+00 0.90202850E+03</pdfrwt>
<pdfrwt beam="2">  1       -2 0.89139912E-02 0.90202850E+03</pdfrwt>
<totfact> 0.14382708E+02</totfact>
</mgrwt>
</event>
<event>
 4    1  0.5455400E-005  0.6669410E+03  0.7818608E-02  0.9775500E-01
         -2   -1    0    0    0  501 -0.00000000000E+00  0.00000000000E+00  0.52904865167E+02  0.52904865229E+02  0.25500000000E-02 0. -1.
          2   -1    0    0  501    0  0.00000000000E+00 -0.00000000000E+00 -0.21019349614E+04  0.21019349614E+04  0.25500000000E-02 0.  1.
    5000001    1    1    2    0    0 -0.41262382013E+02  0.26111936623E+03 -0.80892028386E+03  0.87241156184E+03  0.19200000000E+03 0.  0.
   -5000001    1    1    2    0    0  0.41262382013E+02 -0.26111936623E+03 -0.12401098123E+04  0.12824282648E+04  0.19200000000E+03 0.  0.
<mgrwt>
<rscale>  0 0.66694103E+03</rscale>
<asrwt>0</asrwt>
<pdfrwt beam="1">  1        2 0.30027637E+00 0.66694103E+03</pdfrwt>
<pdfrwt beam="2">  1       -2 0.75578392E-02 0.66694103E+03</pdfrwt>
<totfact> 0.78687032E+02</totfact>
</mgrwt>
</event>
<event>
 4    1  0.5455400E-005  0.9372380E+03  0.7818608E-02  0.9380193E-01
         -2   -1    0    0    0  501 -0.00000000000E+00  0.00000000000E+00  0.68012072555E+03  0.68012072556E+03  0.25500000000E-02 0. -1.
          2   -1    0    0  501    0  0.00000000000E+00 -0.00000000000E+00 -0.32288939612E+03  0.32288939613E+03  0.25500000000E-02 0.  1.
    5000001    1    1    2    0    0 -0.20656167267E+03  0.36391045899E+03  0.85067154044E+02  0.46818689375E+03  0.19200000000E+03 0.  0.
   -5000001    1    1    2    0    0  0.20656167267E+03 -0.36391045899E+03  0.27216417539E+03  0.53482322794E+03  0.19200000000E+03 0.  0.
<mgrwt>
<rscale>  0 0.93723801E+03</rscale>
<asrwt>0</asrwt>
<pdfrwt beam="1">  1        2 0.46127056E-01 0.93723801E+03</pdfrwt>
<pdfrwt beam="2">  1       -2 0.97160104E-01 0.93723801E+03</pdfrwt>
<totfact> 0.97341627E+01</totfact>
</mgrwt>
</event>
<event>
 4    1  0.5455400E-005  0.7009216E+03  0.7818608E-02  0.9715658E-01
         -2   -1    0    0    0  501 -0.00000000000E+00  0.00000000000E+00  0.80765555462E+02  0.80765555502E+02  0.25500000000E-02 0. -1.
          2   -1    0    0  501    0  0.00000000000E+00 -0.00000000000E+00 -0.15207319110E+04  0.15207319110E+04  0.25500000000E-02 0.  1.
    5000001    1    1    2    0    0  0.24557482673E+03  0.27306216999E+02 -0.35939624381E+03  0.47653151530E+03  0.19200000000E+03 0.  0.
   -5000001    1    1    2    0    0 -0.24557482673E+03 -0.27306216999E+02 -0.10805701117E+04  0.11249659512E+04  0.19200000000E+03 0.  0.
<mgrwt>
<rscale>  0 0.70092156E+03</rscale>
<asrwt>0</asrwt>
<pdfrwt beam="1">  1        2 0.21724740E+00 0.70092156E+03</pdfrwt>
<pdfrwt beam="2">  1       -2 0.11537937E-01 0.70092156E+03</pdfrwt>
<totfact> 0.78323009E+02</totfact>
</mgrwt>
</event>
<event>
 4    1  0.5455400E-005  0.1266528E+04  0.7818608E-02  0.9056538E-01
          2   -1    0    0  501    0  0.00000000000E+00  0.00000000000E+00  0.51008952461E+03  0.51008952461E+03  0.25500000000E-02 0.  1.
         -2   -1    0    0    0  501 -0.00000000000E+00 -0.00000000000E+00 -0.78618230754E+03  0.78618230755E+03  0.25500000000E-02 0. -1.
    5000001    1    1    2    0    0 -0.52507524068E+03 -0.19054560724E+03 -0.37176803230E+03  0.69791626049E+03  0.19200000000E+03 0.  0.
   -5000001    1    1    2    0    0  0.52507524068E+03  0.19054560724E+03  0.95675249366E+02  0.59835557167E+03  0.19200000000E+03 0.  0.
<mgrwt>
<rscale>  0 0.12665281E+04</rscale>
<asrwt>0</asrwt>
<pdfrwt beam="1">  1        2 0.72869933E-01 0.12665281E+04</pdfrwt>
<pdfrwt beam="2">  1       -2 0.11231176E+00 0.12665281E+04</pdfrwt>
<totfact> 0.40314743E+01</totfact>
</mgrwt>
</event>
<event>
 4    1  0.5455400E-005  0.5378348E+03  0.7818608E-02  0.1004350E+00
         -2   -1    0    0    0  501 -0.00000000000E+00  0.00000000000E+00  0.11836997251E+03  0.11836997254E+03  0.25500000000E-02 0.  1.
          2   -1    0    0  501    0  0.00000000000E+00 -0.00000000000E+00 -0.61093674442E+03  0.61093674442E+03  0.25500000000E-02 0. -1.
    5000001    1    1    2    0    0 -0.74910173277E+02 -0.27605571592E+02 -0.15049868156E+02  0.20848045514E+03  0.19200000000E+03 0.  0.
   -5000001    1    1    2    0    0  0.74910173277E+02  0.27605571592E+02 -0.47751690375E+03  0.52082626183E+03  0.19200000000E+03 0.  0.
<mgrwt>
<rscale>  0 0.53783479E+03</rscale>
<asrwt>0</asrwt>
<pdfrwt beam="1">  1        2 0.87276676E-01 0.53783479E+03</pdfrwt>
<pdfrwt beam="2">  1       -2 0.16909996E-01 0.53783479E+03</pdfrwt>
<totfact> 0.15149891E+03</totfact>
</mgrwt>
</event>
<event>
 4    1  0.5455400E-005  0.6656438E+03  0.7818608E-02  0.9777860E-01
          2   -1    0    0  501    0  0.00000000000E+00  0.00000000000E+00  0.15188173462E+03  0.15188173464E+03  0.25500000000E-02 0.  1.
         -2   -1    0    0    0  501 -0.00000000000E+00 -0.00000000000E+00 -0.72932009278E+03  0.72932009279E+03  0.25500000000E-02 0. -1.
    5000001    1    1    2    0    0 -0.15208945683E+03 -0.20685937624E+03 -0.17042739706E+03  0.36308608082E+03  0.19200000000E+03 0.  0.
   -5000001    1    1    2    0    0  0.15208945683E+03  0.20685937624E+03 -0.40701096110E+03  0.51811574660E+03  0.19200000000E+03 0.  0.
<mgrwt>
<rscale>  0 0.66564375E+03</rscale>
<asrwt>0</asrwt>
<pdfrwt beam="1">  1        2 0.21697391E-01 0.66564375E+03</pdfrwt>
<pdfrwt beam="2">  1       -2 0.10418858E+00 0.66564375E+03</pdfrwt>
<totfact> 0.19554672E+02</totfact>
</mgrwt>
</event>
<event>
 4    1  0.5455400E-005  0.5072205E+03  0.7818608E-02  0.1011911E+00
         -2   -1    0    0    0  501 -0.00000000000E+00  0.00000000000E+00  0.35298195336E+02  0.35298195428E+02  0.25500000000E-02 0. -1.
          2   -1    0    0  501    0  0.00000000000E+00 -0.00000000000E+00 -0.18221375695E+04  0.18221375695E+04  0.25500000000E-02 0.  1.
    5000001    1    1    2    0    0 -0.14313091603E+03  0.14807807276E+02 -0.59259145209E+03  0.63932336057E+03  0.19200000000E+03 0.  0.
   -5000001    1    1    2    0    0  0.14313091603E+03 -0.14807807276E+02 -0.11942479221E+04  0.12181124044E+04  0.19200000000E+03 0.  0.
<mgrwt>
<rscale>  0 0.50722054E+03</rscale>
<asrwt>0</asrwt>
<pdfrwt beam="1">  1        2 0.26030531E+00 0.50722054E+03</pdfrwt>
<pdfrwt beam="2">  1       -2 0.50426005E-02 0.50722054E+03</pdfrwt>
<totfact> 0.20676330E+03</totfact>
</mgrwt>
</event>
<event>
 4    1  0.5455400E-005  0.5210951E+03  0.7818608E-02  0.1008415E+00
          2   -1    0    0  501    0  0.00000000000E+00  0.00000000000E+00  0.35296224266E+03  0.35296224267E+03  0.25500000000E-02 0.  1.
         -2   -1    0    0    0  501 -0.00000000000E+00 -0.00000000000E+00 -0.19232939803E+03  0.19232939804E+03  0.25500000000E-02 0. -1.
    5000001    1    1    2    0    0 -0.87140477099E+02  0.15305585335E+03  0.81580258487E+02  0.27301812315E+03  0.19200000000E+03 0.  0.
   -5000001    1    1    2    0    0  0.87140477099E+02 -0.15305585335E+03  0.79052586149E+02  0.27227351757E+03  0.19200000000E+03 0.  0.
<mgrwt>
<rscale>  0 0.52109506E+03</rscale>
<asrwt>0</asrwt>
<pdfrwt beam="1">  1        2 0.50423177E-01 0.52109506E+03</pdfrwt>
<pdfrwt beam="2">  1       -2 0.27475628E-01 0.52109506E+03</pdfrwt>
<totfact> 0.11996869E+03</totfact>
</mgrwt>
</event>
<event>
 4    1  0.5455400E-005  0.5317918E+03  0.7818608E-02  0.1005799E+00
         -2   -1    0    0    0  501 -0.00000000000E+00  0.00000000000E+00  0.10506106455E+03  0.10506106458E+03  0.25500000000E-02 0.  1.
          2   -1    0    0  501    0  0.00000000000E+00 -0.00000000000E+00 -0.67294785711E+03  0.67294785712E+03  0.25500000000E-02 0. -1.
    5000001    1    1    2    0    0  0.16519189301E+02  0.12333837586E+03 -0.48213138768E+03  0.53366648158E+03  0.19200000000E+03 0.  0.
   -5000001    1    1    2    0    0 -0.16519189301E+02 -0.12333837586E+03 -0.85755404880E+02  0.24434244011E+03  0.19200000000E+03 0.  0.
<mgrwt>
<rscale>  0 0.53179176E+03</rscale>
<asrwt>0</asrwt>
<pdfrwt beam="1">  1        2 0.96135406E-01 0.53179176E+03</pdfrwt>
<pdfrwt beam="2">  1       -2 0.15008724E-01 0.53179176E+03</pdfrwt>
<totfact> 0.16518957E+03</totfact>
</mgrwt>
</event>
<event>
 4    1  0.5455400E-005  0.5300307E+03  0.7818608E-02  0.1006225E+00
          2   -1    0    0  501    0  0.00000000000E+00  0.00000000000E+00  0.25316941823E+04  0.25316941823E+04  0.25500000000E-02 0.  1.
         -2   -1    0    0    0  501 -0.00000000000E+00 -0.00000000000E+00 -0.27741553652E+02  0.27741553770E+02  0.25500000000E-02 0. -1.
    5000001    1    1    2    0    0 -0.57321967183E+02  0.11359456820E+03  0.61905503294E+03  0.66051697000E+03  0.19200000000E+03 0.  0.
   -5000001    1    1    2    0    0  0.57321967183E+02 -0.11359456820E+03  0.18848975957E+04  0.18989187661E+04  0.19200000000E+03 0.  0.
<mgrwt>
<rscale>  0 0.53003068E+03</rscale>
<asrwt>0</asrwt>
<pdfrwt beam="1">  1        2 0.36167053E+00 0.53003068E+03</pdfrwt>
<pdfrwt beam="2">  1       -2 0.39630799E-02 0.53003068E+03</pdfrwt>
<totfact> 0.13154833E+03</totfact>
</mgrwt>
</event>
<event>
 4    1  0.5455400E-005  0.9963831E+03  0.7818608E-02  0.9312521E-01
          2   -1    0    0  501    0  0.00000000000E+00  0.00000000000E+00  0.64538556110E+03  0.64538556111E+03  0.25500000000E-02 0.  1.
         -2   -1    0    0    0  501 -0.00000000000E+00 -0.00000000000E+00 -0.38456828424E+03  0.38456828425E+03  0.25500000000E-02 0. -1.
    5000001    1    1    2    0    0  0.44793063347E+03  0.10331393465E+03  0.13443823920E+03  0.51599734656E+03  0.19200000000E+03 0.  0.
   -5000001    1    1    2    0    0 -0.44793063347E+03 -0.10331393465E+03  0.12637903766E+03  0.51395649880E+03  0.19200000000E+03 0.  0.
<mgrwt>
<rscale>  0 0.99638309E+03</rscale>
<asrwt>0</asrwt>
<pdfrwt beam="1">  1        2 0.92197936E-01 0.99638309E+03</pdfrwt>
<pdfrwt beam="2">  1       -2 0.54938327E-01 0.99638309E+03</pdfrwt>
<totfact> 0.15473472E+02</totfact>
</mgrwt>
</event>
<event>
 4    1  0.5455400E-005  0.7134122E+03  0.7818608E-02  0.9694567E-01
         -2   -1    0    0    0  501 -0.00000000000E+00  0.00000000000E+00  0.27057467591E+03  0.27057467592E+03  0.25500000000E-02 0. -1.
          2   -1    0    0  501    0  0.00000000000E+00 -0.00000000000E+00 -0.47025549294E+03  0.47025549295E+03  0.25500000000E-02 0.  1.
    5000001    1    1    2    0    0 -0.84781821124E+02  0.28359478323E+03 -0.45273099482E+02  0.35570719954E+03  0.19200000000E+03 0.  0.
   -5000001    1    1    2    0    0  0.84781821124E+02 -0.28359478323E+03 -0.15440771755E+03  0.38512296933E+03  0.19200000000E+03 0.  0.
<mgrwt>
<rscale>  0 0.71341216E+03</rscale>
<asrwt>0</asrwt>
<pdfrwt beam="1">  1        2 0.67179356E-01 0.71341216E+03</pdfrwt>
<pdfrwt beam="2">  1       -2 0.38653525E-01 0.71341216E+03</pdfrwt>
<totfact> 0.45829162E+02</totfact>
</mgrwt>
</event>
<event>
 4    1  0.5455400E-005  0.7297836E+03  0.7818608E-02  0.9667612E-01
         -2   -1    0    0    0  501 -0.00000000000E+00  0.00000000000E+00  0.54284173774E+03  0.54284173774E+03  0.25500000000E-02 0. -1.
          2   -1    0    0  501    0  0.00000000000E+00 -0.00000000000E+00 -0.24527598070E+03  0.24527598071E+03  0.25500000000E-02 0.  1.
    5000001    1    1    2    0    0  0.25900271732E+03  0.25881757258E+02 -0.33626044463E+02  0.32518761324E+03  0.19200000000E+03 0.  0.
   -5000001    1    1    2    0    0 -0.25900271732E+03 -0.25881757258E+02  0.33119180150E+03  0.46293010522E+03  0.19200000000E+03 0.  0.
<mgrwt>
<rscale>  0 0.72978364E+03</rscale>
<asrwt>0</asrwt>
<pdfrwt beam="1">  1        2 0.35039426E-01 0.72978364E+03</pdfrwt>
<pdfrwt beam="2">  1       -2 0.77548820E-01 0.72978364E+03</pdfrwt>
<totfact> 0.22340795E+02</totfact>
</mgrwt>
</event>
<event>
 4    1  0.5455400E-005  0.4594135E+03  0.7818608E-02  0.1024951E+00
         -2   -1    0    0    0  501 -0.00000000000E+00  0.00000000000E+00  0.26779430536E+02  0.26779430658E+02  0.25500000000E-02 0. -1.
          2   -1    0    0  501    0  0.00000000000E+00 -0.00000000000E+00 -0.19703629198E+04  0.19703629198E+04  0.25500000000E-02 0.  1.
    5000001    1    1    2    0    0  0.90745989731E+02  0.82210890592E+02 -0.11027654270E+04  0.11260324383E+04  0.19200000000E+03 0.  0.
   -5000001    1    1    2    0    0 -0.90745989731E+02 -0.82210890592E+02 -0.84081806230E+03  0.87110991216E+03  0.19200000000E+03 0.  0.
<mgrwt>
<rscale>  0 0.45941353E+03</rscale>
<asrwt>0</asrwt>
<pdfrwt beam="1">  1        2 0.28148033E+00 0.45941353E+03</pdfrwt>
<pdfrwt beam="2">  1       -2 0.38256342E-02 0.45941353E+03</pdfrwt>
<totfact> 0.26684329E+03</totfact>
</mgrwt>
</event>
<event>
 4    1  0.5455400E-005  0.8644089E+03  0.7818608E-02  0.9471199E-01
         -2   -1    0    0    0  501 -0.00000000000E+00  0.00000000000E+00  0.27041524473E+03  0.27041524474E+03  0.25500000000E-02 0. -1.
          2   -1    0    0  501    0  0.00000000000E+00 -0.00000000000E+00 -0.69079203608E+03  0.69079203608E+03  0.25500000000E-02 0.  1.
    5000001    1    1    2    0    0  0.27048937351E+03 -0.71955314097E+02 -0.50772337552E+03  0.61072833114E+03  0.19200000000E+03 0.  0.
   -5000001    1    1    2    0    0 -0.27048937351E+03  0.71955314097E+02  0.87346584165E+02  0.35047894969E+03  0.19200000000E+03 0.  0.
<mgrwt>
<rscale>  0 0.86440893E+03</rscale>
<asrwt>0</asrwt>
<pdfrwt beam="1">  1        2 0.98684576E-01 0.86440893E+03</pdfrwt>
<pdfrwt beam="2">  1       -2 0.38630750E-01 0.86440893E+03</pdfrwt>
<totfact> 0.29036459E+02</totfact>
</mgrwt>
</event>
<event>
 4    1  0.5455400E-005  0.6420939E+03  0.7818608E-02  0.9821729E-01
         -2   -1    0    0    0  501 -0.00000000000E+00  0.00000000000E+00  0.15422847676E+03  0.15422847678E+03  0.25500000000E-02 0. -1.
          2   -1    0    0  501    0  0.00000000000E+00 -0.00000000000E+00 -0.66830156678E+03  0.66830156678E+03  0.25500000000E-02 0.  1.
    5000001    1    1    2    0    0  0.17966147923E+03  0.17235395376E+03 -0.17379046355E+03  0.35923704948E+03  0.19200000000E+03 0.  0.
   -5000001    1    1    2    0    0 -0.17966147923E+03 -0.17235395376E+03 -0.34028262647E+03  0.46329299409E+03  0.19200000000E+03 0.  0.
<mgrwt>
<rscale>  0 0.64209386E+03</rscale>
<asrwt>0</asrwt>
<pdfrwt beam="1">  1        2 0.95471651E-01 0.64209386E+03</pdfrwt>
<pdfrwt beam="2">  1       -2 0.22032640E-01 0.64209386E+03</pdfrwt>
<totfact> 0.85937241E+02</totfact>
</mgrwt>
</event>
<event>
 4    1  0.5455400E-005  0.8811526E+03  0.7818608E-02  0.9449453E-01
          2   -1    0    0  501    0  0.00000000000E+00  0.00000000000E+00  0.15603952717E+04  0.15603952717E+04  0.25500000000E-02 0.  1.
         -2   -1    0    0    0  501 -0.00000000000E+00 -0.00000000000E+00 -0.12439634777E+03  0.12439634780E+03  0.25500000000E-02 0. -1.
    5000001    1    1    2    0    0  0.19507756204E+03 -0.29330177327E+03  0.10661902766E+04  0.11391693865E+04  0.19200000000E+03 0.  0.
   -5000001    1    1    2    0    0 -0.19507756204E+03  0.29330177327E+03  0.36980864734E+03  0.54562223292E+03  0.19200000000E+03 0.  0.
<mgrwt>
<rscale>  0 0.88115259E+03</rscale>
<asrwt>0</asrwt>
<pdfrwt beam="1">  1        2 0.22291361E+00 0.88115259E+03</pdfrwt>
<pdfrwt beam="2">  1       -2 0.17770907E-01 0.88115259E+03</pdfrwt>
<totfact> 0.35737789E+02</totfact>
</mgrwt>
</event>
<event>
 4    1  0.5455400E-005  0.6993834E+03  0.7818608E-02  0.9718287E-01
         -2   -1    0    0    0  501 -0.00000000000E+00  0.00000000000E+00  0.10560408273E+03  0.10560408276E+03  0.25500000000E-02 0. -1.
          2   -1    0    0  501    0  0.00000000000E+00 -0.00000000000E+00 -0.11579504065E+04  0.11579504065E+04  0.25500000000E-02 0.  1.
    5000001    1    1    2    0    0 -0.18356861750E+03 -0.83739685502E+02 -0.90819087232E+03  0.94993917322E+03  0.19200000000E+03 0.  0.
   -5000001    1    1    2    0    0  0.18356861750E+03  0.83739685502E+02 -0.14415545142E+03  0.31361531601E+03  0.19200000000E+03 0.  0.
<mgrwt>
<rscale>  0 0.69938342E+03</rscale>
<asrwt>0</asrwt>
<pdfrwt beam="1">  1        2 0.16542148E+00 0.69938342E+03</pdfrwt>
<pdfrwt beam="2">  1       -2 0.15086298E-01 0.69938342E+03</pdfrwt>
<totfact> 0.78867428E+02</totfact>
</mgrwt>
</event>
<event>
 4    1  0.5455400E-005  0.1173268E+04  0.7818608E-02  0.9136582E-01
         -2   -1    0    0    0  501 -0.00000000000E+00  0.00000000000E+00  0.18683613520E+03  0.18683613522E+03  0.25500000000E-02 0. -1.
          2   -1    0    0  501    0  0.00000000000E+00 -0.00000000000E+00 -0.18419319646E+04  0.18419319646E+04  0.25500000000E-02 0.  1.
    5000001    1    1    2    0    0 -0.39597433818E+03 -0.30988867516E+03 -0.12310346548E+04  0.13435538652E+04  0.19200000000E+03 0.  0.
   -5000001    1    1    2    0    0  0.39597433818E+03  0.30988867516E+03 -0.42406117465E+03  0.68521423463E+03  0.19200000000E+03 0.  0.
<mgrwt>
<rscale>  0 0.11732680E+04</rscale>
<asrwt>0</asrwt>
<pdfrwt beam="1">  1        2 0.26313313E+00 0.11732680E+04</pdfrwt>
<pdfrwt beam="2">  1       -2 0.26690878E-01 0.11732680E+04</pdfrwt>
<totfact> 0.12178934E+02</totfact>
</mgrwt>
</event>
<event>
 4    1  0.5455400E-005  0.5594690E+03  0.7818608E-02  0.9993257E-01
         -2   -1    0    0    0  501 -0.00000000000E+00  0.00000000000E+00  0.16233670486E+03  0.16233670488E+03  0.25500000000E-02 0. -1.
          2   -1    0    0  501    0  0.00000000000E+00 -0.00000000000E+00 -0.48203147688E+03  0.48203147689E+03  0.25500000000E-02 0.  1.
    5000001    1    1    2    0    0 -0.10697898999E+03 -0.13278981221E+03 -0.32061503625E+02  0.25878481126E+03  0.19200000000E+03 0.  0.
   -5000001    1    1    2    0    0  0.10697898999E+03  0.13278981221E+03 -0.28763326839E+03  0.38558337051E+03  0.19200000000E+03 0.  0.
<mgrwt>
<rscale>  0 0.55946904E+03</rscale>
<asrwt>0</asrwt>
<pdfrwt beam="1">  1        2 0.68861639E-01 0.55946904E+03</pdfrwt>
<pdfrwt beam="2">  1       -2 0.23190958E-01 0.55946904E+03</pdfrwt>
<totfact> 0.11498251E+03</totfact>
</mgrwt>
</event>
<event>
 4    1  0.5455400E-005  0.9723397E+03  0.7818608E-02  0.9339413E-01
          2   -1    0    0  501    0  0.00000000000E+00  0.00000000000E+00  0.34252326900E+03  0.34252326901E+03  0.25500000000E-02 0.  1.
         -2   -1    0    0    0  501 -0.00000000000E+00 -0.00000000000E+00 -0.69005857146E+03  0.69005857146E+03  0.25500000000E-02 0. -1.
    5000001    1    1    2    0    0  0.35506295406E+03  0.26678127036E+03 -0.12333682003E+03  0.49931745287E+03  0.19200000000E+03 0.  0.
   -5000001    1    1    2    0    0 -0.35506295406E+03 -0.26678127036E+03 -0.22419848243E+03  0.53326438760E+03  0.19200000000E+03 0.  0.
<mgrwt>
<rscale>  0 0.97233969E+03</rscale>
<asrwt>0</asrwt>
<pdfrwt beam="1">  1        2 0.48931896E-01 0.97233969E+03</pdfrwt>
<pdfrwt beam="2">  1       -2 0.98579796E-01 0.97233969E+03</pdfrwt>
<totfact> 0.87934789E+01</totfact>
</mgrwt>
</event>
<event>
 4    1  0.5455400E-005  0.6816833E+03  0.7818608E-02  0.9749079E-01
          2   -1    0    0  501    0  0.00000000000E+00  0.00000000000E+00  0.13232483312E+04  0.13232483312E+04  0.25500000000E-02 0.  1.
         -2   -1    0    0    0  501 -0.00000000000E+00 -0.00000000000E+00 -0.87793831364E+02  0.87793831401E+02  0.25500000000E-02 0. -1.
    5000001    1    1    2    0    0 -0.14374208428E+03 -0.23791499446E+03  0.52415072842E+03  0.62358906139E+03  0.19200000000E+03 0.  0.
   -5000001    1    1    2    0    0  0.14374208428E+03  0.23791499446E+03  0.71130377141E+03  0.78745310121E+03  0.19200000000E+03 0.  0.
<mgrwt>
<rscale>  0 0.68168333E+03</rscale>
<asrwt>0</asrwt>
<pdfrwt beam="1">  1        2 0.18903548E+00 0.68168333E+03</pdfrwt>
<pdfrwt beam="2">  1       -2 0.12541976E-01 0.68168333E+03</pdfrwt>
<totfact> 0.86981275E+02</totfact>
</mgrwt>
</event>
<event>
 4    1  0.5455400E-005  0.4684451E+03  0.7818608E-02  0.1022360E+00
         -2   -1    0    0    0  501 -0.00000000000E+00  0.00000000000E+00  0.19549183215E+02  0.19549183382E+02  0.25500000000E-02 0. -1.
          2   -1    0    0  501    0  0.00000000000E+00 -0.00000000000E+00 -0.28062655101E+04  0.28062655101E+04  0.25500000000E-02 0.  1.
    5000001    1    1    2    0    0  0.79740379094E+02  0.58815541127E+02 -0.84782740061E+03  0.87492462370E+03  0.19200000000E+03 0.  0.
   -5000001    1    1    2    0    0 -0.79740379094E+02 -0.58815541127E+02 -0.19388889263E+04  0.19508900698E+04  0.19200000000E+03 0.  0.
<mgrwt>
<rscale>  0 0.46844508E+03</rscale>
<asrwt>0</asrwt>
<pdfrwt beam="1">  1        2 0.40089482E+00 0.46844508E+03</pdfrwt>
<pdfrwt beam="2">  1       -2 0.27927423E-02 0.46844508E+03</pdfrwt>
<totfact> 0.16202482E+03</totfact>
</mgrwt>
</event>
<event>
 4    1  0.5455400E-005  0.5753684E+03  0.7818608E-02  0.9957869E-01
         -2   -1    0    0    0  501 -0.00000000000E+00  0.00000000000E+00  0.51612771821E+02  0.51612771884E+02  0.25500000000E-02 0. -1.
          2   -1    0    0  501    0  0.00000000000E+00 -0.00000000000E+00 -0.16035217420E+04  0.16035217420E+04  0.25500000000E-02 0.  1.
    5000001    1    1    2    0    0  0.20244421313E+03 -0.69171558961E+02 -0.74317607285E+03  0.79683313137E+03  0.19200000000E+03 0.  0.
   -5000001    1    1    2    0    0 -0.20244421313E+03  0.69171558961E+02 -0.80873289732E+03  0.85830138250E+03  0.19200000000E+03 0.  0.
<mgrwt>
<rscale>  0 0.57536841E+03</rscale>
<asrwt>0</asrwt>
<pdfrwt beam="1">  1        2 0.22907450E+00 0.57536841E+03</pdfrwt>
<pdfrwt beam="2">  1       -2 0.73732541E-02 0.57536841E+03</pdfrwt>
<totfact> 0.14690734E+03</totfact>
</mgrwt>
</event>
<event>
 4    1  0.5455400E-005  0.6821383E+03  0.7818608E-02  0.9748275E-01
         -2   -1    0    0    0  501 -0.00000000000E+00  0.00000000000E+00  0.37025238081E+03  0.37025238082E+03  0.25500000000E-02 0. -1.
          2   -1    0    0  501    0  0.00000000000E+00 -0.00000000000E+00 -0.31418612697E+03  0.31418612698E+03  0.25500000000E-02 0.  1.
    5000001    1    1    2    0    0  0.24528798045E+03  0.13643871729E+03  0.54244858438E+02  0.34436640602E+03  0.19200000000E+03 0.  0.
   -5000001    1    1    2    0    0 -0.24528798045E+03 -0.13643871729E+03  0.18213954091E+01  0.34007210178E+03  0.19200000000E+03 0.  0.
<mgrwt>
<rscale>  0 0.68213829E+03</rscale>
<asrwt>0</asrwt>
<pdfrwt beam="1">  1        2 0.44883732E-01 0.68213829E+03</pdfrwt>
<pdfrwt beam="2">  1       -2 0.52893197E-01 0.68213829E+03</pdfrwt>
<totfact> 0.38511225E+02</totfact>
</mgrwt>
</event>
<event>
 4    1  0.5455400E-005  0.4186104E+03  0.7818608E-02  0.1037520E+00
         -2   -1    0    0    0  501 -0.00000000000E+00  0.00000000000E+00  0.14885878504E+02  0.14885878722E+02  0.25500000000E-02 0. -1.
          2   -1    0    0  501    0  0.00000000000E+00 -0.00000000000E+00 -0.29429678076E+04  0.29429678076E+04  0.25500000000E-02 0.  1.
    5000001    1    1    2    0    0  0.62926678752E+02  0.13018940049E+02 -0.10891224436E+04  0.11077819988E+04  0.19200000000E+03 0.  0.
   -5000001    1    1    2    0    0 -0.62926678752E+02 -0.13018940049E+02 -0.18389594855E+04  0.18500716875E+04  0.19200000000E+03 0.  0.
<mgrwt>
<rscale>  0 0.41861038E+03</rscale>
<asrwt>0</asrwt>
<pdfrwt beam="1">  1        2 0.42042360E+00 0.41861038E+03</pdfrwt>
<pdfrwt beam="2">  1       -2 0.21265560E-02 0.41861038E+03</pdfrwt>
<totfact> 0.20720281E+03</totfact>
</mgrwt>
</event>
<event>
 4    1  0.5455400E-005  0.4624307E+03  0.7818608E-02  0.1024079E+00
          2   -1    0    0  501    0  0.00000000000E+00  0.00000000000E+00  0.16656644869E+04  0.16656644869E+04  0.25500000000E-02 0.  1.
         -2   -1    0    0    0  501 -0.00000000000E+00 -0.00000000000E+00 -0.32095620930E+02  0.32095621031E+02  0.25500000000E-02 0. -1.
    5000001    1    1    2    0    0  0.49053114334E+02  0.10454143630E+03  0.10264527367E+04  0.10506209310E+04  0.19200000000E+03 0.  0.
   -5000001    1    1    2    0    0 -0.49053114334E+02 -0.10454143630E+03  0.60711612926E+03  0.64713917695E+03  0.19200000000E+03 0.  0.
<mgrwt>
<rscale>  0 0.46243069E+03</rscale>
<asrwt>0</asrwt>
<pdfrwt beam="1">  1        2 0.23795205E+00 0.46243069E+03</pdfrwt>
<pdfrwt beam="2">  1       -2 0.45850890E-02 0.46243069E+03</pdfrwt>
<totfact> 0.28731922E+03</totfact>
</mgrwt>
</event>
<event>
 4    1  0.5455400E-005  0.5012007E+03  0.7818608E-02  0.1013466E+00
         -2   -1    0    0    0  501 -0.00000000000E+00  0.00000000000E+00  0.60296776986E+03  0.60296776986E+03  0.25500000000E-02 0. -1.
          2   -1    0    0  501    0  0.00000000000E+00 -0.00000000000E+00 -0.10415240534E+03  0.10415240537E+03  0.25500000000E-02 0.  1.
    5000001    1    1    2    0    0 -0.15914926186E+03 -0.62673798431E+01  0.28305513232E+03  0.37729560762E+03  0.19200000000E+03 0.  0.
   -5000001    1    1    2    0    0  0.15914926186E+03  0.62673798431E+01  0.21576023220E+03  0.32982456761E+03  0.19200000000E+03 0.  0.
<mgrwt>
<rscale>  0 0.50120073E+03</rscale>
<asrwt>0</asrwt>
<pdfrwt beam="1">  1        2 0.14878915E-01 0.50120073E+03</pdfrwt>
<pdfrwt beam="2">  1       -2 0.86138255E-01 0.50120073E+03</pdfrwt>
<totfact> 0.47769072E+02</totfact>
</mgrwt>
</event>
<event>
 4    1  0.5455400E-005  0.5413015E+03  0.7818608E-02  0.1003528E+00
          2   -1    0    0  501    0  0.00000000000E+00  0.00000000000E+00  0.15717674099E+04  0.15717674099E+04  0.25500000000E-02 0.  1.
         -2   -1    0    0    0  501 -0.00000000000E+00 -0.00000000000E+00 -0.46604752369E+02  0.46604752439E+02  0.25500000000E-02 0. -1.
    5000001    1    1    2    0    0  0.16282552487E+03 -0.32514530243E+02  0.48182073924E+03  0.54459578679E+03  0.19200000000E+03 0.  0.
   -5000001    1    1    2    0    0 -0.16282552487E+03  0.32514530243E+02  0.10433419183E+04  0.10737763755E+04  0.19200000000E+03 0.  0.
<mgrwt>
<rscale>  0 0.54130151E+03</rscale>
<asrwt>0</asrwt>
<pdfrwt beam="1">  1        2 0.22453818E+00 0.54130151E+03</pdfrwt>
<pdfrwt beam="2">  1       -2 0.66578224E-02 0.54130151E+03</pdfrwt>
<totfact> 0.17938524E+03</totfact>
</mgrwt>
</event>
<event>
 4    1  0.5455400E-005  0.8460589E+03  0.7818608E-02  0.9495642E-01
         -2   -1    0    0    0  501 -0.00000000000E+00  0.00000000000E+00  0.21321959572E+03  0.21321959573E+03  0.25500000000E-02 0.  1.
          2   -1    0    0  501    0  0.00000000000E+00 -0.00000000000E+00 -0.83929398154E+03  0.83929398155E+03  0.25500000000E-02 0. -1.
    5000001    1    1    2    0    0  0.11420807337E+03  0.33976576925E+03 -0.45814371377E+03  0.61257156679E+03  0.19200000000E+03 0.  0.
   -5000001    1    1    2    0    0 -0.11420807337E+03 -0.33976576925E+03 -0.16793067205E+03  0.43994201049E+03  0.19200000000E+03 0.  0.
<mgrwt>
<rscale>  0 0.84605892E+03</rscale>
<asrwt>0</asrwt>
<pdfrwt beam="1">  1        2 0.11989914E+00 0.84605892E+03</pdfrwt>
<pdfrwt beam="2">  1       -2 0.30459943E-01 0.84605892E+03</pdfrwt>
<totfact> 0.35633454E+02</totfact>
</mgrwt>
</event>
<event>
 4    1  0.5455400E-005  0.4759549E+03  0.7818608E-02  0.1020253E+00
          2   -1    0    0  501    0  0.00000000000E+00  0.00000000000E+00  0.15670604220E+04  0.15670604220E+04  0.25500000000E-02 0.  1.
         -2   -1    0    0    0  501 -0.00000000000E+00 -0.00000000000E+00 -0.36139810559E+02  0.36139810649E+02  0.25500000000E-02 0. -1.
    5000001    1    1    2    0    0 -0.97711971279E+02  0.21132985344E+01  0.11059369343E+04  0.11267264965E+04  0.19200000000E+03 0.  0.
   -5000001    1    1    2    0    0  0.97711971279E+02 -0.21132985344E+01  0.42498367711E+03  0.47647373608E+03  0.19200000000E+03 0.  0.
<mgrwt>
<rscale>  0 0.47595490E+03</rscale>
<asrwt>0</asrwt>
<pdfrwt beam="1">  1        2 0.22386573E+00 0.47595490E+03</pdfrwt>
<pdfrwt beam="2">  1       -2 0.51628311E-02 0.47595490E+03</pdfrwt>
<totfact> 0.26852539E+03</totfact>
</mgrwt>
</event>
<event>
 4    1  0.5455400E-005  0.6255360E+03  0.7818608E-02  0.9853799E-01
         -2   -1    0    0    0  501 -0.00000000000E+00  0.00000000000E+00  0.36229804791E+03  0.36229804792E+03  0.25500000000E-02 0. -1.
          2   -1    0    0  501    0  0.00000000000E+00 -0.00000000000E+00 -0.27000923052E+03  0.27000923053E+03  0.25500000000E-02 0.  1.
    5000001    1    1    2    0    0  0.19935367468E+03 -0.73740941672E+02  0.17312348874E+03  0.33468695290E+03  0.19200000000E+03 0.  0.
   -5000001    1    1    2    0    0 -0.19935367468E+03  0.73740941672E+02 -0.80834671354E+02  0.29762032555E+03  0.19200000000E+03 0.  0.
<mgrwt>
<rscale>  0 0.62553599E+03</rscale>
<asrwt>0</asrwt>
<pdfrwt beam="1">  1        2 0.38572747E-01 0.62553599E+03</pdfrwt>
<pdfrwt beam="2">  1       -2 0.51756864E-01 0.62553599E+03</pdfrwt>
<totfact> 0.47676794E+02</totfact>
</mgrwt>
</event>
<event>
 4    1  0.5455400E-005  0.4407640E+03  0.7818608E-02  0.1030513E+00
         -2   -1    0    0    0  501 -0.00000000000E+00  0.00000000000E+00  0.75925711609E+02  0.75925711652E+02  0.25500000000E-02 0.  1.
          2   -1    0    0  501    0  0.00000000000E+00 -0.00000000000E+00 -0.63968100302E+03  0.63968100303E+03  0.25500000000E-02 0. -1.
    5000001    1    1    2    0    0  0.26807242378E+02  0.83511132005E+02 -0.38470804850E+03  0.43881319487E+03  0.19200000000E+03 0.  0.
   -5000001    1    1    2    0    0 -0.26807242378E+02 -0.83511132005E+02 -0.17904724291E+03  0.27679351981E+03  0.19200000000E+03 0.  0.
<mgrwt>
<rscale>  0 0.44076404E+03</rscale>
<asrwt>0</asrwt>
<pdfrwt beam="1">  1        2 0.91382997E-01 0.44076404E+03</pdfrwt>
<pdfrwt beam="2">  1       -2 0.10846531E-01 0.44076404E+03</pdfrwt>
<totfact> 0.29946228E+03</totfact>
</mgrwt>
</event>
<event>
 4    1  0.5455400E-005  0.6591432E+03  0.7818608E-02  0.9789772E-01
          2   -1    0    0  501    0  0.00000000000E+00  0.00000000000E+00  0.15643858312E+04  0.15643858312E+04  0.25500000000E-02 0.  1.
         -2   -1    0    0    0  501 -0.00000000000E+00 -0.00000000000E+00 -0.69431361832E+02  0.69431361879E+02  0.25500000000E-02 0. -1.
    5000001    1    1    2    0    0  0.21911012260E+03  0.64754975378E+02  0.40089362501E+03  0.49978210376E+03  0.19200000000E+03 0.  0.
   -5000001    1    1    2    0    0 -0.21911012260E+03 -0.64754975378E+02  0.10940608443E+04  0.11340350893E+04  0.19200000000E+03 0.  0.
<mgrwt>
<rscale>  0 0.65914320E+03</rscale>
<asrwt>0</asrwt>
<pdfrwt beam="1">  1        2 0.22348369E+00 0.65914320E+03</pdfrwt>
<pdfrwt beam="2">  1       -2 0.99187659E-02 0.65914320E+03</pdfrwt>
<totfact> 0.95347555E+02</totfact>
</mgrwt>
</event>
<event>
 4    1  0.5455400E-005  0.9074728E+03  0.7818608E-02  0.9416288E-01
          2   -1    0    0  501    0  0.00000000000E+00  0.00000000000E+00  0.18758998573E+04  0.18758998573E+04  0.25500000000E-02 0.  1.
         -2   -1    0    0    0  501 -0.00000000000E+00 -0.00000000000E+00 -0.10974825630E+03  0.10974825633E+03  0.25500000000E-02 0. -1.
    5000001    1    1    2    0    0  0.39545925649E+03  0.10842332023E+03  0.81856935080E+03  0.93544824655E+03  0.19200000000E+03 0.  0.
   -5000001    1    1    2    0    0 -0.39545925649E+03 -0.10842332023E+03  0.94758225021E+03  0.10501998671E+04  0.19200000000E+03 0.  0.
<mgrwt>
<rscale>  0 0.90747284E+03</rscale>
<asrwt>0</asrwt>
<pdfrwt beam="1">  1        2 0.26798568E+00 0.90747284E+03</pdfrwt>
<pdfrwt beam="2">  1       -2 0.15678323E-01 0.90747284E+03</pdfrwt>
<totfact> 0.30422847E+02</totfact>
</mgrwt>
</event>
<event>
 4    1  0.5455400E-005  0.4272773E+03  0.7818608E-02  0.1034724E+00
          2   -1    0    0  501    0  0.00000000000E+00  0.00000000000E+00  0.29068106888E+04  0.29068106888E+04  0.25500000000E-02 0.  1.
         -2   -1    0    0    0  501 -0.00000000000E+00 -0.00000000000E+00 -0.15701560214E+02  0.15701560421E+02  0.25500000000E-02 0. -1.
    5000001    1    1    2    0    0 -0.24585193120E+02 -0.70946203159E+02  0.18288100860E+04  0.18403934705E+04  0.19200000000E+03 0.  0.
   -5000001    1    1    2    0    0  0.24585193120E+02  0.70946203159E+02  0.10622990425E+04  0.10821187787E+04  0.19200000000E+03 0.  0.
<mgrwt>
<rscale>  0 0.42727726E+03</rscale>
<asrwt>0</asrwt>
<pdfrwt beam="1">  1        2 0.41525896E+00 0.42727726E+03</pdfrwt>
<pdfrwt beam="2">  1       -2 0.22430785E-02 0.42727726E+03</pdfrwt>
<totfact> 0.19987028E+03</totfact>
</mgrwt>
</event>
<event>
 4    1  0.5455400E-005  0.5955541E+03  0.7818608E-02  0.9914673E-01
         -2   -1    0    0    0  501 -0.00000000000E+00  0.00000000000E+00  0.27106259725E+02  0.27106259845E+02  0.25500000000E-02 0. -1.
          2   -1    0    0  501    0  0.00000000000E+00 -0.00000000000E+00 -0.32712429200E+04  0.32712429200E+04  0.25500000000E-02 0.  1.
    5000001    1    1    2    0    0  0.14631343497E+03 -0.16668792488E+03 -0.13388741760E+04  0.13706350881E+04  0.19200000000E+03 0.  0.
   -5000001    1    1    2    0    0 -0.14631343497E+03  0.16668792488E+03 -0.19052624843E+04  0.19277140918E+04  0.19200000000E+03 0.  0.
<mgrwt>
<rscale>  0 0.59555406E+03</rscale>
<asrwt>0</asrwt>
<pdfrwt beam="1">  1        2 0.46732017E+00 0.59555406E+03</pdfrwt>
<pdfrwt beam="2">  1       -2 0.38723249E-02 0.59555406E+03</pdfrwt>
<totfact> 0.54288351E+02</totfact>
</mgrwt>
</event>
<event>
 4    1  0.5455400E-005  0.8715438E+03  0.7818608E-02  0.9461869E-01
         -2   -1    0    0    0  501 -0.00000000000E+00  0.00000000000E+00  0.17289565718E+03  0.17289565720E+03  0.25500000000E-02 0. -1.
          2   -1    0    0  501    0  0.00000000000E+00 -0.00000000000E+00 -0.10983337103E+04  0.10983337103E+04  0.25500000000E-02 0.  1.
    5000001    1    1    2    0    0  0.29522121138E+03 -0.25661168288E+03 -0.45499959755E+03  0.62999504221E+03  0.19200000000E+03 0.  0.
   -5000001    1    1    2    0    0 -0.29522121138E+03  0.25661168288E+03 -0.47043845552E+03  0.64123432524E+03  0.19200000000E+03 0.  0.
<mgrwt>
<rscale>  0 0.87154375E+03</rscale>
<asrwt>0</asrwt>
<pdfrwt beam="1">  1        2 0.15690481E+00 0.87154375E+03</pdfrwt>
<pdfrwt beam="2">  1       -2 0.24699380E-01 0.87154375E+03</pdfrwt>
<totfact> 0.35903300E+02</totfact>
</mgrwt>
</event>
<event>
 4    1  0.5455400E-005  0.6434170E+03  0.7818608E-02  0.9819211E-01
          2   -1    0    0  501    0  0.00000000000E+00  0.00000000000E+00  0.63007551695E+02  0.63007551747E+02  0.25500000000E-02 0.  1.
         -2   -1    0    0    0  501 -0.00000000000E+00 -0.00000000000E+00 -0.16426026350E+04  0.16426026350E+04  0.25500000000E-02 0. -1.
    5000001    1    1    2    0    0 -0.31750685333E+02  0.25577768469E+03 -0.82747715333E+03  0.88770083322E+03  0.19200000000E+03 0.  0.
   -5000001    1    1    2    0    0  0.31750685333E+02 -0.25577768469E+03 -0.75211792994E+03  0.81790935350E+03  0.19200000000E+03 0.  0.
<mgrwt>
<rscale>  0 0.64341704E+03</rscale>
<asrwt>0</asrwt>
<pdfrwt beam="1">  1        2 0.90010799E-02 0.64341704E+03</pdfrwt>
<pdfrwt beam="2">  1       -2 0.23465749E+00 0.64341704E+03</pdfrwt>
<totfact> 0.62765743E+01</totfact>
</mgrwt>
</event>
<event>
 4    1  0.5455400E-005  0.4662791E+03  0.7818608E-02  0.1022976E+00
         -2   -1    0    0    0  501 -0.00000000000E+00  0.00000000000E+00  0.11562782600E+02  0.11562782881E+02  0.25500000000E-02 0. -1.
          2   -1    0    0  501    0  0.00000000000E+00 -0.00000000000E+00 -0.47007764458E+04  0.47007764458E+04  0.25500000000E-02 0.  1.
    5000001    1    1    2    0    0  0.56408823400E+02  0.11929550366E+03 -0.24331068855E+04  0.24442353588E+04  0.19200000000E+03 0.  0.
   -5000001    1    1    2    0    0 -0.56408823400E+02 -0.11929550366E+03 -0.22561067776E+04  0.22681038699E+04  0.19200000000E+03 0.  0.
<mgrwt>
<rscale>  0 0.46627913E+03</rscale>
<asrwt>0</asrwt>
<pdfrwt beam="1">  1        2 0.67153827E+00 0.46627913E+03</pdfrwt>
<pdfrwt beam="2">  1       -2 0.16518291E-02 0.46627913E+03</pdfrwt>
<totfact> 0.21803320E+02</totfact>
</mgrwt>
</event>
<event>
 4    1  0.5455400E-005  0.5925535E+03  0.7818608E-02  0.9920977E-01
         -2   -1    0    0    0  501 -0.00000000000E+00  0.00000000000E+00  0.12988083012E+03  0.12988083014E+03  0.25500000000E-02 0. -1.
          2   -1    0    0  501    0  0.00000000000E+00 -0.00000000000E+00 -0.67584974876E+03  0.67584974876E+03  0.25500000000E-02 0.  1.
    5000001    1    1    2    0    0 -0.20648862376E+03  0.45972127288E+02 -0.16622002401E+03  0.33052092916E+03  0.19200000000E+03 0.  0.
   -5000001    1    1    2    0    0  0.20648862376E+03 -0.45972127288E+02 -0.37974889463E+03  0.47520964974E+03  0.19200000000E+03 0.  0.
<mgrwt>
<rscale>  0 0.59255355E+03</rscale>
<asrwt>0</asrwt>
<pdfrwt beam="1">  1        2 0.96549962E-01 0.59255355E+03</pdfrwt>
<pdfrwt beam="2">  1       -2 0.18554405E-01 0.59255355E+03</pdfrwt>
<totfact> 0.11451659E+03</totfact>
</mgrwt>
</event>
<event>
 4    1  0.5455400E-005  0.7858802E+03  0.7818608E-02  0.9580683E-01
          2   -1    0    0  501    0  0.00000000000E+00  0.00000000000E+00  0.85117381292E+03  0.85117381292E+03  0.25500000000E-02 0.  1.
         -2   -1    0    0    0  501 -0.00000000000E+00 -0.00000000000E+00 -0.18139883614E+03  0.18139883616E+03  0.25500000000E-02 0. -1.
    5000001    1    1    2    0    0  0.20588709963E+03  0.11465904394E+03  0.66205201048E+03  0.72850055507E+03  0.19200000000E+03 0.  0.
   -5000001    1    1    2    0    0 -0.20588709963E+03 -0.11465904394E+03  0.77229662986E+01  0.30407209401E+03  0.19200000000E+03 0.  0.
<mgrwt>
<rscale>  0 0.78588024E+03</rscale>
<asrwt>0</asrwt>
<pdfrwt beam="1">  1        2 0.12159626E+00 0.78588024E+03</pdfrwt>
<pdfrwt beam="2">  1       -2 0.25914118E-01 0.78588024E+03</pdfrwt>
<totfact> 0.47185017E+02</totfact>
</mgrwt>
</event>
<event>
 4    1  0.5455400E-005  0.1955739E+04  0.7818608E-02  0.8627598E-01
          2   -1    0    0  501    0  0.00000000000E+00  0.00000000000E+00  0.32290315652E+04  0.32290315652E+04  0.25500000000E-02 0. -1.
         -2   -1    0    0    0  501 -0.00000000000E+00 -0.00000000000E+00 -0.29613495226E+03  0.29613495227E+03  0.25500000000E-02 0.  1.
    5000001    1    1    2    0    0  0.97338636222E+02 -0.95160402237E+03  0.15851939471E+04  0.18613782193E+04  0.19200000000E+03 0.  0.
   -5000001    1    1    2    0    0 -0.97338636222E+02  0.95160402237E+03  0.13477026658E+04  0.16637882981E+04  0.19200000000E+03 0.  0.
<mgrwt>
<rscale>  0 0.19557394E+04</rscale>
<asrwt>0</asrwt>
<pdfrwt beam="1">  1        2 0.46129021E+00 0.19557394E+04</pdfrwt>
<pdfrwt beam="2">  1       -2 0.42304995E-01 0.19557394E+04</pdfrwt>
<totfact> 0.86648846E+00</totfact>
</mgrwt>
</event>
<event>
 4    1  0.5455400E-005  0.6402293E+03  0.7818608E-02  0.9825288E-01
         -2   -1    0    0    0  501 -0.00000000000E+00  0.00000000000E+00  0.94662578759E+03  0.94662578760E+03  0.25500000000E-02 0. -1.
          2   -1    0    0  501    0  0.00000000000E+00 -0.00000000000E+00 -0.10825122545E+03  0.10825122548E+03  0.25500000000E-02 0.  1.
    5000001    1    1    2    0    0  0.23302595375E+03  0.87022288827E+02  0.31848566884E+03  0.44740484478E+03  0.19200000000E+03 0.  0.
   -5000001    1    1    2    0    0 -0.23302595375E+03 -0.87022288827E+02  0.51988889331E+03  0.60747216830E+03  0.19200000000E+03 0.  0.
<mgrwt>
<rscale>  0 0.64022934E+03</rscale>
<asrwt>0</asrwt>
<pdfrwt beam="1">  1        2 0.15464461E-01 0.64022934E+03</pdfrwt>
<pdfrwt beam="2">  1       -2 0.13523226E+00 0.64022934E+03</pdfrwt>
<totfact> 0.15386033E+02</totfact>
</mgrwt>
</event>
<event>
 4    1  0.5455400E-005  0.4823090E+03  0.7818608E-02  0.1018503E+00
         -2   -1    0    0    0  501 -0.00000000000E+00  0.00000000000E+00  0.10816297302E+03  0.10816297305E+03  0.25500000000E-02 0. -1.
          2   -1    0    0  501    0  0.00000000000E+00 -0.00000000000E+00 -0.53766551392E+03  0.53766551393E+03  0.25500000000E-02 0.  1.
    5000001    1    1    2    0    0 -0.47889771676E+01 -0.14444185883E+03 -0.18779987291E+03  0.30499045419E+03  0.19200000000E+03 0.  0.
   -5000001    1    1    2    0    0  0.47889771676E+01  0.14444185883E+03 -0.24170266799E+03  0.34083803279E+03  0.19200000000E+03 0.  0.
<mgrwt>
<rscale>  0 0.48230903E+03</rscale>
<asrwt>0</asrwt>
<pdfrwt beam="1">  1        2 0.76809357E-01 0.48230903E+03</pdfrwt>
<pdfrwt beam="2">  1       -2 0.15451854E-01 0.48230903E+03</pdfrwt>
<totfact> 0.20457194E+03</totfact>
</mgrwt>
</event>
<event>
 4    1  0.5455400E-005  0.1158580E+04  0.7818608E-02  0.9149905E-01
          2   -1    0    0  501    0  0.00000000000E+00  0.00000000000E+00  0.18440244983E+04  0.18440244983E+04  0.25500000000E-02 0.  1.
         -2   -1    0    0    0  501 -0.00000000000E+00 -0.00000000000E+00 -0.18198063626E+03  0.18198063628E+03  0.25500000000E-02 0. -1.
    5000001    1    1    2    0    0  0.48030790938E+03 -0.24057106570E+03  0.10071342841E+04  0.11574772532E+04  0.19200000000E+03 0.  0.
   -5000001    1    1    2    0    0 -0.48030790938E+03  0.24057106570E+03  0.65490957797E+03  0.86852788140E+03  0.19200000000E+03 0.  0.
<mgrwt>
<rscale>  0 0.11585797E+04</rscale>
<asrwt>0</asrwt>
<pdfrwt beam="1">  1        2 0.26343206E+00 0.11585797E+04</pdfrwt>
<pdfrwt beam="2">  1       -2 0.25997235E-01 0.11585797E+04</pdfrwt>
<totfact> 0.12759821E+02</totfact>
</mgrwt>
</event>
<event>
 4    1  0.5455400E-005  0.4529507E+03  0.7818608E-02  0.1026846E+00
          2   -1    0    0  501    0  0.00000000000E+00  0.00000000000E+00  0.15499130880E+04  0.15499130880E+04  0.25500000000E-02 0.  1.
         -2   -1    0    0    0  501 -0.00000000000E+00 -0.00000000000E+00 -0.33092870388E+02  0.33092870487E+02  0.25500000000E-02 0. -1.
    5000001    1    1    2    0    0 -0.70228389302E+01 -0.84762873527E+02  0.46200414756E+03  0.50748980025E+03  0.19200000000E+03 0.  0.
   -5000001    1    1    2    0    0  0.70228389302E+01  0.84762873527E+02  0.10548160701E+04  0.10755161583E+04  0.19200000000E+03 0.  0.
<mgrwt>
<rscale>  0 0.45295065E+03</rscale>
<asrwt>0</asrwt>
<pdfrwt beam="1">  1        2 0.22141623E+00 0.45295065E+03</pdfrwt>
<pdfrwt beam="2">  1       -2 0.47275513E-02 0.45295065E+03</pdfrwt>
<totfact> 0.31394314E+03</totfact>
</mgrwt>
</event>
<event>
 4    1  0.5455400E-005  0.5992113E+03  0.7818608E-02  0.9907044E-01
          2   -1    0    0  501    0  0.00000000000E+00  0.00000000000E+00  0.21188169126E+04  0.21188169126E+04  0.25500000000E-02 0.  1.
         -2   -1    0    0    0  501 -0.00000000000E+00 -0.00000000000E+00 -0.42364940019E+02  0.42364940096E+02  0.25500000000E-02 0. -1.
    5000001    1    1    2    0    0  0.17440490004E+03 -0.14607899548E+03  0.91626745487E+03  0.96341382122E+03  0.19200000000E+03 0.  0.
   -5000001    1    1    2    0    0 -0.17440490004E+03  0.14607899548E+03  0.11601845177E+04  0.11977680315E+04  0.19200000000E+03 0.  0.
<mgrwt>
<rscale>  0 0.59921132E+03</rscale>
<asrwt>0</asrwt>
<pdfrwt beam="1">  1        2 0.30268814E+00 0.59921132E+03</pdfrwt>
<pdfrwt beam="2">  1       -2 0.60521341E-02 0.59921132E+03</pdfrwt>
<totfact> 0.11003455E+03</totfact>
</mgrwt>
</event>
<event>
 4    1  0.5455400E-005  0.4358039E+03  0.7818608E-02  0.1032042E+00
          2   -1    0    0  501    0  0.00000000000E+00  0.00000000000E+00  0.12769462879E+04  0.12769462879E+04  0.25500000000E-02 0.  1.
         -2   -1    0    0    0  501 -0.00000000000E+00 -0.00000000000E+00 -0.37183444289E+02  0.37183444376E+02  0.25500000000E-02 0. -1.
    5000001    1    1    2    0    0 -0.49065448062E+02  0.86080349939E+02  0.70517111683E+03  0.73752799869E+03  0.19200000000E+03 0.  0.
   -5000001    1    1    2    0    0  0.49065448062E+02 -0.86080349939E+02  0.53459172682E+03  0.57660173363E+03  0.19200000000E+03 0.  0.
<mgrwt>
<rscale>  0 0.43580391E+03</rscale>
<asrwt>0</asrwt>
<pdfrwt beam="1">  1        2 0.18242088E+00 0.43580391E+03</pdfrwt>
<pdfrwt beam="2">  1       -2 0.53119211E-02 0.43580391E+03</pdfrwt>
<totfact> 0.36479552E+03</totfact>
</mgrwt>
</event>
<event>
 4    1  0.5455400E-005  0.5355905E+03  0.7818608E-02  0.1004885E+00
          2   -1    0    0  501    0  0.00000000000E+00  0.00000000000E+00  0.40010662731E+04  0.40010662731E+04  0.25500000000E-02 0.  1.
         -2   -1    0    0    0  501 -0.00000000000E+00 -0.00000000000E+00 -0.17923798964E+02  0.17923799145E+02  0.25500000000E-02 0. -1.
    5000001    1    1    2    0    0 -0.17968822799E+03  0.36900570378E+02  0.22515984139E+04  0.22672028865E+04  0.19200000000E+03 0.  0.
   -5000001    1    1    2    0    0  0.17968822799E+03 -0.36900570378E+02  0.17315440602E+04  0.17517871857E+04  0.19200000000E+03 0.  0.
<mgrwt>
<rscale>  0 0.53559054E+03</rscale>
<asrwt>0</asrwt>
<pdfrwt beam="1">  1        2 0.57158181E+00 0.53559054E+03</pdfrwt>
<pdfrwt beam="2">  1       -2 0.25605386E-02 0.53559054E+03</pdfrwt>
<totfact> 0.36679627E+02</totfact>
</mgrwt>
</event>
<event>
 4    1  0.5455400E-005  0.5766720E+03  0.7818608E-02  0.9955022E-01
         -2   -1    0    0    0  501 -0.00000000000E+00  0.00000000000E+00  0.21001108649E+03  0.21001108650E+03  0.25500000000E-02 0. -1.
          2   -1    0    0  501    0  0.00000000000E+00 -0.00000000000E+00 -0.39587261839E+03  0.39587261840E+03  0.25500000000E-02 0.  1.
    5000001    1    1    2    0    0  0.12135302178E+03 -0.17548544807E+03 -0.64120177900E+02  0.29410388572E+03  0.19200000000E+03 0.  0.
   -5000001    1    1    2    0    0 -0.12135302178E+03  0.17548544807E+03 -0.12174135400E+03  0.31177981919E+03  0.19200000000E+03 0.  0.
<mgrwt>
<rscale>  0 0.57667196E+03</rscale>
<asrwt>0</asrwt>
<pdfrwt beam="1">  1        2 0.56553231E-01 0.57667196E+03</pdfrwt>
<pdfrwt beam="2">  1       -2 0.30001584E-01 0.57667196E+03</pdfrwt>
<totfact> 0.89938683E+02</totfact>
</mgrwt>
</event>
<event>
 4    1  0.5455400E-005  0.4732750E+03  0.7818608E-02  0.1021000E+00
          2   -1    0    0  501    0  0.00000000000E+00  0.00000000000E+00  0.18494602847E+04  0.18494602847E+04  0.25500000000E-02 0.  1.
         -2   -1    0    0    0  501 -0.00000000000E+00 -0.00000000000E+00 -0.30277643936E+02  0.30277644043E+02  0.25500000000E-02 0. -1.
    5000001    1    1    2    0    0 -0.47526124443E+02 -0.12026439190E+03  0.71456811142E+03  0.75112837939E+03  0.19200000000E+03 0.  0.
   -5000001    1    1    2    0    0  0.47526124443E+02  0.12026439190E+03  0.11046145293E+04  0.11286095494E+04  0.19200000000E+03 0.  0.
<mgrwt>
<rscale>  0 0.47327497E+03</rscale>
<asrwt>0</asrwt>
<pdfrwt beam="1">  1        2 0.26420863E+00 0.47327497E+03</pdfrwt>
<pdfrwt beam="2">  1       -2 0.43253775E-02 0.47327497E+03</pdfrwt>
<totfact> 0.25400499E+03</totfact>
</mgrwt>
</event>
<event>
 4    1  0.5455400E-005  0.1337481E+04  0.7818608E-02  0.9000360E-01
         -2   -1    0    0    0  501 -0.00000000000E+00  0.00000000000E+00  0.13800676454E+03  0.13800676457E+03  0.25500000000E-02 0. -1.
          2   -1    0    0  501    0  0.00000000000E+00 -0.00000000000E+00 -0.32405193144E+04  0.32405193144E+04  0.25500000000E-02 0.  1.
    5000001    1    1    2    0    0  0.59065494362E+03  0.24772020686E+03 -0.15778724578E+04  0.17137047751E+04  0.19200000000E+03 0.  0.
   -5000001    1    1    2    0    0 -0.59065494362E+03 -0.24772020686E+03 -0.15246400921E+04  0.16648213038E+04  0.19200000000E+03 0.  0.
<mgrwt>
<rscale>  0 0.13374806E+04</rscale>
<asrwt>0</asrwt>
<pdfrwt beam="1">  1        2 0.46293128E+00 0.13374806E+04</pdfrwt>
<pdfrwt beam="2">  1       -2 0.19715254E-01 0.13374806E+04</pdfrwt>
<totfact> 0.37260612E+01</totfact>
</mgrwt>
</event>
<event>
 4    1  0.5455400E-005  0.6556634E+03  0.7818608E-02  0.9796210E-01
          2   -1    0    0  501    0  0.00000000000E+00  0.00000000000E+00  0.21267110047E+04  0.21267110047E+04  0.25500000000E-02 0.  1.
         -2   -1    0    0    0  501 -0.00000000000E+00 -0.00000000000E+00 -0.50535133452E+02  0.50535133516E+02  0.25500000000E-02 0. -1.
    5000001    1    1    2    0    0 -0.60417359558E+02  0.45529096778E+02  0.18839579983E+04  0.18952268717E+04  0.19200000000E+03 0.  0.
   -5000001    1    1    2    0    0  0.60417359558E+02 -0.45529096778E+02  0.19221787296E+03  0.28201926650E+03  0.19200000000E+03 0.  0.
<mgrwt>
<rscale>  0 0.65566340E+03</rscale>
<asrwt>0</asrwt>
<pdfrwt beam="1">  1        2 0.30381587E+00 0.65566340E+03</pdfrwt>
<pdfrwt beam="2">  1       -2 0.72193045E-02 0.65566340E+03</pdfrwt>
<totfact> 0.82288489E+02</totfact>
</mgrwt>
</event>
<event>
 4    1  0.5455400E-005  0.7893149E+03  0.7818608E-02  0.9575613E-01
          2   -1    0    0  501    0  0.00000000000E+00  0.00000000000E+00  0.12821721343E+04  0.12821721343E+04  0.25500000000E-02 0.  1.
         -2   -1    0    0    0  501 -0.00000000000E+00 -0.00000000000E+00 -0.12147707377E+03  0.12147707380E+03  0.25500000000E-02 0. -1.
    5000001    1    1    2    0    0 -0.28974016424E+03 -0.18449758829E+03  0.52694492558E+03  0.65766532329E+03  0.19200000000E+03 0.  0.
   -5000001    1    1    2    0    0  0.28974016424E+03  0.18449758829E+03  0.63375013493E+03  0.74598388480E+03  0.19200000000E+03 0.  0.
<mgrwt>
<rscale>  0 0.78931494E+03</rscale>
<asrwt>0</asrwt>
<pdfrwt beam="1">  1        2 0.18316745E+00 0.78931494E+03</pdfrwt>
<pdfrwt beam="2">  1       -2 0.17353868E-01 0.78931494E+03</pdfrwt>
<totfact> 0.52715954E+02</totfact>
</mgrwt>
</event>
<event>
 4    1  0.5455400E-005  0.9002475E+03  0.7818608E-02  0.9425272E-01
         -2   -1    0    0    0  501 -0.00000000000E+00  0.00000000000E+00  0.19084862657E+03  0.19084862658E+03  0.25500000000E-02 0. -1.
          2   -1    0    0  501    0  0.00000000000E+00 -0.00000000000E+00 -0.10616340598E+04  0.10616340598E+04  0.25500000000E-02 0.  1.
    5000001    1    1    2    0    0  0.25030570488E+02  0.14251238837E+03  0.94039918606E+02  0.25815463697E+03  0.19200000000E+03 0.  0.
   -5000001    1    1    2    0    0 -0.25030570488E+02 -0.14251238837E+03 -0.96482535180E+03  0.99432804938E+03  0.19200000000E+03 0.  0.
<mgrwt>
<rscale>  0 0.90024753E+03</rscale>
<asrwt>0</asrwt>
<pdfrwt beam="1">  1        2 0.15166200E+00 0.90024753E+03</pdfrwt>
<pdfrwt beam="2">  1       -2 0.27264090E-01 0.90024753E+03</pdfrwt>
<totfact> 0.31506987E+02</totfact>
</mgrwt>
</event>
<event>
 4    1  0.5455400E-005  0.6013061E+03  0.7818608E-02  0.9902700E-01
         -2   -1    0    0    0  501 -0.00000000000E+00  0.00000000000E+00  0.96259856061E+02  0.96259856095E+02  0.25500000000E-02 0. -1.
          2   -1    0    0  501    0  0.00000000000E+00 -0.00000000000E+00 -0.93904431379E+03  0.93904431379E+03  0.25500000000E-02 0.  1.
    5000001    1    1    2    0    0 -0.20953488256E+03 -0.58896686976E+02 -0.55646619837E+03  0.62760841030E+03  0.19200000000E+03 0.  0.
   -5000001    1    1    2    0    0  0.20953488256E+03  0.58896686976E+02 -0.28631825936E+03  0.40769575959E+03  0.19200000000E+03 0.  0.
<mgrwt>
<rscale>  0 0.60130615E+03</rscale>
<asrwt>0</asrwt>
<pdfrwt beam="1">  1        2 0.13414918E+00 0.60130615E+03</pdfrwt>
<pdfrwt beam="2">  1       -2 0.13751409E-01 0.60130615E+03</pdfrwt>
<totfact> 0.12491410E+03</totfact>
</mgrwt>
</event>
<event>
 4    1  0.5455400E-005  0.5129681E+03  0.7818608E-02  0.1010448E+00
         -2   -1    0    0    0  501 -0.00000000000E+00  0.00000000000E+00  0.71698430856E+03  0.71698430857E+03  0.25500000000E-02 0. -1.
          2   -1    0    0  501    0  0.00000000000E+00 -0.00000000000E+00 -0.91751041566E+02  0.91751041602E+02  0.25500000000E-02 0.  1.
    5000001    1    1    2    0    0  0.78627921595E+02  0.14586850184E+03  0.37285948293E+03  0.45094141958E+03  0.19200000000E+03 0.  0.
   -5000001    1    1    2    0    0 -0.78627921595E+02 -0.14586850184E+03  0.25237378407E+03  0.35779393059E+03  0.19200000000E+03 0.  0.
<mgrwt>
<rscale>  0 0.51296806E+03</rscale>
<asrwt>0</asrwt>
<pdfrwt beam="1">  1        2 0.13107292E-01 0.51296806E+03</pdfrwt>
<pdfrwt beam="2">  1       -2 0.10242633E+00 0.51296806E+03</pdfrwt>
<totfact> 0.37322604E+02</totfact>
</mgrwt>
</event>
<event>
 4    1  0.5455400E-005  0.7409443E+03  0.7818608E-02  0.9649665E-01
         -2   -1    0    0    0  501 -0.00000000000E+00  0.00000000000E+00  0.30645229178E+03  0.30645229179E+03  0.25500000000E-02 0. -1.
          2   -1    0    0  501    0  0.00000000000E+00 -0.00000000000E+00 -0.44786611512E+03  0.44786611513E+03  0.25500000000E-02 0.  1.
    5000001    1    1    2    0    0 -0.10508721696E+03 -0.21096828672E+03  0.14485701813E+03  0.33674693298E+03  0.19200000000E+03 0.  0.
   -5000001    1    1    2    0    0  0.10508721696E+03  0.21096828672E+03 -0.28627084147E+03  0.41757147394E+03  0.19200000000E+03 0.  0.
<mgrwt>
<rscale>  0 0.74094426E+03</rscale>
<asrwt>0</asrwt>
<pdfrwt beam="1">  1        2 0.63980873E-01 0.74094426E+03</pdfrwt>
<pdfrwt beam="2">  1       -2 0.43778899E-01 0.74094426E+03</pdfrwt>
<totfact> 0.37923870E+02</totfact>
</mgrwt>
</event>
<event>
 4    1  0.5455400E-005  0.6517700E+03  0.7818608E-02  0.9803464E-01
         -2   -1    0    0    0  501 -0.00000000000E+00  0.00000000000E+00  0.93420762288E+02  0.93420762322E+02  0.25500000000E-02 0. -1.
          2   -1    0    0  501    0  0.00000000000E+00 -0.00000000000E+00 -0.11368031931E+04  0.11368031931E+04  0.25500000000E-02 0.  1.
    5000001    1    1    2    0    0 -0.25140918486E+03  0.74718072761E+02 -0.47751970181E+03  0.57764905803E+03  0.19200000000E+03 0.  0.
   -5000001    1    1    2    0    0  0.25140918486E+03 -0.74718072761E+02 -0.56586272895E+03  0.65257489734E+03  0.19200000000E+03 0.  0.
<mgrwt>
<rscale>  0 0.65176996E+03</rscale>
<asrwt>0</asrwt>
<pdfrwt beam="1">  1        2 0.16240045E+00 0.65176996E+03</pdfrwt>
<pdfrwt beam="2">  1       -2 0.13345824E-01 0.65176996E+03</pdfrwt>
<totfact> 0.99777716E+02</totfact>
</mgrwt>
</event>
<event>
 4    1  0.5455400E-005  0.6079175E+03  0.7818608E-02  0.9889115E-01
         -2   -1    0    0    0  501 -0.00000000000E+00  0.00000000000E+00  0.16642152135E+03  0.16642152137E+03  0.25500000000E-02 0.  1.
          2   -1    0    0  501    0  0.00000000000E+00 -0.00000000000E+00 -0.55516209716E+03  0.55516209716E+03  0.25500000000E-02 0. -1.
    5000001    1    1    2    0    0  0.19295024342E+03 -0.22190787790E+02 -0.35275354524E+03  0.44611802382E+03  0.19200000000E+03 0.  0.
   -5000001    1    1    2    0    0 -0.19295024342E+03  0.22190787790E+02 -0.35987030568E+02  0.27546559471E+03  0.19200000000E+03 0.  0.
<mgrwt>
<rscale>  0 0.60791750E+03</rscale>
<asrwt>0</asrwt>
<pdfrwt beam="1">  1        2 0.79308870E-01 0.60791750E+03</pdfrwt>
<pdfrwt beam="2">  1       -2 0.23774503E-01 0.60791750E+03</pdfrwt>
<totfact> 0.93560459E+02</totfact>
</mgrwt>
</event>
<event>
 4    1  0.5455400E-005  0.6943483E+03  0.7818608E-02  0.9726946E-01
          2   -1    0    0  501    0  0.00000000000E+00  0.00000000000E+00  0.81680887051E+03  0.81680887052E+03  0.25500000000E-02 0.  1.
         -2   -1    0    0    0  501 -0.00000000000E+00 -0.00000000000E+00 -0.14756194447E+03  0.14756194449E+03  0.25500000000E-02 0. -1.
    5000001    1    1    2    0    0  0.21327587337E+03 -0.70458627691E+02  0.81499619039E+02  0.30652439427E+03  0.19200000000E+03 0.  0.
   -5000001    1    1    2    0    0 -0.21327587337E+03  0.70458627691E+02  0.58774730701E+03  0.65784642073E+03  0.19200000000E+03 0.  0.
<mgrwt>
<rscale>  0 0.69434834E+03</rscale>
<asrwt>0</asrwt>
<pdfrwt beam="1">  1        2 0.11668698E+00 0.69434834E+03</pdfrwt>
<pdfrwt beam="2">  1       -2 0.21080278E-01 0.69434834E+03</pdfrwt>
<totfact> 0.72203303E+02</totfact>
</mgrwt>
</event>
<event>
 4    1  0.5455400E-005  0.4926759E+03  0.7818608E-02  0.1015708E+00
         -2   -1    0    0    0  501 -0.00000000000E+00  0.00000000000E+00  0.91238525104E+02  0.91238525140E+02  0.25500000000E-02 0. -1.
          2   -1    0    0  501    0  0.00000000000E+00 -0.00000000000E+00 -0.66509605497E+03  0.66509605498E+03  0.25500000000E-02 0.  1.
    5000001    1    1    2    0    0  0.15398150231E+03  0.26117642395E-01 -0.30288844140E+03  0.39027645544E+03  0.19200000000E+03 0.  0.
   -5000001    1    1    2    0    0 -0.15398150231E+03 -0.26117642395E-01 -0.27096908847E+03  0.36605812468E+03  0.19200000000E+03 0.  0.
<mgrwt>
<rscale>  0 0.49267589E+03</rscale>
<asrwt>0</asrwt>
<pdfrwt beam="1">  1        2 0.95013719E-01 0.49267589E+03</pdfrwt>
<pdfrwt beam="2">  1       -2 0.13034075E-01 0.49267589E+03</pdfrwt>
<totfact> 0.21188673E+03</totfact>
</mgrwt>
</event>
<event>
 4    1  0.5455400E-005  0.6141900E+03  0.7818608E-02  0.9876396E-01
          2   -1    0    0  501    0  0.00000000000E+00  0.00000000000E+00  0.71564333994E+03  0.71564333994E+03  0.25500000000E-02 0.  1.
         -2   -1    0    0    0  501 -0.00000000000E+00 -0.00000000000E+00 -0.13177980893E+03  0.13177980895E+03  0.25500000000E-02 0. -1.
    5000001    1    1    2    0    0  0.57440671082E+02 -0.23151630974E+03  0.32411583990E+03  0.44588598323E+03  0.19200000000E+03 0.  0.
   -5000001    1    1    2    0    0 -0.57440671082E+02  0.23151630974E+03  0.25974769111E+03  0.40153716566E+03  0.19200000000E+03 0.  0.
<mgrwt>
<rscale>  0 0.61419001E+03</rscale>
<asrwt>0</asrwt>
<pdfrwt beam="1">  1        2 0.10223476E+00 0.61419001E+03</pdfrwt>
<pdfrwt beam="2">  1       -2 0.18825687E-01 0.61419001E+03</pdfrwt>
<totfact> 0.10410740E+03</totfact>
</mgrwt>
</event>
<event>
 4    1  0.5455400E-005  0.4672402E+03  0.7818608E-02  0.1022702E+00
          2   -1    0    0  501    0  0.00000000000E+00  0.00000000000E+00  0.46949530965E+03  0.46949530966E+03  0.25500000000E-02 0.  1.
         -2   -1    0    0    0  501 -0.00000000000E+00 -0.00000000000E+00 -0.11624897048E+03  0.11624897050E+03  0.25500000000E-02 0. -1.
    5000001    1    1    2    0    0 -0.88134980782E+02  0.97732477743E+02  0.15170992266E+03  0.27784764292E+03  0.19200000000E+03 0.  0.
   -5000001    1    1    2    0    0  0.88134980782E+02 -0.97732477743E+02  0.20153641651E+03  0.30789663724E+03  0.19200000000E+03 0.  0.
<mgrwt>
<rscale>  0 0.46724018E+03</rscale>
<asrwt>0</asrwt>
<pdfrwt beam="1">  1        2 0.67070758E-01 0.46724018E+03</pdfrwt>
<pdfrwt beam="2">  1       -2 0.16606996E-01 0.46724018E+03</pdfrwt>
<totfact> 0.21109952E+03</totfact>
</mgrwt>
</event>
<event>
 4    1  0.5455400E-005  0.5018973E+03  0.7818608E-02  0.1013285E+00
          2   -1    0    0  501    0  0.00000000000E+00  0.00000000000E+00  0.14735580835E+04  0.14735580835E+04  0.25500000000E-02 0.  1.
         -2   -1    0    0    0  501 -0.00000000000E+00 -0.00000000000E+00 -0.42736840252E+02  0.42736840328E+02  0.25500000000E-02 0. -1.
    5000001    1    1    2    0    0 -0.53884669055E+02 -0.14618759686E+03  0.58592988605E+03  0.63596556699E+03  0.19200000000E+03 0.  0.
   -5000001    1    1    2    0    0  0.53884669055E+02  0.14618759686E+03  0.84489135717E+03  0.88032935681E+03  0.19200000000E+03 0.  0.
<mgrwt>
<rscale>  0 0.50189727E+03</rscale>
<asrwt>0</asrwt>
<pdfrwt beam="1">  1        2 0.21050830E+00 0.50189727E+03</pdfrwt>
<pdfrwt beam="2">  1       -2 0.61052627E-02 0.50189727E+03</pdfrwt>
<totfact> 0.23116299E+03</totfact>
</mgrwt>
</event>
<event>
 4    1  0.5455400E-005  0.4188194E+03  0.7818608E-02  0.1037451E+00
          2   -1    0    0  501    0  0.00000000000E+00  0.00000000000E+00  0.31175158928E+03  0.31175158929E+03  0.25500000000E-02 0.  1.
         -2   -1    0    0    0  501 -0.00000000000E+00 -0.00000000000E+00 -0.14066461335E+03  0.14066461338E+03  0.25500000000E-02 0. -1.
    5000001    1    1    2    0    0  0.27226003048E+02  0.58539189488E+02  0.14291033134E+03  0.24790210720E+03  0.19200000000E+03 0.  0.
   -5000001    1    1    2    0    0 -0.27226003048E+02 -0.58539189488E+02  0.28176644587E+02  0.20451409548E+03  0.19200000000E+03 0.  0.
<mgrwt>
<rscale>  0 0.41881937E+03</rscale>
<asrwt>0</asrwt>
<pdfrwt beam="1">  1        2 0.44535941E-01 0.41881937E+03</pdfrwt>
<pdfrwt beam="2">  1       -2 0.20094945E-01 0.41881937E+03</pdfrwt>
<totfact> 0.23881976E+03</totfact>
</mgrwt>
</event>
<event>
 4    1  0.5455400E-005  0.5926075E+03  0.7818608E-02  0.9920863E-01
          2   -1    0    0  501    0  0.00000000000E+00  0.00000000000E+00  0.12483753107E+04  0.12483753107E+04  0.25500000000E-02 0.  1.
         -2   -1    0    0    0  501 -0.00000000000E+00 -0.00000000000E+00 -0.70328127593E+02  0.70328127639E+02  0.25500000000E-02 0. -1.
    5000001    1    1    2    0    0  0.11458232361E+03  0.19432291404E+03  0.57470663759E+03  0.64656184785E+03  0.19200000000E+03 0.  0.
   -5000001    1    1    2    0    0 -0.11458232361E+03 -0.19432291404E+03  0.60334054555E+03  0.67214159053E+03  0.19200000000E+03 0.  0.
<mgrwt>
<rscale>  0 0.59260745E+03</rscale>
<asrwt>0</asrwt>
<pdfrwt beam="1">  1        2 0.17833932E+00 0.59260745E+03</pdfrwt>
<pdfrwt beam="2">  1       -2 0.10046876E-01 0.59260745E+03</pdfrwt>
<totfact> 0.13789429E+03</totfact>
</mgrwt>
</event>
<event>
 4    1  0.5455400E-005  0.5848768E+03  0.7818608E-02  0.9937288E-01
          2   -1    0    0  501    0  0.00000000000E+00  0.00000000000E+00  0.48074911769E+03  0.48074911769E+03  0.25500000000E-02 0.  1.
         -2   -1    0    0    0  501 -0.00000000000E+00 -0.00000000000E+00 -0.17788948535E+03  0.17788948537E+03  0.25500000000E-02 0. -1.
    5000001    1    1    2    0    0 -0.18998187753E+03 -0.83423447926E+02  0.67131784445E+02  0.29055681361E+03  0.19200000000E+03 0.  0.
   -5000001    1    1    2    0    0  0.18998187753E+03  0.83423447926E+02  0.23572784789E+03  0.36808178945E+03  0.19200000000E+03 0.  0.
<mgrwt>
<rscale>  0 0.58487678E+03</rscale>
<asrwt>0</asrwt>
<pdfrwt beam="1">  1        2 0.68678446E-01 0.58487678E+03</pdfrwt>
<pdfrwt beam="2">  1       -2 0.25412784E-01 0.58487678E+03</pdfrwt>
<totfact> 0.97923675E+02</totfact>
</mgrwt>
</event>
<event>
 4    1  0.5455400E-005  0.5292840E+03  0.7818608E-02  0.1006406E+00
         -2   -1    0    0    0  501 -0.00000000000E+00  0.00000000000E+00  0.46646055235E+02  0.46646055305E+02  0.25500000000E-02 0. -1.
          2   -1    0    0  501    0  0.00000000000E+00 -0.00000000000E+00 -0.15014211901E+04  0.15014211901E+04  0.25500000000E-02 0.  1.
    5000001    1    1    2    0    0  0.12326970454E+03  0.11782311306E+03 -0.54025150015E+03  0.59817504916E+03  0.19200000000E+03 0.  0.
   -5000001    1    1    2    0    0 -0.12326970454E+03 -0.11782311306E+03 -0.91452363474E+03  0.94989219626E+03  0.19200000000E+03 0.  0.
<mgrwt>
<rscale>  0 0.52928395E+03</rscale>
<asrwt>0</asrwt>
<pdfrwt beam="1">  1        2 0.21448871E+00 0.52928395E+03</pdfrwt>
<pdfrwt beam="2">  1       -2 0.66637231E-02 0.52928395E+03</pdfrwt>
<totfact> 0.19482329E+03</totfact>
</mgrwt>
</event>
<event>
 4    1  0.5455400E-005  0.9412993E+03  0.7818608E-02  0.9375379E-01
         -2   -1    0    0    0  501 -0.00000000000E+00  0.00000000000E+00  0.32023906807E+03  0.32023906808E+03  0.25500000000E-02 0.  1.
          2   -1    0    0  501    0  0.00000000000E+00 -0.00000000000E+00 -0.69170539059E+03  0.69170539060E+03  0.25500000000E-02 0. -1.
    5000001    1    1    2    0    0  0.93916200521E+02 -0.34648453764E+03  0.68159360911E+02  0.41277292308E+03  0.19200000000E+03 0.  0.
   -5000001    1    1    2    0    0 -0.93916200521E+02  0.34648453764E+03 -0.43962568343E+03  0.59917153560E+03  0.19200000000E+03 0.  0.
<mgrwt>
<rscale>  0 0.94129929E+03</rscale>
<asrwt>0</asrwt>
<pdfrwt beam="1">  1        2 0.98815055E-01 0.94129929E+03</pdfrwt>
<pdfrwt beam="2">  1       -2 0.45748439E-01 0.94129929E+03</pdfrwt>
<totfact> 0.20704446E+02</totfact>
</mgrwt>
</event>
<event>
 4    1  0.5455400E-005  0.6708658E+03  0.7818608E-02  0.9768395E-01
         -2   -1    0    0    0  501 -0.00000000000E+00  0.00000000000E+00  0.63884601504E+02  0.63884601555E+02  0.25500000000E-02 0. -1.
          2   -1    0    0  501    0  0.00000000000E+00 -0.00000000000E+00 -0.17612260536E+04  0.17612260536E+04  0.25500000000E-02 0.  1.
    5000001    1    1    2    0    0  0.22886721154E+03 -0.21736050607E+02 -0.43789256538E+03  0.53053421683E+03  0.19200000000E+03 0.  0.
   -5000001    1    1    2    0    0 -0.22886721154E+03  0.21736050607E+02 -0.12594488867E+04  0.12945764383E+04  0.19200000000E+03 0.  0.
<mgrwt>
<rscale>  0 0.67086578E+03</rscale>
<asrwt>0</asrwt>
<pdfrwt beam="1">  1        2 0.25160369E+00 0.67086578E+03</pdfrwt>
<pdfrwt beam="2">  1       -2 0.91263727E-02 0.67086578E+03</pdfrwt>
<totfact> 0.86434700E+02</totfact>
</mgrwt>
</event>
<event>
 4    1  0.5455400E-005  0.5202883E+03  0.7818608E-02  0.1008615E+00
          2   -1    0    0  501    0  0.00000000000E+00  0.00000000000E+00  0.89093153598E+03  0.89093153599E+03  0.25500000000E-02 0.  1.
         -2   -1    0    0    0  501 -0.00000000000E+00 -0.00000000000E+00 -0.75959786087E+02  0.75959786130E+02  0.25500000000E-02 0. -1.
    5000001    1    1    2    0    0  0.11827883586E+03 -0.12884018979E+03  0.43513083068E+03  0.50674699538E+03  0.19200000000E+03 0.  0.
   -5000001    1    1    2    0    0 -0.11827883586E+03  0.12884018979E+03  0.37984091921E+03  0.46014432673E+03  0.19200000000E+03 0.  0.
<mgrwt>
<rscale>  0 0.52028826E+03</rscale>
<asrwt>0</asrwt>
<pdfrwt beam="1">  1        2 0.12727593E+00 0.52028826E+03</pdfrwt>
<pdfrwt beam="2">  1       -2 0.10851398E-01 0.52028826E+03</pdfrwt>
<totfact> 0.19820487E+03</totfact>
</mgrwt>
</event>
<event>
 4    1  0.5455400E-005  0.8687725E+03  0.7818608E-02  0.9465482E-01
         -2   -1    0    0    0  501 -0.00000000000E+00  0.00000000000E+00  0.50702940515E+02  0.50702940579E+02  0.25500000000E-02 0. -1.
          2   -1    0    0  501    0  0.00000000000E+00 -0.00000000000E+00 -0.37215079491E+04  0.37215079491E+04  0.25500000000E-02 0.  1.
    5000001    1    1    2    0    0  0.16929990731E+03 -0.86823322673E+02 -0.33118529937E+04  0.33228654803E+04  0.19200000000E+03 0.  0.
   -5000001    1    1    2    0    0 -0.16929990731E+03  0.86823322673E+02 -0.35895201484E+03  0.44934540938E+03  0.19200000000E+03 0.  0.
<mgrwt>
<rscale>  0 0.86877246E+03</rscale>
<asrwt>0</asrwt>
<pdfrwt beam="1">  1        2 0.53164382E+00 0.86877246E+03</pdfrwt>
<pdfrwt beam="2">  1       -2 0.72432796E-02 0.86877246E+03</pdfrwt>
<totfact> 0.10648697E+02</totfact>
</mgrwt>
</event>
<event>
 4    1  0.5455400E-005  0.7301018E+03  0.7818608E-02  0.9667095E-01
          2   -1    0    0  501    0  0.00000000000E+00  0.00000000000E+00  0.16534060187E+03  0.16534060189E+03  0.25500000000E-02 0.  1.
         -2   -1    0    0    0  501 -0.00000000000E+00 -0.00000000000E+00 -0.80598573687E+03  0.80598573688E+03  0.25500000000E-02 0. -1.
    5000001    1    1    2    0    0  0.19074204640E+03  0.23683670116E+03 -0.23698379584E+03  0.43069649496E+03  0.19200000000E+03 0.  0.
   -5000001    1    1    2    0    0 -0.19074204640E+03 -0.23683670116E+03 -0.40366133916E+03  0.54062984381E+03  0.19200000000E+03 0.  0.
<mgrwt>
<rscale>  0 0.73010182E+03</rscale>
<asrwt>0</asrwt>
<pdfrwt beam="1">  1        2 0.23620086E-01 0.73010182E+03</pdfrwt>
<pdfrwt beam="2">  1       -2 0.11514082E+00 0.73010182E+03</pdfrwt>
<totfact> 0.13891229E+02</totfact>
</mgrwt>
</event>
<event>
 4    1  0.5455400E-005  0.4209386E+03  0.7818608E-02  0.1036761E+00
          2   -1    0    0  501    0  0.00000000000E+00  0.00000000000E+00  0.28288944146E+03  0.28288944147E+03  0.25500000000E-02 0.  1.
         -2   -1    0    0    0  501 -0.00000000000E+00 -0.00000000000E+00 -0.15658884933E+03  0.15658884935E+03  0.25500000000E-02 0. -1.
    5000001    1    1    2    0    0  0.84410068867E+02  0.43355042335E+01  0.80913642410E+02  0.22484411011E+03  0.19200000000E+03 0.  0.
   -5000001    1    1    2    0    0 -0.84410068867E+02 -0.43355042335E+01  0.45386949720E+02  0.21463418071E+03  0.19200000000E+03 0.  0.
<mgrwt>
<rscale>  0 0.42093863E+03</rscale>
<asrwt>0</asrwt>
<pdfrwt beam="1">  1        2 0.40412777E-01 0.42093863E+03</pdfrwt>
<pdfrwt beam="2">  1       -2 0.22369836E-01 0.42093863E+03</pdfrwt>
<totfact> 0.22032590E+03</totfact>
</mgrwt>
</event>
<event>
 4    1  0.5455400E-005  0.5651861E+03  0.7818608E-02  0.9980388E-01
          2   -1    0    0  501    0  0.00000000000E+00  0.00000000000E+00  0.27448983280E+04  0.27448983280E+04  0.25500000000E-02 0.  1.
         -2   -1    0    0    0  501 -0.00000000000E+00 -0.00000000000E+00 -0.29093551196E+02  0.29093551307E+02  0.25500000000E-02 0. -1.
    5000001    1    1    2    0    0  0.14335979612E+03 -0.98233664919E+02  0.19130380737E+04  0.19304871291E+04  0.19200000000E+03 0.  0.
   -5000001    1    1    2    0    0 -0.14335979612E+03  0.98233664919E+02  0.80276670311E+03  0.84350475025E+03  0.19200000000E+03 0.  0.
<mgrwt>
<rscale>  0 0.56518613E+03</rscale>
<asrwt>0</asrwt>
<pdfrwt beam="1">  1        2 0.39212825E+00 0.56518613E+03</pdfrwt>
<pdfrwt beam="2">  1       -2 0.41562225E-02 0.56518613E+03</pdfrwt>
<totfact> 0.94553066E+02</totfact>
</mgrwt>
</event>
<event>
 4    1  0.5455400E-005  0.4989176E+03  0.7818608E-02  0.1014062E+00
         -2   -1    0    0    0  501 -0.00000000000E+00  0.00000000000E+00  0.20144917371E+03  0.20144917373E+03  0.25500000000E-02 0. -1.
          2   -1    0    0  501    0  0.00000000000E+00 -0.00000000000E+00 -0.30891015621E+03  0.30891015623E+03  0.25500000000E-02 0.  1.
    5000001    1    1    2    0    0 -0.15723138889E+03  0.25200324867E+02 -0.56787281990E+02  0.25582330117E+03  0.19200000000E+03 0.  0.
   -5000001    1    1    2    0    0  0.15723138889E+03 -0.25200324867E+02 -0.50673700514E+02  0.25453602878E+03  0.19200000000E+03 0.  0.
<mgrwt>
<rscale>  0 0.49891761E+03</rscale>
<asrwt>0</asrwt>
<pdfrwt beam="1">  1        2 0.44130022E-01 0.49891761E+03</pdfrwt>
<pdfrwt beam="2">  1       -2 0.28778453E-01 0.49891761E+03</pdfrwt>
<totfact> 0.12764221E+03</totfact>
</mgrwt>
</event>
<event>
 4    1  0.5455400E-005  0.4306472E+03  0.7818608E-02  0.1033656E+00
         -2   -1    0    0    0  501 -0.00000000000E+00  0.00000000000E+00  0.31967335847E+02  0.31967335948E+02  0.25500000000E-02 0. -1.
          2   -1    0    0  501    0  0.00000000000E+00 -0.00000000000E+00 -0.14503633851E+04  0.14503633851E+04  0.25500000000E-02 0.  1.
    5000001    1    1    2    0    0  0.90019518257E+02  0.36905127882E+02 -0.68890674293E+03  0.72174926573E+03  0.19200000000E+03 0.  0.
   -5000001    1    1    2    0    0 -0.90019518257E+02 -0.36905127882E+02 -0.72948930629E+03  0.76058145528E+03  0.19200000000E+03 0.  0.
<mgrwt>
<rscale>  0 0.43064720E+03</rscale>
<asrwt>0</asrwt>
<pdfrwt beam="1">  1        2 0.20719473E+00 0.43064720E+03</pdfrwt>
<pdfrwt beam="2">  1       -2 0.45667632E-02 0.43064720E+03</pdfrwt>
<totfact> 0.37261644E+03</totfact>
</mgrwt>
</event>
<event>
 4    1  0.5455400E-005  0.6216087E+03  0.7818608E-02  0.9861562E-01
          2   -1    0    0  501    0  0.00000000000E+00  0.00000000000E+00  0.74908318250E+03  0.74908318250E+03  0.25500000000E-02 0.  1.
         -2   -1    0    0    0  501 -0.00000000000E+00 -0.00000000000E+00 -0.12895678484E+03  0.12895678487E+03  0.25500000000E-02 0. -1.
    5000001    1    1    2    0    0 -0.22110387738E+03  0.27919554198E+02  0.45180204291E+03  0.53912476485E+03  0.19200000000E+03 0.  0.
   -5000001    1    1    2    0    0  0.22110387738E+03 -0.27919554198E+02  0.16832435475E+03  0.33891520252E+03  0.19200000000E+03 0.  0.
<mgrwt>
<rscale>  0 0.62160875E+03</rscale>
<asrwt>0</asrwt>
<pdfrwt beam="1">  1        2 0.10701188E+00 0.62160875E+03</pdfrwt>
<pdfrwt beam="2">  1       -2 0.18422398E-01 0.62160875E+03</pdfrwt>
<totfact> 0.10210138E+03</totfact>
</mgrwt>
</event>
<event>
 4    1  0.5455400E-005  0.9442544E+03  0.7818608E-02  0.9371892E-01
         -2   -1    0    0    0  501 -0.00000000000E+00  0.00000000000E+00  0.12042325962E+03  0.12042325965E+03  0.25500000000E-02 0. -1.
          2   -1    0    0  501    0  0.00000000000E+00 -0.00000000000E+00 -0.18510053226E+04  0.18510053226E+04  0.25500000000E-02 0.  1.
    5000001    1    1    2    0    0 -0.21425320480E+03  0.36608298722E+03 -0.10286070917E+04  0.11290782694E+04  0.19200000000E+03 0.  0.
   -5000001    1    1    2    0    0  0.21425320480E+03 -0.36608298722E+03 -0.70197497134E+03  0.84235031292E+03  0.19200000000E+03 0.  0.
<mgrwt>
<rscale>  0 0.94425440E+03</rscale>
<asrwt>0</asrwt>
<pdfrwt beam="1">  1        2 0.26442931E+00 0.94425440E+03</pdfrwt>
<pdfrwt beam="2">  1       -2 0.17203324E-01 0.94425440E+03</pdfrwt>
<totfact> 0.26658974E+02</totfact>
</mgrwt>
</event>
<event>
 4    1  0.5455400E-005  0.9709293E+03  0.7818608E-02  0.9341016E-01
         -2   -1    0    0    0  501 -0.00000000000E+00  0.00000000000E+00  0.30884738686E+03  0.30884738687E+03  0.25500000000E-02 0. -1.
          2   -1    0    0  501    0  0.00000000000E+00 -0.00000000000E+00 -0.76308220292E+03  0.76308220292E+03  0.25500000000E-02 0.  1.
    5000001    1    1    2    0    0  0.17892037413E+03 -0.40728807387E+03 -0.26052885634E+03  0.55012304113E+03  0.19200000000E+03 0.  0.
   -5000001    1    1    2    0    0 -0.17892037413E+03  0.40728807387E+03 -0.19370595971E+03  0.52180654866E+03  0.19200000000E+03 0.  0.
<mgrwt>
<rscale>  0 0.97092934E+03</rscale>
<asrwt>0</asrwt>
<pdfrwt beam="1">  1        2 0.10901174E+00 0.97092934E+03</pdfrwt>
<pdfrwt beam="2">  1       -2 0.44121056E-01 0.97092934E+03</pdfrwt>
<totfact> 0.19652303E+02</totfact>
</mgrwt>
</event>
<event>
 4    1  0.5455400E-005  0.6960545E+03  0.7818608E-02  0.9724003E-01
          2   -1    0    0  501    0  0.00000000000E+00  0.00000000000E+00  0.78711305416E+03  0.78711305417E+03  0.25500000000E-02 0.  1.
         -2   -1    0    0    0  501 -0.00000000000E+00 -0.00000000000E+00 -0.15388254793E+03  0.15388254795E+03  0.25500000000E-02 0. -1.
    5000001    1    1    2    0    0  0.10227819670E+03 -0.26150539700E+03  0.21715128507E+03  0.40356484335E+03  0.19200000000E+03 0.  0.
   -5000001    1    1    2    0    0 -0.10227819670E+03  0.26150539700E+03  0.41607922117E+03  0.53743075877E+03  0.19200000000E+03 0.  0.
<mgrwt>
<rscale>  0 0.69605449E+03</rscale>
<asrwt>0</asrwt>
<pdfrwt beam="1">  1        2 0.11244472E+00 0.69605449E+03</pdfrwt>
<pdfrwt beam="2">  1       -2 0.21983221E-01 0.69605449E+03</pdfrwt>
<totfact> 0.70320416E+02</totfact>
</mgrwt>
</event>
<event>
 4    1  0.5455400E-005  0.4564600E+03  0.7818608E-02  0.1025813E+00
         -2   -1    0    0    0  501 -0.00000000000E+00  0.00000000000E+00  0.86597620552E+03  0.86597620553E+03  0.25500000000E-02 0. -1.
          2   -1    0    0  501    0  0.00000000000E+00 -0.00000000000E+00 -0.60150525167E+02  0.60150525221E+02  0.25500000000E-02 0.  1.
    5000001    1    1    2    0    0  0.10713614009E+03 -0.59745149999E+02  0.42992799970E+03  0.48656933770E+03  0.19200000000E+03 0.  0.
   -5000001    1    1    2    0    0 -0.10713614009E+03  0.59745149999E+02  0.37589768065E+03  0.43955739305E+03  0.19200000000E+03 0.  0.
<mgrwt>
<rscale>  0 0.45645996E+03</rscale>
<asrwt>0</asrwt>
<pdfrwt beam="1">  1        2 0.85929322E-02 0.45645996E+03</pdfrwt>
<pdfrwt beam="2">  1       -2 0.12371089E+00 0.45645996E+03</pdfrwt>
<totfact> 0.40193618E+02</totfact>
</mgrwt>
</event>
<event>
 4    1  0.5455400E-005  0.4797406E+03  0.7818608E-02  0.1019206E+00
          2   -1    0    0  501    0  0.00000000000E+00  0.00000000000E+00  0.25523358016E+03  0.25523358017E+03  0.25500000000E-02 0.  1.
         -2   -1    0    0    0  501 -0.00000000000E+00 -0.00000000000E+00 -0.22543179631E+03  0.22543179633E+03  0.25500000000E-02 0. -1.
    5000001    1    1    2    0    0  0.83951246742E+02  0.11525224893E+03  0.33453381801E+02  0.24148296310E+03  0.19200000000E+03 0.  0.
   -5000001    1    1    2    0    0 -0.83951246742E+02 -0.11525224893E+03 -0.36515979550E+01  0.23918241340E+03  0.19200000000E+03 0.  0.
<mgrwt>
<rscale>  0 0.47974062E+03</rscale>
<asrwt>0</asrwt>
<pdfrwt beam="1">  1        2 0.36461940E-01 0.47974062E+03</pdfrwt>
<pdfrwt beam="2">  1       -2 0.32204542E-01 0.47974062E+03</pdfrwt>
<totfact> 0.12793468E+03</totfact>
</mgrwt>
</event>
<event>
 4    1  0.5455400E-005  0.6006529E+03  0.7818608E-02  0.9904052E-01
         -2   -1    0    0    0  501 -0.00000000000E+00  0.00000000000E+00  0.53890793932E+02  0.53890793992E+02  0.25500000000E-02 0. -1.
          2   -1    0    0  501    0  0.00000000000E+00 -0.00000000000E+00 -0.16736808656E+04  0.16736808656E+04  0.25500000000E-02 0.  1.
    5000001    1    1    2    0    0  0.10598645036E+03 -0.16744108526E+03 -0.46882674221E+03  0.54399646957E+03  0.19200000000E+03 0.  0.
   -5000001    1    1    2    0    0 -0.10598645036E+03  0.16744108526E+03 -0.11509633295E+04  0.11835751900E+04  0.19200000000E+03 0.  0.
<mgrwt>
<rscale>  0 0.60065295E+03</rscale>
<asrwt>0</asrwt>
<pdfrwt beam="1">  1        2 0.23909723E+00 0.60065295E+03</pdfrwt>
<pdfrwt beam="2">  1       -2 0.76986860E-02 0.60065295E+03</pdfrwt>
<totfact> 0.12617379E+03</totfact>
</mgrwt>
</event>
<event>
 4    1  0.5455400E-005  0.5205157E+03  0.7818608E-02  0.1008559E+00
          2   -1    0    0  501    0  0.00000000000E+00  0.00000000000E+00  0.22999583190E+03  0.22999583192E+03  0.25500000000E-02 0.  1.
         -2   -1    0    0    0  501 -0.00000000000E+00 -0.00000000000E+00 -0.29450162776E+03  0.29450162778E+03  0.25500000000E-02 0. -1.
    5000001    1    1    2    0    0  0.13760976374E+03  0.54692962911E+02 -0.12754043723E+03  0.27396775430E+03  0.19200000000E+03 0.  0.
   -5000001    1    1    2    0    0 -0.13760976374E+03 -0.54692962911E+02  0.63034641369E+02  0.25052970539E+03  0.19200000000E+03 0.  0.
<mgrwt>
<rscale>  0 0.52051569E+03</rscale>
<asrwt>0</asrwt>
<pdfrwt beam="1">  1        2 0.32856547E-01 0.52051569E+03</pdfrwt>
<pdfrwt beam="2">  1       -2 0.42071661E-01 0.52051569E+03</pdfrwt>
<totfact> 0.86277571E+02</totfact>
</mgrwt>
</event>
<event>
 4    1  0.5455400E-005  0.5549106E+03  0.7818608E-02  0.1000364E+00
          2   -1    0    0  501    0  0.00000000000E+00  0.00000000000E+00  0.48902445217E+03  0.48902445217E+03  0.25500000000E-02 0.  1.
         -2   -1    0    0    0  501 -0.00000000000E+00 -0.00000000000E+00 -0.15741840716E+03  0.15741840718E+03  0.25500000000E-02 0. -1.
    5000001    1    1    2    0    0  0.96578902403E+02 -0.15438622555E+03  0.68651127390E+02  0.27338538425E+03  0.19200000000E+03 0.  0.
   -5000001    1    1    2    0    0 -0.96578902403E+02  0.15438622555E+03  0.26295491762E+03  0.37305747510E+03  0.19200000000E+03 0.  0.
<mgrwt>
<rscale>  0 0.55491062E+03</rscale>
<asrwt>0</asrwt>
<pdfrwt beam="1">  1        2 0.69860636E-01 0.55491062E+03</pdfrwt>
<pdfrwt beam="2">  1       -2 0.22488344E-01 0.55491062E+03</pdfrwt>
<totfact> 0.11945865E+03</totfact>
</mgrwt>
</event>
<event>
 4    1  0.5455400E-005  0.5536637E+03  0.7818608E-02  0.1000649E+00
         -2   -1    0    0    0  501 -0.00000000000E+00  0.00000000000E+00  0.43061968511E+03  0.43061968512E+03  0.25500000000E-02 0. -1.
          2   -1    0    0  501    0  0.00000000000E+00 -0.00000000000E+00 -0.17796651175E+03  0.17796651176E+03  0.25500000000E-02 0.  1.
    5000001    1    1    2    0    0 -0.87639742330E+02 -0.15534800206E+03  0.28268758019E+02  0.26358461423E+03  0.19200000000E+03 0.  0.
   -5000001    1    1    2    0    0  0.87639742330E+02  0.15534800206E+03  0.22438441534E+03  0.34500158265E+03  0.19200000000E+03 0.  0.
<mgrwt>
<rscale>  0 0.55366374E+03</rscale>
<asrwt>0</asrwt>
<pdfrwt beam="1">  1        2 0.25423787E-01 0.55366374E+03</pdfrwt>
<pdfrwt beam="2">  1       -2 0.61517099E-01 0.55366374E+03</pdfrwt>
<totfact> 0.53218907E+02</totfact>
</mgrwt>
</event>
<event>
 4    1  0.5455400E-005  0.6035700E+03  0.7818608E-02  0.9898027E-01
         -2   -1    0    0    0  501 -0.00000000000E+00  0.00000000000E+00  0.57977481455E+02  0.57977481511E+02  0.25500000000E-02 0. -1.
          2   -1    0    0  501    0  0.00000000000E+00 -0.00000000000E+00 -0.15708544017E+04  0.15708544017E+04  0.25500000000E-02 0.  1.
    5000001    1    1    2    0    0  0.56490539272E+02 -0.22551468566E+03 -0.72207657443E+03  0.78250024524E+03  0.19200000000E+03 0.  0.
   -5000001    1    1    2    0    0 -0.56490539272E+02  0.22551468566E+03 -0.79080034580E+03  0.84633163795E+03  0.19200000000E+03 0.  0.
<mgrwt>
<rscale>  0 0.60356999E+03</rscale>
<asrwt>0</asrwt>
<pdfrwt beam="1">  1        2 0.22440775E+00 0.60356999E+03</pdfrwt>
<pdfrwt beam="2">  1       -2 0.82824983E-02 0.60356999E+03</pdfrwt>
<totfact> 0.12677850E+03</totfact>
</mgrwt>
</event>
<event>
 4    1  0.5455400E-005  0.6055709E+03  0.7818608E-02  0.9893915E-01
          2   -1    0    0  501    0  0.00000000000E+00  0.00000000000E+00  0.35770153100E+03  0.35770153101E+03  0.25500000000E-02 0.  1.
         -2   -1    0    0    0  501 -0.00000000000E+00 -0.00000000000E+00 -0.25630035285E+03  0.25630035287E+03  0.25500000000E-02 0. -1.
    5000001    1    1    2    0    0  0.26422327301E+02  0.22316401324E+03  0.11730157136E+03  0.31799996042E+03  0.19200000000E+03 0.  0.
   -5000001    1    1    2    0    0 -0.26422327301E+02 -0.22316401324E+03 -0.15900393216E+02  0.29600192345E+03  0.19200000000E+03 0.  0.
<mgrwt>
<rscale>  0 0.60557090E+03</rscale>
<asrwt>0</asrwt>
<pdfrwt beam="1">  1        2 0.51100218E-01 0.60557090E+03</pdfrwt>
<pdfrwt beam="2">  1       -2 0.36614336E-01 0.60557090E+03</pdfrwt>
<totfact> 0.69212554E+02</totfact>
</mgrwt>
</event>
<event>
 4    1  0.5455400E-005  0.4946792E+03  0.7818608E-02  0.1015177E+00
         -2   -1    0    0    0  501 -0.00000000000E+00  0.00000000000E+00  0.24899330574E+02  0.24899330705E+02  0.25500000000E-02 0. -1.
          2   -1    0    0  501    0  0.00000000000E+00 -0.00000000000E+00 -0.24569688183E+04  0.24569688183E+04  0.25500000000E-02 0.  1.
    5000001    1    1    2    0    0 -0.11831000150E+03 -0.73572112007E+02 -0.86473674787E+03  0.89668486952E+03  0.19200000000E+03 0.  0.
   -5000001    1    1    2    0    0  0.11831000150E+03  0.73572112007E+02 -0.15673327398E+04  0.15851832795E+04  0.19200000000E+03 0.  0.
<mgrwt>
<rscale>  0 0.49467921E+03</rscale>
<asrwt>0</asrwt>
<pdfrwt beam="1">  1        2 0.35099539E+00 0.49467921E+03</pdfrwt>
<pdfrwt beam="2">  1       -2 0.35570488E-02 0.49467921E+03</pdfrwt>
<totfact> 0.16978137E+03</totfact>
</mgrwt>
</event>
<event>
 4    1  0.5455400E-005  0.4718245E+03  0.7818608E-02  0.1021407E+00
         -2   -1    0    0    0  501 -0.00000000000E+00  0.00000000000E+00  0.22597384997E+02  0.22597385141E+02  0.25500000000E-02 0. -1.
          2   -1    0    0  501    0  0.00000000000E+00 -0.00000000000E+00 -0.24628774355E+04  0.24628774355E+04  0.25500000000E-02 0.  1.
    5000001    1    1    2    0    0  0.10068047146E+03  0.92613248736E+02 -0.12663102635E+04  0.12880681095E+04  0.19200000000E+03 0.  0.
   -5000001    1    1    2    0    0 -0.10068047146E+03 -0.92613248736E+02 -0.11739697869E+04  0.11974067111E+04  0.19200000000E+03 0.  0.
<mgrwt>
<rscale>  0 0.47182450E+03</rscale>
<asrwt>0</asrwt>
<pdfrwt beam="1">  1        2 0.35183946E+00 0.47182450E+03</pdfrwt>
<pdfrwt beam="2">  1       -2 0.32281994E-02 0.47182450E+03</pdfrwt>
<totfact> 0.19565928E+03</totfact>
</mgrwt>
</event>
<event>
 4    1  0.5455400E-005  0.1279188E+04  0.7818608E-02  0.9046234E-01
         -2   -1    0    0    0  501 -0.00000000000E+00  0.00000000000E+00  0.44704132763E+03  0.44704132764E+03  0.25500000000E-02 0. -1.
          2   -1    0    0  501    0  0.00000000000E+00 -0.00000000000E+00 -0.91508490188E+03  0.91508490189E+03  0.25500000000E-02 0.  1.
    5000001    1    1    2    0    0  0.92694844979E+02 -0.23739571977E+03  0.35623540590E+03  0.47824337577E+03  0.19200000000E+03 0.  0.
   -5000001    1    1    2    0    0 -0.92694844979E+02  0.23739571977E+03 -0.82427898015E+03  0.88388285376E+03  0.19200000000E+03 0.  0.
<mgrwt>
<rscale>  0 0.12791884E+04</rscale>
<asrwt>0</asrwt>
<pdfrwt beam="1">  1        2 0.13072641E+00 0.12791884E+04</pdfrwt>
<pdfrwt beam="2">  1       -2 0.63863047E-01 0.12791884E+04</pdfrwt>
<totfact> 0.70831515E+01</totfact>
</mgrwt>
</event>
<event>
 4    1  0.5455400E-005  0.6057021E+03  0.7818608E-02  0.9893646E-01
         -2   -1    0    0    0  501 -0.00000000000E+00  0.00000000000E+00  0.90973110597E+02  0.90973110632E+02  0.25500000000E-02 0. -1.
          2   -1    0    0  501    0  0.00000000000E+00 -0.00000000000E+00 -0.10081963336E+04  0.10081963336E+04  0.25500000000E-02 0.  1.
    5000001    1    1    2    0    0 -0.16887174848E+03  0.16058696545E+03 -0.50112819801E+03  0.58506351087E+03  0.19200000000E+03 0.  0.
   -5000001    1    1    2    0    0  0.16887174848E+03 -0.16058696545E+03 -0.41609502503E+03  0.51410593341E+03  0.19200000000E+03 0.  0.
<mgrwt>
<rscale>  0 0.60570209E+03</rscale>
<asrwt>0</asrwt>
<pdfrwt beam="1">  1        2 0.14402804E+00 0.60570209E+03</pdfrwt>
<pdfrwt beam="2">  1       -2 0.12996159E-01 0.60570209E+03</pdfrwt>
<totfact> 0.12434675E+03</totfact>
</mgrwt>
</event>
<event>
 4    1  0.5455400E-005  0.6233805E+03  0.7818608E-02  0.9858052E-01
         -2   -1    0    0    0  501 -0.00000000000E+00  0.00000000000E+00  0.11632473801E+03  0.11632473803E+03  0.25500000000E-02 0. -1.
          2   -1    0    0  501    0  0.00000000000E+00 -0.00000000000E+00 -0.83516898892E+03  0.83516898893E+03  0.25500000000E-02 0.  1.
    5000001    1    1    2    0    0 -0.22857219130E+03 -0.87164392222E+01 -0.49564866071E+03  0.57866468513E+03  0.19200000000E+03 0.  0.
   -5000001    1    1    2    0    0  0.22857219130E+03  0.87164392222E+01 -0.22319559020E+03  0.37282904183E+03  0.19200000000E+03 0.  0.
<mgrwt>
<rscale>  0 0.62338051E+03</rscale>
<asrwt>0</asrwt>
<pdfrwt beam="1">  1        2 0.11930985E+00 0.62338051E+03</pdfrwt>
<pdfrwt beam="2">  1       -2 0.16617820E-01 0.62338051E+03</pdfrwt>
<totfact> 0.10605598E+03</totfact>
</mgrwt>
</event>
<event>
 4    1  0.5455400E-005  0.6588134E+03  0.7818608E-02  0.9790381E-01
         -2   -1    0    0    0  501 -0.00000000000E+00  0.00000000000E+00  0.62633545021E+03  0.62633545021E+03  0.25500000000E-02 0. -1.
          2   -1    0    0  501    0  0.00000000000E+00 -0.00000000000E+00 -0.17324385472E+03  0.17324385474E+03  0.25500000000E-02 0.  1.
    5000001    1    1    2    0    0  0.10502115914E+03 -0.23320528534E+03  0.32234562438E+03  0.45407582025E+03  0.19200000000E+03 0.  0.
   -5000001    1    1    2    0    0 -0.10502115914E+03  0.23320528534E+03  0.13074597111E+03  0.34550348470E+03  0.19200000000E+03 0.  0.
<mgrwt>
<rscale>  0 0.65881338E+03</rscale>
<asrwt>0</asrwt>
<pdfrwt beam="1">  1        2 0.24749122E-01 0.65881338E+03</pdfrwt>
<pdfrwt beam="2">  1       -2 0.89476494E-01 0.65881338E+03</pdfrwt>
<totfact> 0.23995768E+02</totfact>
</mgrwt>
</event>
<event>
 4    1  0.5455400E-005  0.8046423E+03  0.7818608E-02  0.9553322E-01
         -2   -1    0    0    0  501 -0.00000000000E+00  0.00000000000E+00  0.11821917460E+03  0.11821917463E+03  0.25500000000E-02 0. -1.
          2   -1    0    0  501    0  0.00000000000E+00 -0.00000000000E+00 -0.13691712454E+04  0.13691712454E+04  0.25500000000E-02 0.  1.
    5000001    1    1    2    0    0 -0.11462274772E+03  0.28571695392E+03 -0.30410211775E+03  0.47340748839E+03  0.19200000000E+03 0.  0.
   -5000001    1    1    2    0    0  0.11462274772E+03 -0.28571695392E+03 -0.94684995304E+03  0.10139829316E+04  0.19200000000E+03 0.  0.
<mgrwt>
<rscale>  0 0.80464227E+03</rscale>
<asrwt>0</asrwt>
<pdfrwt beam="1">  1        2 0.19559588E+00 0.80464227E+03</pdfrwt>
<pdfrwt beam="2">  1       -2 0.16888454E-01 0.80464227E+03</pdfrwt>
<totfact> 0.49480495E+02</totfact>
</mgrwt>
</event>
<event>
 4    1  0.5455400E-005  0.6662417E+03  0.7818608E-02  0.9776771E-01
          2   -1    0    0  501    0  0.00000000000E+00  0.00000000000E+00  0.62134090356E+03  0.62134090357E+03  0.25500000000E-02 0.  1.
         -2   -1    0    0    0  501 -0.00000000000E+00 -0.00000000000E+00 -0.17859678571E+03  0.17859678573E+03  0.25500000000E-02 0. -1.
    5000001    1    1    2    0    0  0.41080794186E+02  0.26120396747E+03  0.14364912117E+03  0.35695127718E+03  0.19200000000E+03 0.  0.
   -5000001    1    1    2    0    0 -0.41080794186E+02 -0.26120396747E+03  0.29909499669E+03  0.44298641211E+03  0.19200000000E+03 0.  0.
<mgrwt>
<rscale>  0 0.66624166E+03</rscale>
<asrwt>0</asrwt>
<pdfrwt beam="1">  1        2 0.88762987E-01 0.66624166E+03</pdfrwt>
<pdfrwt beam="2">  1       -2 0.25513826E-01 0.66624166E+03</pdfrwt>
<totfact> 0.72146115E+02</totfact>
</mgrwt>
</event>
<event>
 4    1  0.5455400E-005  0.4851708E+03  0.7818608E-02  0.1017724E+00
          2   -1    0    0  501    0  0.00000000000E+00  0.00000000000E+00  0.15663888831E+04  0.15663888831E+04  0.25500000000E-02 0.  1.
         -2   -1    0    0    0  501 -0.00000000000E+00 -0.00000000000E+00 -0.37569011590E+02  0.37569011676E+02  0.25500000000E-02 0. -1.
    5000001    1    1    2    0    0  0.90570003519E+02  0.11675897775E+03  0.80464201847E+03  0.84032634274E+03  0.19200000000E+03 0.  0.
   -5000001    1    1    2    0    0 -0.90570003519E+02 -0.11675897775E+03  0.72417785299E+03  0.76363155199E+03  0.19200000000E+03 0.  0.
<mgrwt>
<rscale>  0 0.48517082E+03</rscale>
<asrwt>0</asrwt>
<pdfrwt beam="1">  1        2 0.22376984E+00 0.48517082E+03</pdfrwt>
<pdfrwt beam="2">  1       -2 0.53670017E-02 0.48517082E+03</pdfrwt>
<totfact> 0.25304350E+03</totfact>
</mgrwt>
</event>
<event>
 4    1  0.5455400E-005  0.6086971E+03  0.7818608E-02  0.9887525E-01
         -2   -1    0    0    0  501 -0.00000000000E+00  0.00000000000E+00  0.23251320626E+03  0.23251320628E+03  0.25500000000E-02 0. -1.
          2   -1    0    0  501    0  0.00000000000E+00 -0.00000000000E+00 -0.39837753220E+03  0.39837753221E+03  0.25500000000E-02 0.  1.
    5000001    1    1    2    0    0 -0.17836416215E+03 -0.13757726496E+03 -0.94766997175E+01  0.29613356110E+03  0.19200000000E+03 0.  0.
   -5000001    1    1    2    0    0  0.17836416215E+03  0.13757726496E+03 -0.15638762622E+03  0.33475717738E+03  0.19200000000E+03 0.  0.
<mgrwt>
<rscale>  0 0.60869709E+03</rscale>
<asrwt>0</asrwt>
<pdfrwt beam="1">  1        2 0.56911076E-01 0.60869709E+03</pdfrwt>
<pdfrwt beam="2">  1       -2 0.33216172E-01 0.60869709E+03</pdfrwt>
<totfact> 0.73861747E+02</totfact>
</mgrwt>
</event>
<event>
 4    1  0.5455400E-005  0.1098894E+04  0.7818608E-02  0.9206270E-01
         -2   -1    0    0    0  501 -0.00000000000E+00  0.00000000000E+00  0.49975865072E+03  0.49975865072E+03  0.25500000000E-02 0. -1.
          2   -1    0    0  501    0  0.00000000000E+00 -0.00000000000E+00 -0.60407594737E+03  0.60407594738E+03  0.25500000000E-02 0.  1.
    5000001    1    1    2    0    0  0.38659967390E+03  0.19335683107E+02  0.28877109887E+03  0.51969791615E+03  0.19200000000E+03 0.  0.
   -5000001    1    1    2    0    0 -0.38659967390E+03 -0.19335683107E+02 -0.39308839553E+03  0.58413668195E+03  0.19200000000E+03 0.  0.
<mgrwt>
<rscale>  0 0.10988943E+04</rscale>
<asrwt>0</asrwt>
<pdfrwt beam="1">  1        2 0.86296563E-01 0.10988943E+04</pdfrwt>
<pdfrwt beam="2">  1       -2 0.71394093E-01 0.10988943E+04</pdfrwt>
<totfact> 0.95251001E+01</totfact>
</mgrwt>
</event>
<event>
 4    1  0.5455400E-005  0.6751121E+03  0.7818608E-02  0.9760767E-01
         -2   -1    0    0    0  501 -0.00000000000E+00  0.00000000000E+00  0.30732914275E+02  0.30732914381E+02  0.25500000000E-02 0. -1.
          2   -1    0    0  501    0  0.00000000000E+00 -0.00000000000E+00 -0.37075591725E+04  0.37075591725E+04  0.25500000000E-02 0.  1.
    5000001    1    1    2    0    0 -0.24163710328E+03 -0.13497253681E+03 -0.19589714087E+04  0.19877220771E+04  0.19200000000E+03 0.  0.
   -5000001    1    1    2    0    0  0.24163710328E+03  0.13497253681E+03 -0.17178548494E+04  0.17505700098E+04  0.19200000000E+03 0.  0.
<mgrwt>
<rscale>  0 0.67511213E+03</rscale>
<asrwt>0</asrwt>
<pdfrwt beam="1">  1        2 0.52965103E+00 0.67511213E+03</pdfrwt>
<pdfrwt beam="2">  1       -2 0.43904187E-02 0.67511213E+03</pdfrwt>
<totfact> 0.24403697E+02</totfact>
</mgrwt>
</event>
<event>
 4    1  0.5455400E-005  0.5925987E+03  0.7818608E-02  0.9920881E-01
         -2   -1    0    0    0  501 -0.00000000000E+00  0.00000000000E+00  0.60224032665E+02  0.60224032719E+02  0.25500000000E-02 0. -1.
          2   -1    0    0  501    0  0.00000000000E+00 -0.00000000000E+00 -0.14577786950E+04  0.14577786950E+04  0.25500000000E-02 0.  1.
    5000001    1    1    2    0    0  0.85277962910E+02 -0.20814039558E+03 -0.65192333752E+03  0.71586506636E+03  0.19200000000E+03 0.  0.
   -5000001    1    1    2    0    0 -0.85277962910E+02  0.20814039558E+03 -0.74563132480E+03  0.80213766135E+03  0.19200000000E+03 0.  0.
<mgrwt>
<rscale>  0 0.59259872E+03</rscale>
<asrwt>0</asrwt>
<pdfrwt beam="1">  1        2 0.20825408E+00 0.59259872E+03</pdfrwt>
<pdfrwt beam="2">  1       -2 0.86034341E-02 0.59259872E+03</pdfrwt>
<totfact> 0.13665428E+03</totfact>
</mgrwt>
</event>
<event>
 4    1  0.5455400E-005  0.6765495E+03  0.7818608E-02  0.9758198E-01
         -2   -1    0    0    0  501 -0.00000000000E+00  0.00000000000E+00  0.40896362338E+02  0.40896362417E+02  0.25500000000E-02 0. -1.
          2   -1    0    0  501    0  0.00000000000E+00 -0.00000000000E+00 -0.27980438068E+04  0.27980438068E+04  0.25500000000E-02 0.  1.
    5000001    1    1    2    0    0 -0.25850851177E+03  0.95328422996E+02 -0.15491097973E+04  0.15850928436E+04  0.19200000000E+03 0.  0.
   -5000001    1    1    2    0    0  0.25850851177E+03 -0.95328422996E+02 -0.12080376472E+04  0.12538473256E+04  0.19200000000E+03 0.  0.
<mgrwt>
<rscale>  0 0.67654952E+03</rscale>
<asrwt>0</asrwt>
<pdfrwt beam="1">  1        2 0.39972042E+00 0.67654952E+03</pdfrwt>
<pdfrwt beam="2">  1       -2 0.58423393E-02 0.67654952E+03</pdfrwt>
<totfact> 0.51759144E+02</totfact>
</mgrwt>
</event>
<event>
 4    1  0.5455400E-005  0.4677932E+03  0.7818608E-02  0.1022545E+00
         -2   -1    0    0    0  501 -0.00000000000E+00  0.00000000000E+00  0.98410524991E+02  0.98410525024E+02  0.25500000000E-02 0. -1.
          2   -1    0    0  501    0  0.00000000000E+00 -0.00000000000E+00 -0.55591232361E+03  0.55591232362E+03  0.25500000000E-02 0.  1.
    5000001    1    1    2    0    0 -0.47684679503E+02  0.63391176073E+02 -0.37908399731E+03  0.43227415708E+03  0.19200000000E+03 0.  0.
   -5000001    1    1    2    0    0  0.47684679503E+02 -0.63391176073E+02 -0.78417801318E+02  0.22204869157E+03  0.19200000000E+03 0.  0.
<mgrwt>
<rscale>  0 0.46779322E+03</rscale>
<asrwt>0</asrwt>
<pdfrwt beam="1">  1        2 0.79416044E-01 0.46779322E+03</pdfrwt>
<pdfrwt beam="2">  1       -2 0.14058647E-01 0.46779322E+03</pdfrwt>
<totfact> 0.23053368E+03</totfact>
</mgrwt>
</event>
<event>
 4    1  0.5455400E-005  0.5822144E+03  0.7818608E-02  0.9943008E-01
         -2   -1    0    0    0  501 -0.00000000000E+00  0.00000000000E+00  0.13049166910E+03  0.13049166912E+03  0.25500000000E-02 0. -1.
          2   -1    0    0  501    0  0.00000000000E+00 -0.00000000000E+00 -0.64941628595E+03  0.64941628596E+03  0.25500000000E-02 0.  1.
    5000001    1    1    2    0    0  0.58467139728E+01  0.18840086389E+03 -0.11059479728E+03  0.29090252450E+03  0.19200000000E+03 0.  0.
   -5000001    1    1    2    0    0 -0.58467139728E+01 -0.18840086389E+03 -0.40832981958E+03  0.48900543058E+03  0.19200000000E+03 0.  0.
<mgrwt>
<rscale>  0 0.58221445E+03</rscale>
<asrwt>0</asrwt>
<pdfrwt beam="1">  1        2 0.92773753E-01 0.58221445E+03</pdfrwt>
<pdfrwt beam="2">  1       -2 0.18641667E-01 0.58221445E+03</pdfrwt>
<totfact> 0.11919895E+03</totfact>
</mgrwt>
</event>
<event>
 4    1  0.5455400E-005  0.1145692E+04  0.7818608E-02  0.9161767E-01
         -2   -1    0    0    0  501 -0.00000000000E+00  0.00000000000E+00  0.26230284586E+03  0.26230284588E+03  0.25500000000E-02 0. -1.
          2   -1    0    0  501    0  0.00000000000E+00 -0.00000000000E+00 -0.12510448755E+04  0.12510448755E+04  0.25500000000E-02 0.  1.
    5000001    1    1    2    0    0  0.30466334215E+03  0.44047483429E+03 -0.58249412160E+03  0.81424887681E+03  0.19200000000E+03 0.  0.
   -5000001    1    1    2    0    0 -0.30466334215E+03 -0.44047483429E+03 -0.40624790804E+03  0.69909884457E+03  0.19200000000E+03 0.  0.
<mgrwt>
<rscale>  0 0.11456922E+04</rscale>
<asrwt>0</asrwt>
<pdfrwt beam="1">  1        2 0.17872069E+00 0.11456922E+04</pdfrwt>
<pdfrwt beam="2">  1       -2 0.37471836E-01 0.11456922E+04</pdfrwt>
<totfact> 0.13280957E+02</totfact>
</mgrwt>
</event>
<event>
 4    1  0.5455400E-005  0.4987234E+03  0.7818608E-02  0.1014113E+00
         -2   -1    0    0    0  501 -0.00000000000E+00  0.00000000000E+00  0.18092150816E+03  0.18092150818E+03  0.25500000000E-02 0. -1.
          2   -1    0    0  501    0  0.00000000000E+00 -0.00000000000E+00 -0.34369189474E+03  0.34369189475E+03  0.25500000000E-02 0.  1.
    5000001    1    1    2    0    0 -0.83365068684E+02 -0.11225343923E+03 -0.16126606914E+03  0.28709112552E+03  0.19200000000E+03 0.  0.
   -5000001    1    1    2    0    0  0.83365068684E+02  0.11225343923E+03 -0.15043174308E+01  0.23752227741E+03  0.19200000000E+03 0.  0.
<mgrwt>
<rscale>  0 0.49872339E+03</rscale>
<asrwt>0</asrwt>
<pdfrwt beam="1">  1        2 0.49098842E-01 0.49872339E+03</pdfrwt>
<pdfrwt beam="2">  1       -2 0.25845930E-01 0.49872339E+03</pdfrwt>
<totfact> 0.13795250E+03</totfact>
</mgrwt>
</event>
<event>
 4    1  0.5455400E-005  0.9015173E+03  0.7818608E-02  0.9423687E-01
          2   -1    0    0  501    0  0.00000000000E+00  0.00000000000E+00  0.45024707512E+03  0.45024707513E+03  0.25500000000E-02 0.  1.
         -2   -1    0    0    0  501 -0.00000000000E+00 -0.00000000000E+00 -0.45127081713E+03  0.45127081714E+03  0.25500000000E-02 0. -1.
    5000001    1    1    2    0    0  0.16330418977E+03  0.20022504971E+03  0.31502127300E+03  0.45040063429E+03  0.19200000000E+03 0.  0.
   -5000001    1    1    2    0    0 -0.16330418977E+03 -0.20022504971E+03 -0.31604501501E+03  0.45111725797E+03  0.19200000000E+03 0.  0.
<mgrwt>
<rscale>  0 0.90151731E+03</rscale>
<asrwt>0</asrwt>
<pdfrwt beam="1">  1        2 0.64321011E-01 0.90151731E+03</pdfrwt>
<pdfrwt beam="2">  1       -2 0.64467260E-01 0.90151731E+03</pdfrwt>
<totfact> 0.16878361E+02</totfact>
</mgrwt>
</event>
<event>
 4    1  0.5455400E-005  0.4444211E+03  0.7818608E-02  0.1029399E+00
         -2   -1    0    0    0  501 -0.00000000000E+00  0.00000000000E+00  0.73159003517E+02  0.73159003561E+02  0.25500000000E-02 0. -1.
          2   -1    0    0  501    0  0.00000000000E+00 -0.00000000000E+00 -0.67493443953E+03  0.67493443953E+03  0.25500000000E-02 0.  1.
    5000001    1    1    2    0    0  0.10861724125E+03  0.95058314066E+00 -0.34589581011E+03  0.41025177654E+03  0.19200000000E+03 0.  0.
   -5000001    1    1    2    0    0 -0.10861724125E+03 -0.95058314066E+00 -0.25587962590E+03  0.33784166655E+03  0.19200000000E+03 0.  0.
<mgrwt>
<rscale>  0 0.44442111E+03</rscale>
<asrwt>0</asrwt>
<pdfrwt beam="1">  1        2 0.96419202E-01 0.44442111E+03</pdfrwt>
<pdfrwt beam="2">  1       -2 0.10451287E-01 0.44442111E+03</pdfrwt>
<totfact> 0.29836300E+03</totfact>
</mgrwt>
</event>
<event>
 4    1  0.5455400E-005  0.1132522E+04  0.7818608E-02  0.9174061E-01
         -2   -1    0    0    0  501 -0.00000000000E+00  0.00000000000E+00  0.12065043671E+03  0.12065043674E+03  0.25500000000E-02 0. -1.
          2   -1    0    0  501    0  0.00000000000E+00 -0.00000000000E+00 -0.26576910280E+04  0.26576910280E+04  0.25500000000E-02 0.  1.
    5000001    1    1    2    0    0  0.16155182901E+03  0.43413293010E+03 -0.62309510925E+03  0.79980116881E+03  0.19200000000E+03 0.  0.
   -5000001    1    1    2    0    0 -0.16155182901E+03 -0.43413293010E+03 -0.19139454821E+04  0.19785402960E+04  0.19200000000E+03 0.  0.
<mgrwt>
<rscale>  0 0.11325221E+04</rscale>
<asrwt>0</asrwt>
<pdfrwt beam="1">  1        2 0.37967011E+00 0.11325221E+04</pdfrwt>
<pdfrwt beam="2">  1       -2 0.17235778E-01 0.11325221E+04</pdfrwt>
<totfact> 0.10052568E+02</totfact>
</mgrwt>
</event>
<event>
 4    1  0.5455400E-005  0.5499214E+03  0.7818608E-02  0.1001512E+00
          2   -1    0    0  501    0  0.00000000000E+00  0.00000000000E+00  0.15685545676E+04  0.15685545676E+04  0.25500000000E-02 0.  1.
         -2   -1    0    0    0  501 -0.00000000000E+00 -0.00000000000E+00 -0.48199407033E+02  0.48199407101E+02  0.25500000000E-02 0. -1.
    5000001    1    1    2    0    0 -0.18254379937E+03 -0.57584280852E+02  0.89494292196E+03  0.93510695734E+03  0.19200000000E+03 0.  0.
   -5000001    1    1    2    0    0  0.18254379937E+03  0.57584280852E+02  0.62541223864E+03  0.68164701740E+03  0.19200000000E+03 0.  0.
<mgrwt>
<rscale>  0 0.54992145E+03</rscale>
<asrwt>0</asrwt>
<pdfrwt beam="1">  1        2 0.22407924E+00 0.54992145E+03</pdfrwt>
<pdfrwt beam="2">  1       -2 0.68856291E-02 0.54992145E+03</pdfrwt>
<totfact> 0.17073656E+03</totfact>
</mgrwt>
</event>
<event>
 4    1  0.5455400E-005  0.5036610E+03  0.7818608E-02  0.1012828E+00
          2   -1    0    0  501    0  0.00000000000E+00  0.00000000000E+00  0.30927666494E+02  0.30927666599E+02  0.25500000000E-02 0.  1.
         -2   -1    0    0    0  501 -0.00000000000E+00 -0.00000000000E+00 -0.20505460373E+04  0.20505460373E+04  0.25500000000E-02 0. -1.
    5000001    1    1    2    0    0  0.30151518254E+02 -0.16009642889E+03 -0.10256128585E+04  0.10560708859E+04  0.19200000000E+03 0.  0.
   -5000001    1    1    2    0    0 -0.30151518254E+02  0.16009642889E+03 -0.99400551228E+03  0.10254028179E+04  0.19200000000E+03 0.  0.
<mgrwt>
<rscale>  0 0.50366101E+03</rscale>
<asrwt>0</asrwt>
<pdfrwt beam="1">  1        2 0.44182394E-02 0.50366101E+03</pdfrwt>
<pdfrwt beam="2">  1       -2 0.29293506E+00 0.50366101E+03</pdfrwt>
<totfact> 0.72924065E+01</totfact>
</mgrwt>
</event>
<event>
 4    1  0.5455400E-005  0.5559316E+03  0.7818608E-02  0.1000130E+00
         -2   -1    0    0    0  501 -0.00000000000E+00  0.00000000000E+00  0.59103996115E+02  0.59103996170E+02  0.25500000000E-02 0. -1.
          2   -1    0    0  501    0  0.00000000000E+00 -0.00000000000E+00 -0.13072716392E+04  0.13072716392E+04  0.25500000000E-02 0.  1.
    5000001    1    1    2    0    0  0.15915121488E+03  0.52629361507E+02 -0.35147684351E+03  0.43416463515E+03  0.19200000000E+03 0.  0.
   -5000001    1    1    2    0    0 -0.15915121488E+03 -0.52629361507E+02 -0.89669079958E+03  0.93221100023E+03  0.19200000000E+03 0.  0.
<mgrwt>
<rscale>  0 0.55593157E+03</rscale>
<asrwt>0</asrwt>
<pdfrwt beam="1">  1        2 0.18675307E+00 0.55593157E+03</pdfrwt>
<pdfrwt beam="2">  1       -2 0.84434288E-02 0.55593157E+03</pdfrwt>
<totfact> 0.16953544E+03</totfact>
</mgrwt>
</event>
<event>
 4    1  0.5455400E-005  0.4405137E+03  0.7818608E-02  0.1030589E+00
          2   -1    0    0  501    0  0.00000000000E+00  0.00000000000E+00  0.40759120744E+03  0.40759120745E+03  0.25500000000E-02 0.  1.
         -2   -1    0    0    0  501 -0.00000000000E+00 -0.00000000000E+00 -0.11902383890E+03  0.11902383893E+03  0.25500000000E-02 0. -1.
    5000001    1    1    2    0    0  0.72193123593E+02  0.79127250140E+02  0.16014777952E+03  0.27200051488E+03  0.19200000000E+03 0.  0.
   -5000001    1    1    2    0    0 -0.72193123593E+02 -0.79127250140E+02  0.12841958901E+03  0.25461453150E+03  0.19200000000E+03 0.  0.
<mgrwt>
<rscale>  0 0.44051366E+03</rscale>
<asrwt>0</asrwt>
<pdfrwt beam="1">  1        2 0.58227316E-01 0.44051366E+03</pdfrwt>
<pdfrwt beam="2">  1       -2 0.17003406E-01 0.44051366E+03</pdfrwt>
<totfact> 0.23714072E+03</totfact>
</mgrwt>
</event>
<event>
 4    1  0.5455400E-005  0.6500452E+03  0.7818608E-02  0.9806694E-01
          2   -1    0    0  501    0  0.00000000000E+00  0.00000000000E+00  0.62604206258E+03  0.62604206259E+03  0.25500000000E-02 0.  1.
         -2   -1    0    0    0  501 -0.00000000000E+00 -0.00000000000E+00 -0.16874218152E+03  0.16874218154E+03  0.25500000000E-02 0. -1.
    5000001    1    1    2    0    0 -0.24868605555E+03 -0.64614281126E+02  0.29283601967E+03  0.43432325976E+03  0.19200000000E+03 0.  0.
   -5000001    1    1    2    0    0  0.24868605555E+03  0.64614281126E+02  0.16446386139E+03  0.36046098437E+03  0.19200000000E+03 0.  0.
<mgrwt>
<rscale>  0 0.65004524E+03</rscale>
<asrwt>0</asrwt>
<pdfrwt beam="1">  1        2 0.89434581E-01 0.65004524E+03</pdfrwt>
<pdfrwt beam="2">  1       -2 0.24106026E-01 0.65004524E+03</pdfrwt>
<totfact> 0.79204489E+02</totfact>
</mgrwt>
</event>
<event>
 4    1  0.5455400E-005  0.5214928E+03  0.7818608E-02  0.1008316E+00
          2   -1    0    0  501    0  0.00000000000E+00  0.00000000000E+00  0.28093773393E+04  0.28093773393E+04  0.25500000000E-02 0.  1.
         -2   -1    0    0    0  501 -0.00000000000E+00 -0.00000000000E+00 -0.24200620938E+02  0.24200621073E+02  0.25500000000E-02 0. -1.
    5000001    1    1    2    0    0 -0.13725523850E+03 -0.64165948824E+02  0.18836721004E+04  0.18994843646E+04  0.19200000000E+03 0.  0.
   -5000001    1    1    2    0    0  0.13725523850E+03  0.64165948824E+02  0.90150461799E+03  0.93409359582E+03  0.19200000000E+03 0.  0.
<mgrwt>
<rscale>  0 0.52149277E+03</rscale>
<asrwt>0</asrwt>
<pdfrwt beam="1">  1        2 0.40133941E+00 0.52149277E+03</pdfrwt>
<pdfrwt beam="2">  1       -2 0.34572334E-02 0.52149277E+03</pdfrwt>
<totfact> 0.11631140E+03</totfact>
</mgrwt>
</event>
<event>
 4    1  0.5455400E-005  0.6333356E+03  0.7818608E-02  0.9838561E-01
          2   -1    0    0  501    0  0.00000000000E+00  0.00000000000E+00  0.68291333044E+03  0.68291333045E+03  0.25500000000E-02 0.  1.
         -2   -1    0    0    0  501 -0.00000000000E+00 -0.00000000000E+00 -0.14683927723E+03  0.14683927726E+03  0.25500000000E-02 0. -1.
    5000001    1    1    2    0    0 -0.10763163418E+03 -0.22763799019E+03  0.27235780051E+03  0.41766780430E+03  0.19200000000E+03 0.  0.
   -5000001    1    1    2    0    0  0.10763163418E+03  0.22763799019E+03  0.26371625270E+03  0.41208480340E+03  0.19200000000E+03 0.  0.
<mgrwt>
<rscale>  0 0.63333561E+03</rscale>
<asrwt>0</asrwt>
<pdfrwt beam="1">  1        2 0.97559048E-01 0.63333561E+03</pdfrwt>
<pdfrwt beam="2">  1       -2 0.20977039E-01 0.63333561E+03</pdfrwt>
<totfact> 0.91282294E+02</totfact>
</mgrwt>
</event>
<event>
 4    1  0.5455400E-005  0.8722812E+03  0.7818608E-02  0.9460910E-01
          2   -1    0    0  501    0  0.00000000000E+00  0.00000000000E+00  0.16846144982E+04  0.16846144982E+04  0.25500000000E-02 0.  1.
         -2   -1    0    0    0  501 -0.00000000000E+00 -0.00000000000E+00 -0.11291521246E+03  0.11291521249E+03  0.25500000000E-02 0. -1.
    5000001    1    1    2    0    0 -0.25249442677E+03  0.27931181403E+03  0.56403621701E+03  0.70481868527E+03  0.19200000000E+03 0.  0.
   -5000001    1    1    2    0    0  0.25249442677E+03 -0.27931181403E+03  0.10076630687E+04  0.10927110254E+04  0.19200000000E+03 0.  0.
<mgrwt>
<rscale>  0 0.87228116E+03</rscale>
<asrwt>0</asrwt>
<pdfrwt beam="1">  1        2 0.24065918E+00 0.87228116E+03</pdfrwt>
<pdfrwt beam="2">  1       -2 0.16130747E-01 0.87228116E+03</pdfrwt>
<totfact> 0.36398197E+02</totfact>
</mgrwt>
</event>
<event>
 4    1  0.5455400E-005  0.4843704E+03  0.7818608E-02  0.1017941E+00
          2   -1    0    0  501    0  0.00000000000E+00  0.00000000000E+00  0.26965011405E+03  0.26965011406E+03  0.25500000000E-02 0.  1.
         -2   -1    0    0    0  501 -0.00000000000E+00 -0.00000000000E+00 -0.21751767112E+03  0.21751767114E+03  0.25500000000E-02 0. -1.
    5000001    1    1    2    0    0 -0.16164042897E+02 -0.14609773646E+03  0.39703287353E+02  0.24504321233E+03  0.19200000000E+03 0.  0.
   -5000001    1    1    2    0    0  0.16164042897E+02  0.14609773646E+03  0.12429155576E+02  0.24212457287E+03  0.19200000000E+03 0.  0.
<mgrwt>
<rscale>  0 0.48437037E+03</rscale>
<asrwt>0</asrwt>
<pdfrwt beam="1">  1        2 0.38521445E-01 0.48437037E+03</pdfrwt>
<pdfrwt beam="2">  1       -2 0.31073953E-01 0.48437037E+03</pdfrwt>
<totfact> 0.12867587E+03</totfact>
</mgrwt>
</event>
<event>
 4    1  0.5455400E-005  0.6354853E+03  0.7818608E-02  0.9834403E-01
          2   -1    0    0  501    0  0.00000000000E+00  0.00000000000E+00  0.15953390427E+04  0.15953390427E+04  0.25500000000E-02 0.  1.
         -2   -1    0    0    0  501 -0.00000000000E+00 -0.00000000000E+00 -0.63284606592E+02  0.63284606644E+02  0.25500000000E-02 0. -1.
    5000001    1    1    2    0    0  0.13791968012E+03 -0.35210028122E+02  0.13124791047E+04  0.13340640856E+04  0.19200000000E+03 0.  0.
   -5000001    1    1    2    0    0 -0.13791968012E+03  0.35210028122E+02  0.21957533138E+03  0.32455956371E+03  0.19200000000E+03 0.  0.
<mgrwt>
<rscale>  0 0.63548534E+03</rscale>
<asrwt>0</asrwt>
<pdfrwt beam="1">  1        2 0.22790555E+00 0.63548534E+03</pdfrwt>
<pdfrwt beam="2">  1       -2 0.90406591E-02 0.63548534E+03</pdfrwt>
<totfact> 0.10686736E+03</totfact>
</mgrwt>
</event>
<event>
 4    1  0.5455400E-005  0.4529437E+03  0.7818608E-02  0.1026848E+00
         -2   -1    0    0    0  501 -0.00000000000E+00  0.00000000000E+00  0.26154305426E+03  0.26154305427E+03  0.25500000000E-02 0. -1.
          2   -1    0    0  501    0  0.00000000000E+00 -0.00000000000E+00 -0.19610349937E+03  0.19610349939E+03  0.25500000000E-02 0.  1.
    5000001    1    1    2    0    0 -0.72539403480E+02  0.58161024997E+02  0.10954102291E+03  0.23980805989E+03  0.19200000000E+03 0.  0.
   -5000001    1    1    2    0    0  0.72539403480E+02 -0.58161024997E+02 -0.44101468023E+02  0.21783849377E+03  0.19200000000E+03 0.  0.
<mgrwt>
<rscale>  0 0.45294374E+03</rscale>
<asrwt>0</asrwt>
<pdfrwt beam="1">  1        2 0.28014786E-01 0.45294374E+03</pdfrwt>
<pdfrwt beam="2">  1       -2 0.37363294E-01 0.45294374E+03</pdfrwt>
<totfact> 0.12957987E+03</totfact>
</mgrwt>
</event>
<event>
 4    1  0.5455400E-005  0.7020305E+03  0.7818608E-02  0.9713766E-01
         -2   -1    0    0    0  501 -0.00000000000E+00  0.00000000000E+00  0.35951473361E+02  0.35951473452E+02  0.25500000000E-02 0.  1.
          2   -1    0    0  501    0  0.00000000000E+00 -0.00000000000E+00 -0.34271667994E+04  0.34271667994E+04  0.25500000000E-02 0. -1.
    5000001    1    1    2    0    0 -0.29266937871E+03  0.15031550836E+02 -0.15890749828E+04  0.16272383396E+04  0.19200000000E+03 0.  0.
   -5000001    1    1    2    0    0  0.29266937871E+03 -0.15031550836E+02 -0.18021403432E+04  0.18358799333E+04  0.19200000000E+03 0.  0.
<mgrwt>
<rscale>  0 0.70203047E+03</rscale>
<asrwt>0</asrwt>
<pdfrwt beam="1">  1        2 0.48959505E+00 0.70203047E+03</pdfrwt>
<pdfrwt beam="2">  1       -2 0.51359269E-02 0.70203047E+03</pdfrwt>
<totfact> 0.28176285E+02</totfact>
</mgrwt>
</event>
<event>
 4    1  0.5455400E-005  0.5086880E+03  0.7818608E-02  0.1011536E+00
         -2   -1    0    0    0  501 -0.00000000000E+00  0.00000000000E+00  0.50964918229E+02  0.50964918293E+02  0.25500000000E-02 0. -1.
          2   -1    0    0  501    0  0.00000000000E+00 -0.00000000000E+00 -0.12693216636E+04  0.12693216636E+04  0.25500000000E-02 0.  1.
    5000001    1    1    2    0    0  0.59177230363E+02  0.15436273447E+03 -0.55131172879E+03  0.60674411467E+03  0.19200000000E+03 0.  0.
   -5000001    1    1    2    0    0 -0.59177230363E+02 -0.15436273447E+03 -0.66704501660E+03  0.71354246724E+03  0.19200000000E+03 0.  0.
<mgrwt>
<rscale>  0 0.50868802E+03</rscale>
<asrwt>0</asrwt>
<pdfrwt beam="1">  1        2 0.18133165E+00 0.50868802E+03</pdfrwt>
<pdfrwt beam="2">  1       -2 0.72807034E-02 0.50868802E+03</pdfrwt>
<totfact> 0.22511360E+03</totfact>
</mgrwt>
</event>
<event>
 4    1  0.5455400E-005  0.6117445E+03  0.7818608E-02  0.9881335E-01
          2   -1    0    0  501    0  0.00000000000E+00  0.00000000000E+00  0.15923342565E+03  0.15923342567E+03  0.25500000000E-02 0.  1.
         -2   -1    0    0    0  501 -0.00000000000E+00 -0.00000000000E+00 -0.58755149089E+03  0.58755149090E+03  0.25500000000E-02 0. -1.
    5000001    1    1    2    0    0  0.19128003847E+03  0.13973073128E+03 -0.24358652378E+03  0.39027057915E+03  0.19200000000E+03 0.  0.
   -5000001    1    1    2    0    0 -0.19128003847E+03 -0.13973073128E+03 -0.18473154146E+03  0.35651433742E+03  0.19200000000E+03 0.  0.
<mgrwt>
<rscale>  0 0.61174451E+03</rscale>
<asrwt>0</asrwt>
<pdfrwt beam="1">  1        2 0.22747633E-01 0.61174451E+03</pdfrwt>
<pdfrwt beam="2">  1       -2 0.83935926E-01 0.61174451E+03</pdfrwt>
<totfact> 0.30627117E+02</totfact>
</mgrwt>
</event>
<event>
 4    1  0.5455400E-005  0.6061965E+03  0.7818608E-02  0.9892633E-01
         -2   -1    0    0    0  501 -0.00000000000E+00  0.00000000000E+00  0.15582691944E+04  0.15582691944E+04  0.25500000000E-02 0. -1.
          2   -1    0    0  501    0  0.00000000000E+00 -0.00000000000E+00 -0.58955504054E+02  0.58955504109E+02  0.25500000000E-02 0.  1.
    5000001    1    1    2    0    0  0.12788446260E+03  0.19326165622E+03  0.84584812275E+03  0.89779037102E+03  0.19200000000E+03 0.  0.
   -5000001    1    1    2    0    0 -0.12788446260E+03 -0.19326165622E+03  0.65346556761E+03  0.71943432751E+03  0.19200000000E+03 0.  0.
<mgrwt>
<rscale>  0 0.60619649E+03</rscale>
<asrwt>0</asrwt>
<pdfrwt beam="1">  1        2 0.84222156E-02 0.60619649E+03</pdfrwt>
<pdfrwt beam="2">  1       -2 0.22260987E+00 0.60619649E+03</pdfrwt>
<totfact> 0.81299055E+01</totfact>
</mgrwt>
</event>
<event>
 4    1  0.5455400E-005  0.5730633E+03  0.7818608E-02  0.9962923E-01
         -2   -1    0    0    0  501 -0.00000000000E+00  0.00000000000E+00  0.15288894002E+03  0.15288894004E+03  0.25500000000E-02 0. -1.
          2   -1    0    0  501    0  0.00000000000E+00 -0.00000000000E+00 -0.53699366686E+03  0.53699366686E+03  0.25500000000E-02 0.  1.
    5000001    1    1    2    0    0  0.21145266124E+03  0.19705488697E+02 -0.17802048958E+03  0.33712880171E+03  0.19200000000E+03 0.  0.
   -5000001    1    1    2    0    0 -0.21145266124E+03 -0.19705488697E+02 -0.20608423726E+03  0.35275380519E+03  0.19200000000E+03 0.  0.
<mgrwt>
<rscale>  0 0.57306332E+03</rscale>
<asrwt>0</asrwt>
<pdfrwt beam="1">  1        2 0.76713380E-01 0.57306332E+03</pdfrwt>
<pdfrwt beam="2">  1       -2 0.21841277E-01 0.57306332E+03</pdfrwt>
<totfact> 0.11302852E+03</totfact>
</mgrwt>
</event>
<event>
 4    1  0.5455400E-005  0.7967538E+03  0.7818608E-02  0.9564728E-01
          2   -1    0    0  501    0  0.00000000000E+00  0.00000000000E+00  0.27048606478E+03  0.27048606479E+03  0.25500000000E-02 0. -1.
         -2   -1    0    0    0  501 -0.00000000000E+00 -0.00000000000E+00 -0.58673693453E+03  0.58673693453E+03  0.25500000000E-02 0.  1.
    5000001    1    1    2    0    0  0.11973394837E+03 -0.18261270675E+03  0.13485890146E+03  0.32052229620E+03  0.19200000000E+03 0.  0.
   -5000001    1    1    2    0    0 -0.11973394837E+03  0.18261270675E+03 -0.45110977121E+03  0.53670070313E+03  0.19200000000E+03 0.  0.
<mgrwt>
<rscale>  0 0.79675383E+03</rscale>
<asrwt>0</asrwt>
<pdfrwt beam="1">  1        2 0.38640867E-01 0.79675383E+03</pdfrwt>
<pdfrwt beam="2">  1       -2 0.83819561E-01 0.79675383E+03</pdfrwt>
<totfact> 0.16774910E+02</totfact>
</mgrwt>
</event>
<event>
 4    1  0.5455400E-005  0.5667798E+03  0.7818608E-02  0.9976830E-01
         -2   -1    0    0    0  501 -0.00000000000E+00  0.00000000000E+00  0.18668633424E+03  0.18668633425E+03  0.25500000000E-02 0. -1.
          2   -1    0    0  501    0  0.00000000000E+00 -0.00000000000E+00 -0.43018593015E+03  0.43018593016E+03  0.25500000000E-02 0.  1.
    5000001    1    1    2    0    0 -0.14359839112E+03  0.24870909200E+02  0.40440033535E+02  0.24441451751E+03  0.19200000000E+03 0.  0.
   -5000001    1    1    2    0    0  0.14359839112E+03 -0.24870909200E+02 -0.28393962945E+03  0.37245774690E+03  0.19200000000E+03 0.  0.
<mgrwt>
<rscale>  0 0.56677980E+03</rscale>
<asrwt>0</asrwt>
<pdfrwt beam="1">  1        2 0.61455133E-01 0.56677980E+03</pdfrwt>
<pdfrwt beam="2">  1       -2 0.26669476E-01 0.56677980E+03</pdfrwt>
<totfact> 0.10169661E+03</totfact>
</mgrwt>
</event>
<event>
 4    1  0.5455400E-005  0.7544941E+03  0.7818608E-02  0.9628326E-01
          2   -1    0    0  501    0  0.00000000000E+00  0.00000000000E+00  0.21789713819E+04  0.21789713819E+04  0.25500000000E-02 0.  1.
         -2   -1    0    0    0  501 -0.00000000000E+00 -0.00000000000E+00 -0.65313081085E+02  0.65313081135E+02  0.25500000000E-02 0. -1.
    5000001    1    1    2    0    0 -0.24960895919E+03  0.39141829728E+02  0.45002992055E+03  0.55066109789E+03  0.19200000000E+03 0.  0.
   -5000001    1    1    2    0    0  0.24960895919E+03 -0.39141829728E+02  0.16636283803E+04  0.16936233651E+04  0.19200000000E+03 0.  0.
<mgrwt>
<rscale>  0 0.75449409E+03</rscale>
<asrwt>0</asrwt>
<pdfrwt beam="1">  1        2 0.31128159E+00 0.75449409E+03</pdfrwt>
<pdfrwt beam="2">  1       -2 0.93304412E-02 0.75449409E+03</pdfrwt>
<totfact> 0.51001504E+02</totfact>
</mgrwt>
</event>
<event>
 4    1  0.5455400E-005  0.1563809E+04  0.7818608E-02  0.8843095E-01
          2   -1    0    0  501    0  0.00000000000E+00  0.00000000000E+00  0.34754409173E+04  0.34754409173E+04  0.25500000000E-02 0.  1.
         -2   -1    0    0    0  501 -0.00000000000E+00 -0.00000000000E+00 -0.17591286738E+03  0.17591286740E+03  0.25500000000E-02 0. -1.
    5000001    1    1    2    0    0 -0.69806924999E+02  0.74514929623E+03  0.13696692320E+04  0.15725705979E+04  0.19200000000E+03 0.  0.
   -5000001    1    1    2    0    0  0.69806924999E+02 -0.74514929623E+03  0.19298588180E+04  0.20787831868E+04  0.19200000000E+03 0.  0.
<mgrwt>
<rscale>  0 0.15638092E+04</rscale>
<asrwt>0</asrwt>
<pdfrwt beam="1">  1        2 0.49649153E+00 0.15638092E+04</pdfrwt>
<pdfrwt beam="2">  1       -2 0.25130411E-01 0.15638092E+04</pdfrwt>
<totfact> 0.17184836E+01</totfact>
</mgrwt>
</event>
<event>
 4    1  0.5455400E-005  0.6757153E+03  0.7818608E-02  0.9759688E-01
          2   -1    0    0  501    0  0.00000000000E+00  0.00000000000E+00  0.78608963959E+03  0.78608963959E+03  0.25500000000E-02 0.  1.
         -2   -1    0    0    0  501 -0.00000000000E+00 -0.00000000000E+00 -0.14520964655E+03  0.14520964658E+03  0.25500000000E-02 0. -1.
    5000001    1    1    2    0    0  0.16529714191E+03 -0.10934256346E+03  0.51753984200E+02  0.28075152036E+03  0.19200000000E+03 0.  0.
   -5000001    1    1    2    0    0 -0.16529714191E+03  0.10934256346E+03  0.58912600884E+03  0.65054776580E+03  0.19200000000E+03 0.  0.
<mgrwt>
<rscale>  0 0.67571532E+03</rscale>
<asrwt>0</asrwt>
<pdfrwt beam="1">  1        2 0.11229852E+00 0.67571532E+03</pdfrwt>
<pdfrwt beam="2">  1       -2 0.20744235E-01 0.67571532E+03</pdfrwt>
<totfact> 0.78055796E+02</totfact>
</mgrwt>
</event>
<event>
 4    1  0.5455400E-005  0.5255399E+03  0.7818608E-02  0.1007320E+00
         -2   -1    0    0    0  501 -0.00000000000E+00  0.00000000000E+00  0.79386882957E+02  0.79386882998E+02  0.25500000000E-02 0. -1.
          2   -1    0    0  501    0  0.00000000000E+00 -0.00000000000E+00 -0.86976634607E+03  0.86976634608E+03  0.25500000000E-02 0.  1.
    5000001    1    1    2    0    0  0.70662258621E+02 -0.66783769742E+02 -0.12289568985E+03  0.24783175196E+03  0.19200000000E+03 0.  0.
   -5000001    1    1    2    0    0 -0.70662258621E+02  0.66783769742E+02 -0.66748377327E+03  0.70132147712E+03  0.19200000000E+03 0.  0.
<mgrwt>
<rscale>  0 0.52553987E+03</rscale>
<asrwt>0</asrwt>
<pdfrwt beam="1">  1        2 0.12425233E+00 0.52553987E+03</pdfrwt>
<pdfrwt beam="2">  1       -2 0.11340984E-01 0.52553987E+03</pdfrwt>
<totfact> 0.19038854E+03</totfact>
</mgrwt>
</event>
<event>
 4    1  0.5455400E-005  0.8732486E+03  0.7818608E-02  0.9459654E-01
          2   -1    0    0  501    0  0.00000000000E+00  0.00000000000E+00  0.20633955607E+04  0.20633955607E+04  0.25500000000E-02 0.  1.
         -2   -1    0    0    0  501 -0.00000000000E+00 -0.00000000000E+00 -0.92391782356E+02  0.92391782391E+02  0.25500000000E-02 0. -1.
    5000001    1    1    2    0    0  0.33022565758E+03 -0.12944324975E+03  0.13983893876E+04  0.14553904697E+04  0.19200000000E+03 0.  0.
   -5000001    1    1    2    0    0 -0.33022565758E+03  0.12944324975E+03  0.57261439075E+03  0.70039687344E+03  0.19200000000E+03 0.  0.
<mgrwt>
<rscale>  0 0.87324863E+03</rscale>
<asrwt>0</asrwt>
<pdfrwt beam="1">  1        2 0.29477082E+00 0.87324863E+03</pdfrwt>
<pdfrwt beam="2">  1       -2 0.13198825E-01 0.87324863E+03</pdfrwt>
<totfact> 0.32731454E+02</totfact>
</mgrwt>
</event>
<event>
 4    1  0.5455400E-005  0.7658927E+03  0.7818608E-02  0.9610742E-01
          2   -1    0    0  501    0  0.00000000000E+00  0.00000000000E+00  0.71459581691E+03  0.71459581692E+03  0.25500000000E-02 0.  1.
         -2   -1    0    0    0  501 -0.00000000000E+00 -0.00000000000E+00 -0.20521798094E+03  0.20521798095E+03  0.25500000000E-02 0. -1.
    5000001    1    1    2    0    0 -0.60306223277E+02  0.25436000868E+03  0.10185987799E+02  0.32450517550E+03  0.19200000000E+03 0.  0.
   -5000001    1    1    2    0    0  0.60306223277E+02 -0.25436000868E+03  0.49919184817E+03  0.59530862237E+03  0.19200000000E+03 0.  0.
<mgrwt>
<rscale>  0 0.76589271E+03</rscale>
<asrwt>0</asrwt>
<pdfrwt beam="1">  1        2 0.10208512E+00 0.76589271E+03</pdfrwt>
<pdfrwt beam="2">  1       -2 0.29316854E-01 0.76589271E+03</pdfrwt>
<totfact> 0.47105600E+02</totfact>
</mgrwt>
</event>
<event>
 4    1  0.5455400E-005  0.5968905E+03  0.7818608E-02  0.9911878E-01
         -2   -1    0    0    0  501 -0.00000000000E+00  0.00000000000E+00  0.10096314182E+03  0.10096314186E+03  0.25500000000E-02 0. -1.
          2   -1    0    0  501    0  0.00000000000E+00 -0.00000000000E+00 -0.88219871661E+03  0.88219871662E+03  0.25500000000E-02 0.  1.
    5000001    1    1    2    0    0  0.15093767130E+03  0.18029087156E+02 -0.67159065652E+03  0.71484630413E+03  0.19200000000E+03 0.  0.
   -5000001    1    1    2    0    0 -0.15093767130E+03 -0.18029087156E+02 -0.10964491827E+03  0.26831555434E+03  0.19200000000E+03 0.  0.
<mgrwt>
<rscale>  0 0.59689046E+03</rscale>
<asrwt>0</asrwt>
<pdfrwt beam="1">  1        2 0.12602838E+00 0.59689046E+03</pdfrwt>
<pdfrwt beam="2">  1       -2 0.14423306E-01 0.59689046E+03</pdfrwt>
<totfact> 0.12544611E+03</totfact>
</mgrwt>
</event>
<event>
 4    1  0.5455400E-005  0.7721221E+03  0.7818608E-02  0.9601270E-01
          2   -1    0    0  501    0  0.00000000000E+00  0.00000000000E+00  0.15789820333E+04  0.15789820333E+04  0.25500000000E-02 0.  1.
         -2   -1    0    0    0  501 -0.00000000000E+00 -0.00000000000E+00 -0.94391913688E+02  0.94391913723E+02  0.25500000000E-02 0. -1.
    5000001    1    1    2    0    0 -0.15318194790E+03 -0.18260885614E+03  0.23233268911E+03  0.38425666153E+03  0.19200000000E+03 0.  0.
   -5000001    1    1    2    0    0  0.15318194790E+03  0.18260885614E+03  0.12522574305E+04  0.12891172855E+04  0.19200000000E+03 0.  0.
<mgrwt>
<rscale>  0 0.77212210E+03</rscale>
<asrwt>0</asrwt>
<pdfrwt beam="1">  1        2 0.22556884E+00 0.77212210E+03</pdfrwt>
<pdfrwt beam="2">  1       -2 0.13484560E-01 0.77212210E+03</pdfrwt>
<totfact> 0.56195016E+02</totfact>
</mgrwt>
</event>
<event>
 4    1  0.5455400E-005  0.5895626E+03  0.7818608E-02  0.9927300E-01
         -2   -1    0    0    0  501 -0.00000000000E+00  0.00000000000E+00  0.32212038224E+02  0.32212038325E+02  0.25500000000E-02 0. -1.
          2   -1    0    0  501    0  0.00000000000E+00 -0.00000000000E+00 -0.26976256407E+04  0.26976256407E+04  0.25500000000E-02 0.  1.
    5000001    1    1    2    0    0 -0.89907452551E+02  0.20086647940E+03 -0.15179946800E+04  0.15458339306E+04  0.19200000000E+03 0.  0.
   -5000001    1    1    2    0    0  0.89907452551E+02 -0.20086647940E+03 -0.11474189225E+04  0.11840037484E+04  0.19200000000E+03 0.  0.
<mgrwt>
<rscale>  0 0.58956262E+03</rscale>
<asrwt>0</asrwt>
<pdfrwt beam="1">  1        2 0.38537495E+00 0.58956262E+03</pdfrwt>
<pdfrwt beam="2">  1       -2 0.46017214E-02 0.58956262E+03</pdfrwt>
<totfact> 0.85393207E+02</totfact>
</mgrwt>
</event>
<event>
 4    1  0.5455400E-005  0.7119277E+03  0.7818608E-02  0.9697049E-01
          2   -1    0    0  501    0  0.00000000000E+00  0.00000000000E+00  0.11227691874E+04  0.11227691874E+04  0.25500000000E-02 0.  1.
         -2   -1    0    0    0  501 -0.00000000000E+00 -0.00000000000E+00 -0.11285513294E+03  0.11285513297E+03  0.25500000000E-02 0. -1.
    5000001    1    1    2    0    0  0.93119956099E+00 -0.29259147934E+03  0.39200102759E+03  0.52548972068E+03  0.19200000000E+03 0.  0.
   -5000001    1    1    2    0    0 -0.93119956099E+00  0.29259147934E+03  0.61791302690E+03  0.71013459973E+03  0.19200000000E+03 0.  0.
<mgrwt>
<rscale>  0 0.71192771E+03</rscale>
<asrwt>0</asrwt>
<pdfrwt beam="1">  1        2 0.16039559E+00 0.71192771E+03</pdfrwt>
<pdfrwt beam="2">  1       -2 0.16122162E-01 0.71192771E+03</pdfrwt>
<totfact> 0.73799071E+02</totfact>
</mgrwt>
</event>
<event>
 4    1  0.5455400E-005  0.6680056E+03  0.7818608E-02  0.9773567E-01
          2   -1    0    0  501    0  0.00000000000E+00  0.00000000000E+00  0.97222463529E+03  0.97222463529E+03  0.25500000000E-02 0.  1.
         -2   -1    0    0    0  501 -0.00000000000E+00 -0.00000000000E+00 -0.11474495989E+03  0.11474495992E+03  0.25500000000E-02 0. -1.
    5000001    1    1    2    0    0  0.18694939588E+03  0.62358894133E+02  0.73685506665E+03  0.78654821692E+03  0.19200000000E+03 0.  0.
   -5000001    1    1    2    0    0 -0.18694939588E+03 -0.62358894133E+02  0.12062460875E+03  0.30042137829E+03  0.19200000000E+03 0.  0.
<mgrwt>
<rscale>  0 0.66800562E+03</rscale>
<asrwt>0</asrwt>
<pdfrwt beam="1">  1        2 0.13888923E+00 0.66800562E+03</pdfrwt>
<pdfrwt beam="2">  1       -2 0.16392137E-01 0.66800562E+03</pdfrwt>
<totfact> 0.88421135E+02</totfact>
</mgrwt>
</event>
<event>
 4    1  0.5455400E-005  0.4194074E+03  0.7818608E-02  0.1037259E+00
          2   -1    0    0  501    0  0.00000000000E+00  0.00000000000E+00  0.13402251081E+04  0.13402251081E+04  0.25500000000E-02 0.  1.
         -2   -1    0    0    0  501 -0.00000000000E+00 -0.00000000000E+00 -0.32812133888E+02  0.32812133987E+02  0.25500000000E-02 0. -1.
    5000001    1    1    2    0    0  0.43430593048E+02 -0.19628423833E+02  0.88146562653E+03  0.90339202021E+03  0.19200000000E+03 0.  0.
   -5000001    1    1    2    0    0 -0.43430593048E+02  0.19628423833E+02  0.42594734772E+03  0.46964522191E+03  0.19200000000E+03 0.  0.
<mgrwt>
<rscale>  0 0.41940742E+03</rscale>
<asrwt>0</asrwt>
<pdfrwt beam="1">  1        2 0.19146071E+00 0.41940742E+03</pdfrwt>
<pdfrwt beam="2">  1       -2 0.46874483E-02 0.41940742E+03</pdfrwt>
<totfact> 0.40894396E+03</totfact>
</mgrwt>
</event>
<event>
 4    1  0.5455400E-005  0.5265995E+03  0.7818608E-02  0.1007060E+00
         -2   -1    0    0    0  501 -0.00000000000E+00  0.00000000000E+00  0.14625839468E+03  0.14625839470E+03  0.25500000000E-02 0. -1.
          2   -1    0    0  501    0  0.00000000000E+00 -0.00000000000E+00 -0.47400183009E+03  0.47400183009E+03  0.25500000000E-02 0.  1.
    5000001    1    1    2    0    0  0.12582232751E+03 -0.57543100055E+02 -0.27930796721E+02  0.23829938285E+03  0.19200000000E+03 0.  0.
   -5000001    1    1    2    0    0 -0.12582232751E+03  0.57543100055E+02 -0.29981263868E+03  0.38196084194E+03  0.19200000000E+03 0.  0.
<mgrwt>
<rscale>  0 0.52659946E+03</rscale>
<asrwt>0</asrwt>
<pdfrwt beam="1">  1        2 0.67714546E-01 0.52659946E+03</pdfrwt>
<pdfrwt beam="2">  1       -2 0.20894057E-01 0.52659946E+03</pdfrwt>
<totfact> 0.14080461E+03</totfact>
</mgrwt>
</event>
<event>
 4    1  0.5455400E-005  0.5105267E+03  0.7818608E-02  0.1011067E+00
         -2   -1    0    0    0  501 -0.00000000000E+00  0.00000000000E+00  0.52362260131E+02  0.52362260193E+02  0.25500000000E-02 0. -1.
          2   -1    0    0  501    0  0.00000000000E+00 -0.00000000000E+00 -0.12443960203E+04  0.12443960203E+04  0.25500000000E-02 0.  1.
    5000001    1    1    2    0    0  0.23858393347E+02 -0.14896563959E+03 -0.78499658895E+03  0.82209709242E+03  0.19200000000E+03 0.  0.
   -5000001    1    1    2    0    0 -0.23858393347E+02  0.14896563959E+03 -0.40703717124E+03  0.47466118809E+03  0.19200000000E+03 0.  0.
<mgrwt>
<rscale>  0 0.51052674E+03</rscale>
<asrwt>0</asrwt>
<pdfrwt beam="1">  1        2 0.17777084E+00 0.51052674E+03</pdfrwt>
<pdfrwt beam="2">  1       -2 0.74803236E-02 0.51052674E+03</pdfrwt>
<totfact> 0.22257345E+03</totfact>
</mgrwt>
</event>
<event>
 4    1  0.5455400E-005  0.6756535E+03  0.7818608E-02  0.9759798E-01
          2   -1    0    0  501    0  0.00000000000E+00  0.00000000000E+00  0.15734874769E+04  0.15734874769E+04  0.25500000000E-02 0.  1.
         -2   -1    0    0    0  501 -0.00000000000E+00 -0.00000000000E+00 -0.72531183365E+02  0.72531183410E+02  0.25500000000E-02 0. -1.
    5000001    1    1    2    0    0 -0.18901972857E+03 -0.84831048945E+02  0.12019172151E+04  0.12346634183E+04  0.19200000000E+03 0.  0.
   -5000001    1    1    2    0    0  0.18901972857E+03  0.84831048945E+02  0.29903907841E+03  0.41135524194E+03  0.19200000000E+03 0.  0.
<mgrwt>
<rscale>  0 0.67565349E+03</rscale>
<asrwt>0</asrwt>
<pdfrwt beam="1">  1        2 0.22478392E+00 0.67565349E+03</pdfrwt>
<pdfrwt beam="2">  1       -2 0.10361598E-01 0.67565349E+03</pdfrwt>
<totfact> 0.87786039E+02</totfact>
</mgrwt>
</event>
<event>
 4    1  0.5455400E-005  0.4431028E+03  0.7818608E-02  0.1029799E+00
         -2   -1    0    0    0  501 -0.00000000000E+00  0.00000000000E+00  0.36993272395E+03  0.36993272396E+03  0.25500000000E-02 0. -1.
          2   -1    0    0  501    0  0.00000000000E+00 -0.00000000000E+00 -0.13268634334E+03  0.13268634336E+03  0.25500000000E-02 0.  1.
    5000001    1    1    2    0    0 -0.30429723352E+02  0.10627267980E+03  0.11985008673E+03  0.25188865363E+03  0.19200000000E+03 0.  0.
   -5000001    1    1    2    0    0  0.30429723352E+02 -0.10627267980E+03  0.11739629388E+03  0.25073041370E+03  0.19200000000E+03 0.  0.
<mgrwt>
<rscale>  0 0.44310279E+03</rscale>
<asrwt>0</asrwt>
<pdfrwt beam="1">  1        2 0.18955191E-01 0.44310279E+03</pdfrwt>
<pdfrwt beam="2">  1       -2 0.52847533E-01 0.44310279E+03</pdfrwt>
<totfact> 0.10233600E+03</totfact>
</mgrwt>
</event>
<event>
 4    1  0.5455400E-005  0.7133531E+03  0.7818608E-02  0.9694665E-01
          2   -1    0    0  501    0  0.00000000000E+00  0.00000000000E+00  0.40486629607E+03  0.40486629608E+03  0.25500000000E-02 0.  1.
         -2   -1    0    0    0  501 -0.00000000000E+00 -0.00000000000E+00 -0.31422267939E+03  0.31422267941E+03  0.25500000000E-02 0. -1.
    5000001    1    1    2    0    0 -0.15451699725E+03  0.89590578627E+02 -0.19839107214E+03  0.32882364836E+03  0.19200000000E+03 0.  0.
   -5000001    1    1    2    0    0  0.15451699725E+03 -0.89590578627E+02  0.28903468881E+03  0.39026532712E+03  0.19200000000E+03 0.  0.
<mgrwt>
<rscale>  0 0.71335313E+03</rscale>
<asrwt>0</asrwt>
<pdfrwt beam="1">  1        2 0.57838043E-01 0.71335313E+03</pdfrwt>
<pdfrwt beam="2">  1       -2 0.44888954E-01 0.71335313E+03</pdfrwt>
<totfact> 0.40446257E+02</totfact>
</mgrwt>
</event>
<event>
 4    1  0.5455400E-005  0.4767358E+03  0.7818608E-02  0.1020036E+00
          2   -1    0    0  501    0  0.00000000000E+00  0.00000000000E+00  0.22185279564E+04  0.22185279564E+04  0.25500000000E-02 0.  1.
         -2   -1    0    0    0  501 -0.00000000000E+00 -0.00000000000E+00 -0.25611242228E+02  0.25611242355E+02  0.25500000000E-02 0. -1.
    5000001    1    1    2    0    0 -0.53588443208E+02 -0.10629829234E+03  0.14544674050E+04  0.14719070896E+04  0.19200000000E+03 0.  0.
   -5000001    1    1    2    0    0  0.53588443208E+02  0.10629829234E+03  0.73844930915E+03  0.77223210914E+03  0.19200000000E+03 0.  0.
<mgrwt>
<rscale>  0 0.47673581E+03</rscale>
<asrwt>0</asrwt>
<pdfrwt beam="1">  1        2 0.31693252E+00 0.47673581E+03</pdfrwt>
<pdfrwt beam="2">  1       -2 0.36587494E-02 0.47673581E+03</pdfrwt>
<totfact> 0.21468412E+03</totfact>
</mgrwt>
</event>
<event>
 4    1  0.5455400E-005  0.5535428E+03  0.7818608E-02  0.1000677E+00
          2   -1    0    0  501    0  0.00000000000E+00  0.00000000000E+00  0.14661314010E+04  0.14661314010E+04  0.25500000000E-02 0.  1.
         -2   -1    0    0    0  501 -0.00000000000E+00 -0.00000000000E+00 -0.52247979827E+02  0.52247979889E+02  0.25500000000E-02 0. -1.
    5000001    1    1    2    0    0  0.11790638707E+03  0.11941849568E+03  0.41181879379E+03  0.48437734478E+03  0.19200000000E+03 0.  0.
   -5000001    1    1    2    0    0 -0.11790638707E+03 -0.11941849568E+03  0.10020646274E+04  0.10340020361E+04  0.19200000000E+03 0.  0.
<mgrwt>
<rscale>  0 0.55354279E+03</rscale>
<asrwt>0</asrwt>
<pdfrwt beam="1">  1        2 0.20944733E+00 0.55354279E+03</pdfrwt>
<pdfrwt beam="2">  1       -2 0.74639975E-02 0.55354279E+03</pdfrwt>
<totfact> 0.16983782E+03</totfact>
</mgrwt>
</event>
<event>
 4    1  0.5455400E-005  0.4674755E+03  0.7818608E-02  0.1022635E+00
          2   -1    0    0  501    0  0.00000000000E+00  0.00000000000E+00  0.51290520175E+03  0.51290520176E+03  0.25500000000E-02 0.  1.
         -2   -1    0    0    0  501 -0.00000000000E+00 -0.00000000000E+00 -0.10651742096E+03  0.10651742099E+03  0.25500000000E-02 0. -1.
    5000001    1    1    2    0    0 -0.11125424633E+03  0.62042158572E+02  0.15115174234E+03  0.27556775206E+03  0.19200000000E+03 0.  0.
   -5000001    1    1    2    0    0  0.11125424633E+03 -0.62042158572E+02  0.25523603845E+03  0.34385487068E+03  0.19200000000E+03 0.  0.
<mgrwt>
<rscale>  0 0.46747552E+03</rscale>
<asrwt>0</asrwt>
<pdfrwt beam="1">  1        2 0.73272172E-01 0.46747552E+03</pdfrwt>
<pdfrwt beam="2">  1       -2 0.15216774E-01 0.46747552E+03</pdfrwt>
<totfact> 0.22142053E+03</totfact>
</mgrwt>
</event>
<event>
 4    1  0.5455400E-005  0.4728140E+03  0.7818608E-02  0.1021129E+00
          2   -1    0    0  501    0  0.00000000000E+00  0.00000000000E+00  0.16741001063E+04  0.16741001063E+04  0.25500000000E-02 0.  1.
         -2   -1    0    0    0  501 -0.00000000000E+00 -0.00000000000E+00 -0.33384070482E+02  0.33384070579E+02  0.25500000000E-02 0. -1.
    5000001    1    1    2    0    0  0.21870097439E+02 -0.13201718962E+03  0.69963842451E+03  0.73774302068E+03  0.19200000000E+03 0.  0.
   -5000001    1    1    2    0    0 -0.21870097439E+02  0.13201718962E+03  0.94107761128E+03  0.96974115617E+03  0.19200000000E+03 0.  0.
<mgrwt>
<rscale>  0 0.47281403E+03</rscale>
<asrwt>0</asrwt>
<pdfrwt beam="1">  1        2 0.23915710E+00 0.47281403E+03</pdfrwt>
<pdfrwt beam="2">  1       -2 0.47691541E-02 0.47281403E+03</pdfrwt>
<totfact> 0.26775062E+03</totfact>
</mgrwt>
</event>
<event>
 4    1  0.5455400E-005  0.4555014E+03  0.7818608E-02  0.1026094E+00
          2   -1    0    0  501    0  0.00000000000E+00  0.00000000000E+00  0.42920771893E+04  0.42920771893E+04  0.25500000000E-02 0.  1.
         -2   -1    0    0    0  501 -0.00000000000E+00 -0.00000000000E+00 -0.12085148827E+02  0.12085149096E+02  0.25500000000E-02 0. -1.
    5000001    1    1    2    0    0  0.60851201171E+02  0.88590574629E+02  0.26954365778E+04  0.27044026149E+04  0.19200000000E+03 0.  0.
   -5000001    1    1    2    0    0 -0.60851201171E+02 -0.88590574629E+02  0.15845554626E+04  0.15997597234E+04  0.19200000000E+03 0.  0.
<mgrwt>
<rscale>  0 0.45550145E+03</rscale>
<asrwt>0</asrwt>
<pdfrwt beam="1">  1        2 0.61315279E+00 0.45550145E+03</pdfrwt>
<pdfrwt beam="2">  1       -2 0.17264529E-02 0.45550145E+03</pdfrwt>
<totfact> 0.42211346E+02</totfact>
</mgrwt>
</event>
<event>
 4    1  0.5455400E-005  0.4701986E+03  0.7818608E-02  0.1021864E+00
          2   -1    0    0  501    0  0.00000000000E+00  0.00000000000E+00  0.22619209835E+04  0.22619209835E+04  0.25500000000E-02 0.  1.
         -2   -1    0    0    0  501 -0.00000000000E+00 -0.00000000000E+00 -0.24435723682E+02  0.24435723815E+02  0.25500000000E-02 0. -1.
    5000001    1    1    2    0    0  0.49167937098E+01  0.13553910271E+03  0.11360392261E+04  0.11601052307E+04  0.19200000000E+03 0.  0.
   -5000001    1    1    2    0    0 -0.49167937098E+01 -0.13553910271E+03  0.11014460337E+04  0.11262514766E+04  0.19200000000E+03 0.  0.
<mgrwt>
<rscale>  0 0.47019858E+03</rscale>
<asrwt>0</asrwt>
<pdfrwt beam="1">  1        2 0.32313141E+00 0.47019858E+03</pdfrwt>
<pdfrwt beam="2">  1       -2 0.34908194E-02 0.47019858E+03</pdfrwt>
<totfact> 0.21941089E+03</totfact>
</mgrwt>
</event>
<event>
 4    1  0.5455400E-005  0.5709070E+03  0.7818608E-02  0.9967674E-01
         -2   -1    0    0    0  501 -0.00000000000E+00  0.00000000000E+00  0.41328607622E+02  0.41328607701E+02  0.25500000000E-02 0. -1.
          2   -1    0    0  501    0  0.00000000000E+00 -0.00000000000E+00 -0.19716053898E+04  0.19716053898E+04  0.25500000000E-02 0.  1.
    5000001    1    1    2    0    0  0.99751943965E+02 -0.18523501998E+03 -0.10317800528E+04  0.10703721504E+04  0.19200000000E+03 0.  0.
   -5000001    1    1    2    0    0 -0.99751943965E+02  0.18523501998E+03 -0.89849672941E+03  0.94256184715E+03  0.19200000000E+03 0.  0.
<mgrwt>
<rscale>  0 0.57090702E+03</rscale>
<asrwt>0</asrwt>
<pdfrwt beam="1">  1        2 0.28165785E+00 0.57090702E+03</pdfrwt>
<pdfrwt beam="2">  1       -2 0.59040880E-02 0.57090702E+03</pdfrwt>
<totfact> 0.13580225E+03</totfact>
</mgrwt>
</event>
<event>
 4    1  0.5455400E-005  0.6212411E+03  0.7818608E-02  0.9862292E-01
         -2   -1    0    0    0  501 -0.00000000000E+00  0.00000000000E+00  0.62537886932E+02  0.62537886984E+02  0.25500000000E-02 0. -1.
          2   -1    0    0  501    0  0.00000000000E+00 -0.00000000000E+00 -0.15428267476E+04  0.15428267476E+04  0.25500000000E-02 0.  1.
    5000001    1    1    2    0    0 -0.12320891238E+03 -0.92536917733E+02 -0.25067536242E+03  0.35134833792E+03  0.19200000000E+03 0.  0.
   -5000001    1    1    2    0    0  0.12320891238E+03  0.92536917733E+02 -0.12296134982E+04  0.12540162967E+04  0.19200000000E+03 0.  0.
<mgrwt>
<rscale>  0 0.62124110E+03</rscale>
<asrwt>0</asrwt>
<pdfrwt beam="1">  1        2 0.22040380E+00 0.62124110E+03</pdfrwt>
<pdfrwt beam="2">  1       -2 0.89339848E-02 0.62124110E+03</pdfrwt>
<totfact> 0.11602126E+03</totfact>
</mgrwt>
</event>
<event>
 4    1  0.5455400E-005  0.6916932E+03  0.7818608E-02  0.9731544E-01
          2   -1    0    0  501    0  0.00000000000E+00  0.00000000000E+00  0.11005411572E+04  0.11005411572E+04  0.25500000000E-02 0.  1.
         -2   -1    0    0    0  501 -0.00000000000E+00 -0.00000000000E+00 -0.10868279138E+03  0.10868279141E+03  0.25500000000E-02 0. -1.
    5000001    1    1    2    0    0 -0.24787324980E+03  0.99648951319E+02  0.68238053706E+03  0.75754752909E+03  0.19200000000E+03 0.  0.
   -5000001    1    1    2    0    0  0.24787324980E+03 -0.99648951319E+02  0.30947782875E+03  0.45167641953E+03  0.19200000000E+03 0.  0.
<mgrwt>
<rscale>  0 0.69169324E+03</rscale>
<asrwt>0</asrwt>
<pdfrwt beam="1">  1        2 0.15722017E+00 0.69169324E+03</pdfrwt>
<pdfrwt beam="2">  1       -2 0.15526112E-01 0.69169324E+03</pdfrwt>
<totfact> 0.81111438E+02</totfact>
</mgrwt>
</event>
<event>
 4    1  0.5455400E-005  0.4706842E+03  0.7818608E-02  0.1021727E+00
         -2   -1    0    0    0  501 -0.00000000000E+00  0.00000000000E+00  0.21883319815E+03  0.21883319817E+03  0.25500000000E-02 0. -1.
          2   -1    0    0  501    0  0.00000000000E+00 -0.00000000000E+00 -0.25309641417E+03  0.25309641418E+03  0.25500000000E-02 0.  1.
    5000001    1    1    2    0    0 -0.99125025158E+02 -0.19529218208E+02 -0.10855806420E+03  0.24260258506E+03  0.19200000000E+03 0.  0.
   -5000001    1    1    2    0    0  0.99125025158E+02  0.19529218208E+02  0.74294848187E+02  0.22932702729E+03  0.19200000000E+03 0.  0.
<mgrwt>
<rscale>  0 0.47068417E+03</rscale>
<asrwt>0</asrwt>
<pdfrwt beam="1">  1        2 0.36156631E-01 0.47068417E+03</pdfrwt>
<pdfrwt beam="2">  1       -2 0.31261885E-01 0.47068417E+03</pdfrwt>
<totfact> 0.13643025E+03</totfact>
</mgrwt>
</event>
<event>
 4    1  0.5455400E-005  0.5695366E+03  0.7818608E-02  0.9970705E-01
         -2   -1    0    0    0  501 -0.00000000000E+00  0.00000000000E+00  0.11814394641E+03  0.11814394644E+03  0.25500000000E-02 0. -1.
          2   -1    0    0  501    0  0.00000000000E+00 -0.00000000000E+00 -0.68639130052E+03  0.68639130052E+03  0.25500000000E-02 0.  1.
    5000001    1    1    2    0    0  0.20263637854E+03  0.16749478625E+02 -0.20822370926E+03  0.34865908857E+03  0.19200000000E+03 0.  0.
   -5000001    1    1    2    0    0 -0.20263637854E+03 -0.16749478625E+02 -0.36002364484E+03  0.45587615839E+03  0.19200000000E+03 0.  0.
<mgrwt>
<rscale>  0 0.56953657E+03</rscale>
<asrwt>0</asrwt>
<pdfrwt beam="1">  1        2 0.98055898E-01 0.56953657E+03</pdfrwt>
<pdfrwt beam="2">  1       -2 0.16877707E-01 0.56953657E+03</pdfrwt>
<totfact> 0.13222263E+03</totfact>
</mgrwt>
</event>
<event>
 4    1  0.5455400E-005  0.5608496E+03  0.7818608E-02  0.9990134E-01
          2   -1    0    0  501    0  0.00000000000E+00  0.00000000000E+00  0.11116881451E+04  0.11116881451E+04  0.25500000000E-02 0.  1.
         -2   -1    0    0    0  501 -0.00000000000E+00 -0.00000000000E+00 -0.70737532036E+02  0.70737532082E+02  0.25500000000E-02 0. -1.
    5000001    1    1    2    0    0 -0.70100030873E+02 -0.17268104280E+03  0.34356447435E+03  0.43546906309E+03  0.19200000000E+03 0.  0.
   -5000001    1    1    2    0    0  0.70100030873E+02  0.17268104280E+03  0.69738613870E+03  0.74695661408E+03  0.19200000000E+03 0.  0.
<mgrwt>
<rscale>  0 0.56084963E+03</rscale>
<asrwt>0</asrwt>
<pdfrwt beam="1">  1        2 0.15881258E+00 0.56084963E+03</pdfrwt>
<pdfrwt beam="2">  1       -2 0.10105363E-01 0.56084963E+03</pdfrwt>
<totfact> 0.16324314E+03</totfact>
</mgrwt>
</event>
<event>
 4    1  0.5455400E-005  0.8608065E+03  0.7818608E-02  0.9475947E-01
          2   -1    0    0  501    0  0.00000000000E+00  0.00000000000E+00  0.12828117749E+04  0.12828117749E+04  0.25500000000E-02 0.  1.
         -2   -1    0    0    0  501 -0.00000000000E+00 -0.00000000000E+00 -0.14440696324E+03  0.14440696326E+03  0.25500000000E-02 0. -1.
    5000001    1    1    2    0    0  0.82354765082E+02  0.36401676480E+03  0.41110481958E+03  0.58750462557E+03  0.19200000000E+03 0.  0.
   -5000001    1    1    2    0    0 -0.82354765082E+02 -0.36401676480E+03  0.72729999205E+03  0.83971411255E+03  0.19200000000E+03 0.  0.
<mgrwt>
<rscale>  0 0.86080649E+03</rscale>
<asrwt>0</asrwt>
<pdfrwt beam="1">  1        2 0.18325882E+00 0.86080649E+03</pdfrwt>
<pdfrwt beam="2">  1       -2 0.20629567E-01 0.86080649E+03</pdfrwt>
<totfact> 0.38861566E+02</totfact>
</mgrwt>
</event>
<event>
 4    1  0.5455400E-005  0.6624019E+03  0.7818608E-02  0.9783782E-01
         -2   -1    0    0    0  501 -0.00000000000E+00  0.00000000000E+00  0.21634461131E+03  0.21634461133E+03  0.25500000000E-02 0. -1.
          2   -1    0    0  501    0  0.00000000000E+00 -0.00000000000E+00 -0.50703400997E+03  0.50703400998E+03  0.25500000000E-02 0.  1.
    5000001    1    1    2    0    0 -0.27143363808E+02  0.23656884916E+03 -0.66560287591E+01  0.30595732596E+03  0.19200000000E+03 0.  0.
   -5000001    1    1    2    0    0  0.27143363808E+02 -0.23656884916E+03 -0.28403336990E+03  0.41742129534E+03  0.19200000000E+03 0.  0.
<mgrwt>
<rscale>  0 0.66240192E+03</rscale>
<asrwt>0</asrwt>
<pdfrwt beam="1">  1        2 0.72433429E-01 0.66240192E+03</pdfrwt>
<pdfrwt beam="2">  1       -2 0.30906373E-01 0.66240192E+03</pdfrwt>
<totfact> 0.64360149E+02</totfact>
</mgrwt>
</event>
<event>
 4    1  0.5455400E-005  0.4236321E+03  0.7818608E-02  0.1035891E+00
         -2   -1    0    0    0  501 -0.00000000000E+00  0.00000000000E+00  0.37975529102E+02  0.37975529188E+02  0.25500000000E-02 0. -1.
          2   -1    0    0  501    0  0.00000000000E+00 -0.00000000000E+00 -0.11814458941E+04  0.11814458941E+04  0.25500000000E-02 0.  1.
    5000001    1    1    2    0    0  0.37499624870E+02 -0.60462677695E+02 -0.41565626374E+03  0.46335309090E+03  0.19200000000E+03 0.  0.
   -5000001    1    1    2    0    0 -0.37499624870E+02  0.60462677695E+02 -0.72781410130E+03  0.75606833244E+03  0.19200000000E+03 0.  0.
<mgrwt>
<rscale>  0 0.42363207E+03</rscale>
<asrwt>0</asrwt>
<pdfrwt beam="1">  1        2 0.16877796E+00 0.42363207E+03</pdfrwt>
<pdfrwt beam="2">  1       -2 0.54250763E-02 0.42363207E+03</pdfrwt>
<totfact> 0.39829979E+03</totfact>
</mgrwt>
</event>
<event>
 4    1  0.5455400E-005  0.4129501E+03  0.7818608E-02  0.1039386E+00
         -2   -1    0    0    0  501 -0.00000000000E+00  0.00000000000E+00  0.23759236836E+02  0.23759236973E+02  0.25500000000E-02 0. -1.
          2   -1    0    0  501    0  0.00000000000E+00 -0.00000000000E+00 -0.17943313921E+04  0.17943313921E+04  0.25500000000E-02 0.  1.
    5000001    1    1    2    0    0  0.54610542721E+02 -0.51889840308E+02 -0.92776180792E+03  0.95041087911E+03  0.19200000000E+03 0.  0.
   -5000001    1    1    2    0    0 -0.54610542721E+02  0.51889840308E+02 -0.84281034737E+03  0.86767974999E+03  0.19200000000E+03 0.  0.
<mgrwt>
<rscale>  0 0.41295009E+03</rscale>
<asrwt>0</asrwt>
<pdfrwt beam="1">  1        2 0.25633297E+00 0.41295009E+03</pdfrwt>
<pdfrwt beam="2">  1       -2 0.33941778E-02 0.41295009E+03</pdfrwt>
<totfact> 0.39188863E+03</totfact>
</mgrwt>
</event>
<event>
 4    1  0.5455400E-005  0.6009306E+03  0.7818608E-02  0.9903477E-01
          2   -1    0    0  501    0  0.00000000000E+00  0.00000000000E+00  0.58367465067E+03  0.58367465067E+03  0.25500000000E-02 0.  1.
         -2   -1    0    0    0  501 -0.00000000000E+00 -0.00000000000E+00 -0.15467417193E+03  0.15467417195E+03  0.25500000000E-02 0. -1.
    5000001    1    1    2    0    0 -0.14026727387E+03 -0.15854966968E+03  0.10054106402E+03  0.30296107247E+03  0.19200000000E+03 0.  0.
   -5000001    1    1    2    0    0  0.14026727387E+03  0.15854966968E+03  0.32845941471E+03  0.43538775016E+03  0.19200000000E+03 0.  0.
<mgrwt>
<rscale>  0 0.60093059E+03</rscale>
<asrwt>0</asrwt>
<pdfrwt beam="1">  1        2 0.83382093E-01 0.60093059E+03</pdfrwt>
<pdfrwt beam="2">  1       -2 0.22096310E-01 0.60093059E+03</pdfrwt>
<totfact> 0.10050898E+03</totfact>
</mgrwt>
</event>
<event>
 4    1  0.5455400E-005  0.5598316E+03  0.7818608E-02  0.9992436E-01
         -2   -1    0    0    0  501 -0.00000000000E+00  0.00000000000E+00  0.15294004026E+04  0.15294004026E+04  0.25500000000E-02 0. -1.
          2   -1    0    0  501    0  0.00000000000E+00 -0.00000000000E+00 -0.51231099202E+02  0.51231099266E+02  0.25500000000E-02 0.  1.
    5000001    1    1    2    0    0  0.64541626035E+02 -0.19272591093E+03  0.77696098287E+03  0.82573680258E+03  0.19200000000E+03 0.  0.
   -5000001    1    1    2    0    0 -0.64541626035E+02  0.19272591093E+03  0.70120832054E+03  0.75489469930E+03  0.19200000000E+03 0.  0.
<mgrwt>
<rscale>  0 0.55983163E+03</rscale>
<asrwt>0</asrwt>
<pdfrwt beam="1">  1        2 0.73187297E-02 0.55983163E+03</pdfrwt>
<pdfrwt beam="2">  1       -2 0.21848574E+00 0.55983163E+03</pdfrwt>
<totfact> 0.10380354E+02</totfact>
</mgrwt>
</event>
<event>
 4    1  0.5455400E-005  0.5129757E+03  0.7818608E-02  0.1010446E+00
          2   -1    0    0  501    0  0.00000000000E+00  0.00000000000E+00  0.24107453495E+04  0.24107453495E+04  0.25500000000E-02 0.  1.
         -2   -1    0    0    0  501 -0.00000000000E+00 -0.00000000000E+00 -0.27288665477E+02  0.27288665596E+02  0.25500000000E-02 0. -1.
    5000001    1    1    2    0    0 -0.28936276252E+02  0.16598636385E+03  0.13014785402E+04  0.13263103603E+04  0.19200000000E+03 0.  0.
   -5000001    1    1    2    0    0  0.28936276252E+02 -0.16598636385E+03  0.10819781438E+04  0.11117236548E+04  0.19200000000E+03 0.  0.
<mgrwt>
<rscale>  0 0.51297572E+03</rscale>
<asrwt>0</asrwt>
<pdfrwt beam="1">  1        2 0.34439236E+00 0.51297572E+03</pdfrwt>
<pdfrwt beam="2">  1       -2 0.38983789E-02 0.51297572E+03</pdfrwt>
<totfact> 0.15564912E+03</totfact>
</mgrwt>
</event>
<event>
 4    1  0.5455400E-005  0.5966295E+03  0.7818608E-02  0.9912424E-01
          2   -1    0    0  501    0  0.00000000000E+00  0.00000000000E+00  0.21697119372E+03  0.21697119373E+03  0.25500000000E-02 0.  1.
         -2   -1    0    0    0  501 -0.00000000000E+00 -0.00000000000E+00 -0.41015434994E+03  0.41015434995E+03  0.25500000000E-02 0. -1.
    5000001    1    1    2    0    0 -0.21693491700E+03  0.49595103001E+02 -0.15026272040E+03  0.33009592181E+03  0.19200000000E+03 0.  0.
   -5000001    1    1    2    0    0  0.21693491700E+03 -0.49595103001E+02 -0.42920435824E+02  0.29702962187E+03  0.19200000000E+03 0.  0.
<mgrwt>
<rscale>  0 0.59662946E+03</rscale>
<asrwt>0</asrwt>
<pdfrwt beam="1">  1        2 0.30995885E-01 0.59662946E+03</pdfrwt>
<pdfrwt beam="2">  1       -2 0.58593478E-01 0.59662946E+03</pdfrwt>
<totfact> 0.47100162E+02</totfact>
</mgrwt>
</event>
<event>
 4    1  0.5455400E-005  0.5711068E+03  0.7818608E-02  0.9967232E-01
          2   -1    0    0  501    0  0.00000000000E+00  0.00000000000E+00  0.64433836012E+03  0.64433836013E+03  0.25500000000E-02 0.  1.
         -2   -1    0    0    0  501 -0.00000000000E+00 -0.00000000000E+00 -0.12654957653E+03  0.12654957656E+03  0.25500000000E-02 0. -1.
    5000001    1    1    2    0    0  0.10479004131E+03  0.10475183225E+03  0.46236668937E+03  0.52211191765E+03  0.19200000000E+03 0.  0.
   -5000001    1    1    2    0    0 -0.10479004131E+03 -0.10475183225E+03  0.55422094223E+02  0.24877601903E+03  0.19200000000E+03 0.  0.
<mgrwt>
<rscale>  0 0.57110681E+03</rscale>
<asrwt>0</asrwt>
<pdfrwt beam="1">  1        2 0.92048335E-01 0.57110681E+03</pdfrwt>
<pdfrwt beam="2">  1       -2 0.18078511E-01 0.57110681E+03</pdfrwt>
<totfact> 0.12685845E+03</totfact>
</mgrwt>
</event>
<event>
 4    1  0.5455400E-005  0.4667557E+03  0.7818608E-02  0.1022840E+00
         -2   -1    0    0    0  501 -0.00000000000E+00  0.00000000000E+00  0.78783741272E+02  0.78783741313E+02  0.25500000000E-02 0. -1.
          2   -1    0    0  501    0  0.00000000000E+00 -0.00000000000E+00 -0.69132568443E+03  0.69132568444E+03  0.25500000000E-02 0.  1.
    5000001    1    1    2    0    0  0.11749685953E+03  0.28930192733E+02 -0.21652450484E+03  0.31367073381E+03  0.19200000000E+03 0.  0.
   -5000001    1    1    2    0    0 -0.11749685953E+03 -0.28930192733E+02 -0.39601743832E+03  0.45643869194E+03  0.19200000000E+03 0.  0.
<mgrwt>
<rscale>  0 0.46675571E+03</rscale>
<asrwt>0</asrwt>
<pdfrwt beam="1">  1        2 0.98760809E-01 0.46675571E+03</pdfrwt>
<pdfrwt beam="2">  1       -2 0.11254821E-01 0.46675571E+03</pdfrwt>
<totfact> 0.25718216E+03</totfact>
</mgrwt>
</event>
<event>
 4    1  0.5455400E-005  0.3968899E+03  0.7818608E-02  0.1044862E+00
          2   -1    0    0  501    0  0.00000000000E+00  0.00000000000E+00  0.65270827682E+03  0.65270827682E+03  0.25500000000E-02 0.  1.
         -2   -1    0    0    0  501 -0.00000000000E+00 -0.00000000000E+00 -0.60333831722E+02  0.60333831776E+02  0.25500000000E-02 0. -1.
    5000001    1    1    2    0    0  0.39549072877E+02 -0.26232996452E+02  0.26699125548E+03  0.33226590221E+03  0.19200000000E+03 0.  0.
   -5000001    1    1    2    0    0 -0.39549072877E+02  0.26232996452E+02  0.32538318962E+03  0.38077620639E+03  0.19200000000E+03 0.  0.
<mgrwt>
<rscale>  0 0.39688987E+03</rscale>
<asrwt>0</asrwt>
<pdfrwt beam="1">  1        2 0.93244038E-01 0.39688987E+03</pdfrwt>
<pdfrwt beam="2">  1       -2 0.86191189E-02 0.39688987E+03</pdfrwt>
<totfact> 0.42203981E+03</totfact>
</mgrwt>
</event>
<event>
 4    1  0.5455400E-005  0.5606429E+03  0.7818608E-02  0.9990601E-01
          2   -1    0    0  501    0  0.00000000000E+00  0.00000000000E+00  0.80807478125E+03  0.80807478125E+03  0.25500000000E-02 0. -1.
         -2   -1    0    0    0  501 -0.00000000000E+00 -0.00000000000E+00 -0.97243625230E+02  0.97243625263E+02  0.25500000000E-02 0.  1.
    5000001    1    1    2    0    0  0.19556920617E+03 -0.41369013381E+01  0.45028605382E+03  0.52714889606E+03  0.19200000000E+03 0.  0.
   -5000001    1    1    2    0    0 -0.19556920617E+03  0.41369013381E+01  0.26054510220E+03  0.37816951046E+03  0.19200000000E+03 0.  0.
<mgrwt>
<rscale>  0 0.56064292E+03</rscale>
<asrwt>0</asrwt>
<pdfrwt beam="1">  1        2 0.11543925E+00 0.56064292E+03</pdfrwt>
<pdfrwt beam="2">  1       -2 0.13891947E-01 0.56064292E+03</pdfrwt>
<totfact> 0.14981487E+03</totfact>
</mgrwt>
</event>
<event>
 4    1  0.5455400E-005  0.7986257E+03  0.7818608E-02  0.9562009E-01
         -2   -1    0    0    0  501 -0.00000000000E+00  0.00000000000E+00  0.22172152759E+03  0.22172152760E+03  0.25500000000E-02 0. -1.
          2   -1    0    0  501    0  0.00000000000E+00 -0.00000000000E+00 -0.71914865277E+03  0.71914865278E+03  0.25500000000E-02 0.  1.
    5000001    1    1    2    0    0  0.27158608911E+03 -0.59931318957E+02 -0.49928317483E+03  0.60290833089E+03  0.19200000000E+03 0.  0.
   -5000001    1    1    2    0    0 -0.27158608911E+03  0.59931318957E+02  0.18560496472E+01  0.33796184949E+03  0.19200000000E+03 0.  0.
<mgrwt>
<rscale>  0 0.79862566E+03</rscale>
<asrwt>0</asrwt>
<pdfrwt beam="1">  1        2 0.10273552E+00 0.79862566E+03</pdfrwt>
<pdfrwt beam="2">  1       -2 0.31674504E-01 0.79862566E+03</pdfrwt>
<totfact> 0.40426299E+02</totfact>
</mgrwt>
</event>
<event>
 4    1  0.5455400E-005  0.8622691E+03  0.7818608E-02  0.9474016E-01
          2   -1    0    0  501    0  0.00000000000E+00  0.00000000000E+00  0.11474711453E+03  0.11474711456E+03  0.25500000000E-02 0.  1.
         -2   -1    0    0    0  501 -0.00000000000E+00 -0.00000000000E+00 -0.16198838732E+04  0.16198838732E+04  0.25500000000E-02 0. -1.
    5000001    1    1    2    0    0  0.26209862627E+03 -0.28324564031E+03 -0.73356679594E+03  0.85082784790E+03  0.19200000000E+03 0.  0.
   -5000001    1    1    2    0    0 -0.26209862627E+03  0.28324564031E+03 -0.77156996268E+03  0.88380313982E+03  0.19200000000E+03 0.  0.
<mgrwt>
<rscale>  0 0.86226910E+03</rscale>
<asrwt>0</asrwt>
<pdfrwt beam="1">  1        2 0.16392446E-01 0.86226910E+03</pdfrwt>
<pdfrwt beam="2">  1       -2 0.23141197E+00 0.86226910E+03</pdfrwt>
<totfact> 0.30637369E+01</totfact>
</mgrwt>
</event>
<event>
 4    1  0.5455400E-005  0.1546453E+04  0.7818608E-02  0.8854137E-01
          2   -1    0    0  501    0  0.00000000000E+00  0.00000000000E+00  0.68491842030E+03  0.68491842030E+03  0.25500000000E-02 0.  1.
         -2   -1    0    0    0  501 -0.00000000000E+00 -0.00000000000E+00 -0.87292025854E+03  0.87292025854E+03  0.25500000000E-02 0. -1.
    5000001    1    1    2    0    0  0.45433722278E+03  0.57926824081E+03 -0.23300656901E+03  0.79569470780E+03  0.19200000000E+03 0.  0.
   -5000001    1    1    2    0    0 -0.45433722278E+03 -0.57926824081E+03  0.45004730764E+02  0.76214397105E+03  0.19200000000E+03 0.  0.
<mgrwt>
<rscale>  0 0.15464529E+04</rscale>
<asrwt>0</asrwt>
<pdfrwt beam="1">  1        2 0.97845489E-01 0.15464529E+04</pdfrwt>
<pdfrwt beam="2">  1       -2 0.12470289E+00 0.15464529E+04</pdfrwt>
<totfact> 0.21516061E+01</totfact>
</mgrwt>
</event>
<event>
 4    1  0.5455400E-005  0.8888678E+03  0.7818608E-02  0.9439605E-01
          2   -1    0    0  501    0  0.00000000000E+00  0.00000000000E+00  0.16064848334E+04  0.16064848334E+04  0.25500000000E-02 0.  1.
         -2   -1    0    0    0  501 -0.00000000000E+00 -0.00000000000E+00 -0.12295259070E+03  0.12295259072E+03  0.25500000000E-02 0. -1.
    5000001    1    1    2    0    0  0.27603050189E+03  0.14533578198E+03  0.25208418696E+03  0.44466365358E+03  0.19200000000E+03 0.  0.
   -5000001    1    1    2    0    0 -0.27603050189E+03 -0.14533578198E+03  0.12314480558E+04  0.12847737706E+04  0.19200000000E+03 0.  0.
<mgrwt>
<rscale>  0 0.88886776E+03</rscale>
<asrwt>0</asrwt>
<pdfrwt beam="1">  1        2 0.22949781E+00 0.88886776E+03</pdfrwt>
<pdfrwt beam="2">  1       -2 0.17564657E-01 0.88886776E+03</pdfrwt>
<totfact> 0.34486184E+02</totfact>
</mgrwt>
</event>
<event>
 4    1  0.5455400E-005  0.5175638E+03  0.7818608E-02  0.1009294E+00
         -2   -1    0    0    0  501 -0.00000000000E+00  0.00000000000E+00  0.30738072714E+02  0.30738072820E+02  0.25500000000E-02 0. -1.
          2   -1    0    0  501    0  0.00000000000E+00 -0.00000000000E+00 -0.21786689390E+04  0.21786689390E+04  0.25500000000E-02 0.  1.
    5000001    1    1    2    0    0 -0.25621980471E+02 -0.16459341407E+03 -0.12811967249E+04  0.13061686437E+04  0.19200000000E+03 0.  0.
   -5000001    1    1    2    0    0  0.25621980471E+02  0.16459341407E+03 -0.86673414134E+03  0.90323836810E+03  0.19200000000E+03 0.  0.
<mgrwt>
<rscale>  0 0.51756385E+03</rscale>
<asrwt>0</asrwt>
<pdfrwt beam="1">  1        2 0.31123832E+00 0.51756385E+03</pdfrwt>
<pdfrwt beam="2">  1       -2 0.43911546E-02 0.51756385E+03</pdfrwt>
<totfact> 0.16968440E+03</totfact>
</mgrwt>
</event>
<event>
 4    1  0.5455400E-005  0.5587807E+03  0.7818608E-02  0.9994817E-01
          2   -1    0    0  501    0  0.00000000000E+00  0.00000000000E+00  0.18446522580E+04  0.18446522580E+04  0.25500000000E-02 0.  1.
         -2   -1    0    0    0  501 -0.00000000000E+00 -0.00000000000E+00 -0.42316358733E+02  0.42316358810E+02  0.25500000000E-02 0. -1.
    5000001    1    1    2    0    0  0.92415262423E+02 -0.14372822682E+03  0.12710404654E+04  0.12967676154E+04  0.19200000000E+03 0.  0.
   -5000001    1    1    2    0    0 -0.92415262423E+02  0.14372822682E+03  0.53129543392E+03  0.59020100136E+03  0.19200000000E+03 0.  0.
<mgrwt>
<rscale>  0 0.55878070E+03</rscale>
<asrwt>0</asrwt>
<pdfrwt beam="1">  1        2 0.26352175E+00 0.55878070E+03</pdfrwt>
<pdfrwt beam="2">  1       -2 0.60451942E-02 0.55878070E+03</pdfrwt>
<totfact> 0.15164626E+03</totfact>
</mgrwt>
</event>
<event>
 4    1  0.5455400E-005  0.7738023E+03  0.7818608E-02  0.9598731E-01
          2   -1    0    0  501    0  0.00000000000E+00  0.00000000000E+00  0.16162649858E+04  0.16162649858E+04  0.25500000000E-02 0.  1.
         -2   -1    0    0    0  501 -0.00000000000E+00 -0.00000000000E+00 -0.92616302744E+02  0.92616302779E+02  0.25500000000E-02 0. -1.
    5000001    1    1    2    0    0 -0.14215497452E+03  0.28569269785E+03  0.53020177891E+03  0.64792459495E+03  0.19200000000E+03 0.  0.
   -5000001    1    1    2    0    0  0.14215497452E+03 -0.28569269785E+03  0.99344690411E+03  0.10609566936E+04  0.19200000000E+03 0.  0.
<mgrwt>
<rscale>  0 0.77380227E+03</rscale>
<asrwt>0</asrwt>
<pdfrwt beam="1">  1        2 0.23089500E+00 0.77380227E+03</pdfrwt>
<pdfrwt beam="2">  1       -2 0.13230900E-01 0.77380227E+03</pdfrwt>
<totfact> 0.55477011E+02</totfact>
</mgrwt>
</event>
<event>
 4    1  0.5455400E-005  0.4520513E+03  0.7818608E-02  0.1027112E+00
          2   -1    0    0  501    0  0.00000000000E+00  0.00000000000E+00  0.31876150612E+04  0.31876150612E+04  0.25500000000E-02 0.  1.
         -2   -1    0    0    0  501 -0.00000000000E+00 -0.00000000000E+00 -0.16026902964E+02  0.16026903166E+02  0.25500000000E-02 0. -1.
    5000001    1    1    2    0    0  0.63285851602E+02  0.99856388940E+02  0.14743695976E+04  0.14915113502E+04  0.19200000000E+03 0.  0.
   -5000001    1    1    2    0    0 -0.63285851602E+02 -0.99856388940E+02  0.16972185606E+04  0.17121306142E+04  0.19200000000E+03 0.  0.
<mgrwt>
<rscale>  0 0.45205131E+03</rscale>
<asrwt>0</asrwt>
<pdfrwt beam="1">  1        2 0.45537337E+00 0.45205131E+03</pdfrwt>
<pdfrwt beam="2">  1       -2 0.22895586E-02 0.45205131E+03</pdfrwt>
<totfact> 0.13615959E+03</totfact>
</mgrwt>
</event>
<event>
 4    1  0.5455400E-005  0.6430844E+03  0.7818608E-02  0.9819843E-01
         -2   -1    0    0    0  501 -0.00000000000E+00  0.00000000000E+00  0.21336056969E+03  0.21336056970E+03  0.25500000000E-02 0. -1.
          2   -1    0    0  501    0  0.00000000000E+00 -0.00000000000E+00 -0.48457595581E+03  0.48457595582E+03  0.25500000000E-02 0.  1.
    5000001    1    1    2    0    0 -0.15569342322E+03  0.20484590595E+03 -0.15511630326E+03  0.35654923188E+03  0.19200000000E+03 0.  0.
   -5000001    1    1    2    0    0  0.15569342322E+03 -0.20484590595E+03 -0.11609908286E+03  0.34138729364E+03  0.19200000000E+03 0.  0.
<mgrwt>
<rscale>  0 0.64308445E+03</rscale>
<asrwt>0</asrwt>
<pdfrwt beam="1">  1        2 0.69225136E-01 0.64308445E+03</pdfrwt>
<pdfrwt beam="2">  1       -2 0.30480081E-01 0.64308445E+03</pdfrwt>
<totfact> 0.69567551E+02</totfact>
</mgrwt>
</event>
<event>
 4    1  0.5455400E-005  0.5758500E+03  0.7818608E-02  0.9956816E-01
          2   -1    0    0  501    0  0.00000000000E+00  0.00000000000E+00  0.17956646676E+04  0.17956646676E+04  0.25500000000E-02 0.  1.
         -2   -1    0    0    0  501 -0.00000000000E+00 -0.00000000000E+00 -0.46167191896E+02  0.46167191966E+02  0.25500000000E-02 0. -1.
    5000001    1    1    2    0    0  0.75719328595E+02  0.18340542482E+03  0.11358853189E+04  0.11689612586E+04  0.19200000000E+03 0.  0.
   -5000001    1    1    2    0    0 -0.75719328595E+02 -0.18340542482E+03  0.61361215683E+03  0.67287060092E+03  0.19200000000E+03 0.  0.
<mgrwt>
<rscale>  0 0.57584996E+03</rscale>
<asrwt>0</asrwt>
<pdfrwt beam="1">  1        2 0.25652355E+00 0.57584996E+03</pdfrwt>
<pdfrwt beam="2">  1       -2 0.65953125E-02 0.57584996E+03</pdfrwt>
<totfact> 0.13990564E+03</totfact>
</mgrwt>
</event>
<event>
 4    1  0.5455400E-005  0.4334335E+03  0.7818608E-02  0.1032781E+00
          2   -1    0    0  501    0  0.00000000000E+00  0.00000000000E+00  0.19779407707E+03  0.19779407708E+03  0.25500000000E-02 0.  1.
         -2   -1    0    0    0  501 -0.00000000000E+00 -0.00000000000E+00 -0.23744971949E+03  0.23744971950E+03  0.25500000000E-02 0. -1.
    5000001    1    1    2    0    0  0.95365415067E+02 -0.28204039341E+02 -0.34452918999E+02  0.21895441045E+03  0.19200000000E+03 0.  0.
   -5000001    1    1    2    0    0 -0.95365415067E+02  0.28204039341E+02 -0.52027234261E+01  0.21628938614E+03  0.19200000000E+03 0.  0.
<mgrwt>
<rscale>  0 0.43343349E+03</rscale>
<asrwt>0</asrwt>
<pdfrwt beam="1">  1        2 0.28256297E-01 0.43343349E+03</pdfrwt>
<pdfrwt beam="2">  1       -2 0.33921388E-01 0.43343349E+03</pdfrwt>
<totfact> 0.15399965E+03</totfact>
</mgrwt>
</event>
<event>
 4    1  0.5455400E-005  0.4635519E+03  0.7818608E-02  0.1023756E+00
          2   -1    0    0  501    0  0.00000000000E+00  0.00000000000E+00  0.57076631113E+03  0.57076631113E+03  0.25500000000E-02 0.  1.
         -2   -1    0    0    0  501 -0.00000000000E+00 -0.00000000000E+00 -0.94119230881E+02  0.94119230915E+02  0.25500000000E-02 0. -1.
    5000001    1    1    2    0    0 -0.26872104346E+01 -0.11254760275E+03  0.33107814537E+03  0.39893724108E+03  0.19200000000E+03 0.  0.
   -5000001    1    1    2    0    0  0.26872104346E+01  0.11254760275E+03  0.14556893488E+03  0.26594830096E+03  0.19200000000E+03 0.  0.
<mgrwt>
<rscale>  0 0.46355188E+03</rscale>
<asrwt>0</asrwt>
<pdfrwt beam="1">  1        2 0.81538042E-01 0.46355188E+03</pdfrwt>
<pdfrwt beam="2">  1       -2 0.13445605E-01 0.46355188E+03</pdfrwt>
<totfact> 0.24078813E+03</totfact>
</mgrwt>
</event>
<event>
 4    1  0.5455400E-005  0.5550935E+03  0.7818608E-02  0.1000322E+00
         -2   -1    0    0    0  501 -0.00000000000E+00  0.00000000000E+00  0.11088006316E+03  0.11088006319E+03  0.25500000000E-02 0. -1.
          2   -1    0    0  501    0  0.00000000000E+00 -0.00000000000E+00 -0.69473447150E+03  0.69473447151E+03  0.25500000000E-02 0.  1.
    5000001    1    1    2    0    0  0.12950563377E+02  0.19779072332E+03 -0.33496334546E+03  0.43399692410E+03  0.19200000000E+03 0.  0.
   -5000001    1    1    2    0    0 -0.12950563377E+02 -0.19779072332E+03 -0.24889106288E+03  0.37161761060E+03  0.19200000000E+03 0.  0.
<mgrwt>
<rscale>  0 0.55509351E+03</rscale>
<asrwt>0</asrwt>
<pdfrwt beam="1">  1        2 0.99247779E-01 0.55509351E+03</pdfrwt>
<pdfrwt beam="2">  1       -2 0.15840009E-01 0.55509351E+03</pdfrwt>
<totfact> 0.14512249E+03</totfact>
</mgrwt>
</event>
<event>
 4    1  0.5455400E-005  0.9605638E+03  0.7818608E-02  0.9352888E-01
          2   -1    0    0  501    0  0.00000000000E+00  0.00000000000E+00  0.22131927386E+04  0.22131927386E+04  0.25500000000E-02 0.  1.
         -2   -1    0    0    0  501 -0.00000000000E+00 -0.00000000000E+00 -0.10422530857E+03  0.10422530860E+03  0.25500000000E-02 0. -1.
    5000001    1    1    2    0    0  0.18762699198E+02 -0.40405457161E+03  0.63526319563E+03  0.77719718440E+03  0.19200000000E+03 0.  0.
   -5000001    1    1    2    0    0 -0.18762699198E+02  0.40405457161E+03  0.14737042344E+04  0.15402208628E+04  0.19200000000E+03 0.  0.
<mgrwt>
<rscale>  0 0.96056378E+03</rscale>
<asrwt>0</asrwt>
<pdfrwt beam="1">  1        2 0.31617035E+00 0.96056378E+03</pdfrwt>
<pdfrwt beam="2">  1       -2 0.14889332E-01 0.96056378E+03</pdfrwt>
<totfact> 0.22274296E+02</totfact>
</mgrwt>
</event>
<event>
 4    1  0.5455400E-005  0.7120410E+03  0.7818608E-02  0.9696859E-01
         -2   -1    0    0    0  501 -0.00000000000E+00  0.00000000000E+00  0.86405783097E+02  0.86405783134E+02  0.25500000000E-02 0. -1.
          2   -1    0    0  501    0  0.00000000000E+00 -0.00000000000E+00 -0.14669227524E+04  0.14669227524E+04  0.25500000000E-02 0.  1.
    5000001    1    1    2    0    0  0.26513341456E+03  0.17650474305E+02 -0.99316206430E+03  0.10458690897E+04  0.19200000000E+03 0.  0.
   -5000001    1    1    2    0    0 -0.26513341456E+03 -0.17650474305E+02 -0.38735490496E+03  0.50745944582E+03  0.19200000000E+03 0.  0.
<mgrwt>
<rscale>  0 0.71204104E+03</rscale>
<asrwt>0</asrwt>
<pdfrwt beam="1">  1        2 0.20956038E+00 0.71204104E+03</pdfrwt>
<pdfrwt beam="2">  1       -2 0.12343684E-01 0.71204104E+03</pdfrwt>
<totfact> 0.74733501E+02</totfact>
</mgrwt>
</event>
<event>
 4    1  0.5455400E-005  0.4449313E+03  0.7818608E-02  0.1029244E+00
         -2   -1    0    0    0  501 -0.00000000000E+00  0.00000000000E+00  0.82205345159E+02  0.82205345199E+02  0.25500000000E-02 0. -1.
          2   -1    0    0  501    0  0.00000000000E+00 -0.00000000000E+00 -0.60204064175E+03  0.60204064176E+03  0.25500000000E-02 0.  1.
    5000001    1    1    2    0    0  0.59119128721E+02 -0.54498115286E+02 -0.38063637266E+03  0.43383541135E+03  0.19200000000E+03 0.  0.
   -5000001    1    1    2    0    0 -0.59119128721E+02  0.54498115286E+02 -0.13919892393E+03  0.25041057560E+03  0.19200000000E+03 0.  0.
<mgrwt>
<rscale>  0 0.44493127E+03</rscale>
<asrwt>0</asrwt>
<pdfrwt beam="1">  1        2 0.86005803E-01 0.44493127E+03</pdfrwt>
<pdfrwt beam="2">  1       -2 0.11743621E-01 0.44493127E+03</pdfrwt>
<totfact> 0.28259950E+03</totfact>
</mgrwt>
</event>
<event>
 4    1  0.5455400E-005  0.5339330E+03  0.7818608E-02  0.1005283E+00
         -2   -1    0    0    0  501 -0.00000000000E+00  0.00000000000E+00  0.16033167858E+02  0.16033168060E+02  0.25500000000E-02 0. -1.
          2   -1    0    0  501    0  0.00000000000E+00 -0.00000000000E+00 -0.44452295390E+04  0.44452295390E+04  0.25500000000E-02 0.  1.
    5000001    1    1    2    0    0  0.27080465537E+01 -0.17403368791E+03 -0.27503953713E+04  0.27625773756E+04  0.19200000000E+03 0.  0.
   -5000001    1    1    2    0    0 -0.27080465537E+01  0.17403368791E+03 -0.16788009998E+04  0.16986853314E+04  0.19200000000E+03 0.  0.
<mgrwt>
<rscale>  0 0.53393300E+03</rscale>
<asrwt>0</asrwt>
<pdfrwt beam="1">  1        2 0.63503200E+00 0.53393300E+03</pdfrwt>
<pdfrwt beam="2">  1       -2 0.22904554E-02 0.53393300E+03</pdfrwt>
<totfact> 0.21019318E+02</totfact>
</mgrwt>
</event>
<event>
 4    1  0.5455400E-005  0.4556772E+03  0.7818608E-02  0.1026042E+00
         -2   -1    0    0    0  501 -0.00000000000E+00  0.00000000000E+00  0.98211204128E+02  0.98211204161E+02  0.25500000000E-02 0. -1.
          2   -1    0    0  501    0  0.00000000000E+00 -0.00000000000E+00 -0.52855911666E+03  0.52855911666E+03  0.25500000000E-02 0.  1.
    5000001    1    1    2    0    0  0.66096049766E+02  0.63378884872E+02 -0.10291625018E+03  0.23630769220E+03  0.19200000000E+03 0.  0.
   -5000001    1    1    2    0    0 -0.66096049766E+02 -0.63378884872E+02 -0.32743166235E+03  0.39046262862E+03  0.19200000000E+03 0.  0.
<mgrwt>
<rscale>  0 0.45567720E+03</rscale>
<asrwt>0</asrwt>
<pdfrwt beam="1">  1        2 0.75508443E-01 0.45567720E+03</pdfrwt>
<pdfrwt beam="2">  1       -2 0.14030172E-01 0.45567720E+03</pdfrwt>
<totfact> 0.24498562E+03</totfact>
</mgrwt>
</event>
<event>
 4    1  0.5455400E-005  0.9080488E+03  0.7818608E-02  0.9415576E-01
          2   -1    0    0  501    0  0.00000000000E+00  0.00000000000E+00  0.23771618504E+04  0.23771618504E+04  0.25500000000E-02 0.  1.
         -2   -1    0    0    0  501 -0.00000000000E+00 -0.00000000000E+00 -0.86716073041E+02  0.86716073078E+02  0.25500000000E-02 0. -1.
    5000001    1    1    2    0    0 -0.51761915201E+02  0.29213825896E+03  0.37179127696E+03  0.51294913183E+03  0.19200000000E+03 0.  0.
   -5000001    1    1    2    0    0  0.51761915201E+02 -0.29213825896E+03  0.19186545004E+04  0.19509287917E+04  0.19200000000E+03 0.  0.
<mgrwt>
<rscale>  0 0.90804877E+03</rscale>
<asrwt>0</asrwt>
<pdfrwt beam="1">  1        2 0.33959448E+00 0.90804877E+03</pdfrwt>
<pdfrwt beam="2">  1       -2 0.12388013E-01 0.90804877E+03</pdfrwt>
<totfact> 0.25090605E+02</totfact>
</mgrwt>
</event>
<event>
 4    1  0.5455400E-005  0.7126351E+03  0.7818608E-02  0.9695865E-01
         -2   -1    0    0    0  501 -0.00000000000E+00  0.00000000000E+00  0.37294297253E+03  0.37294297254E+03  0.25500000000E-02 0. -1.
          2   -1    0    0  501    0  0.00000000000E+00 -0.00000000000E+00 -0.34043325435E+03  0.34043325436E+03  0.25500000000E-02 0.  1.
    5000001    1    1    2    0    0 -0.29523893159E+03  0.53583699679E+02  0.84396767032E+01  0.35633196284E+03  0.19200000000E+03 0.  0.
   -5000001    1    1    2    0    0  0.29523893159E+03 -0.53583699679E+02  0.24070041482E+02  0.35704426406E+03  0.19200000000E+03 0.  0.
<mgrwt>
<rscale>  0 0.71263508E+03</rscale>
<asrwt>0</asrwt>
<pdfrwt beam="1">  1        2 0.48633322E-01 0.71263508E+03</pdfrwt>
<pdfrwt beam="2">  1       -2 0.53277568E-01 0.71263508E+03</pdfrwt>
<totfact> 0.34686808E+02</totfact>
</mgrwt>
</event>
<event>
 4    1  0.5455400E-005  0.1019778E+04  0.7818608E-02  0.9287115E-01
         -2   -1    0    0    0  501 -0.00000000000E+00  0.00000000000E+00  0.23687361267E+03  0.23687361268E+03  0.25500000000E-02 0. -1.
          2   -1    0    0  501    0  0.00000000000E+00 -0.00000000000E+00 -0.10975761492E+04  0.10975761492E+04  0.25500000000E-02 0.  1.
    5000001    1    1    2    0    0  0.36945714747E+03 -0.24649747603E+03 -0.21990655993E+03  0.53149081328E+03  0.19200000000E+03 0.  0.
   -5000001    1    1    2    0    0 -0.36945714747E+03  0.24649747603E+03 -0.64079597657E+03  0.80295894858E+03  0.19200000000E+03 0.  0.
<mgrwt>
<rscale>  0 0.10197781E+04</rscale>
<asrwt>0</asrwt>
<pdfrwt beam="1">  1        2 0.15679659E+00 0.10197781E+04</pdfrwt>
<pdfrwt beam="2">  1       -2 0.33839088E-01 0.10197781E+04</pdfrwt>
<totfact> 0.19929488E+02</totfact>
</mgrwt>
</event>
<event>
 4    1  0.5455400E-005  0.9948399E+03  0.7818608E-02  0.9314222E-01
         -2   -1    0    0    0  501 -0.00000000000E+00  0.00000000000E+00  0.14957036897E+03  0.14957036899E+03  0.25500000000E-02 0. -1.
          2   -1    0    0  501    0  0.00000000000E+00 -0.00000000000E+00 -0.16542488224E+04  0.16542488224E+04  0.25500000000E-02 0.  1.
    5000001    1    1    2    0    0 -0.12007058129E+03 -0.30193728811E+03 -0.16486051608E+03  0.41185684431E+03  0.19200000000E+03 0.  0.
   -5000001    1    1    2    0    0  0.12007058129E+03  0.30193728811E+03 -0.13398179373E+04  0.13919623470E+04  0.19200000000E+03 0.  0.
<mgrwt>
<rscale>  0 0.99483990E+03</rscale>
<asrwt>0</asrwt>
<pdfrwt beam="1">  1        2 0.23632125E+00 0.99483990E+03</pdfrwt>
<pdfrwt beam="2">  1       -2 0.21367197E-01 0.99483990E+03</pdfrwt>
<totfact> 0.22980856E+02</totfact>
</mgrwt>
</event>
<event>
 4    1  0.5455400E-005  0.4480490E+03  0.7818608E-02  0.1028305E+00
         -2   -1    0    0    0  501 -0.00000000000E+00  0.00000000000E+00  0.63209684815E+02  0.63209684866E+02  0.25500000000E-02 0. -1.
          2   -1    0    0  501    0  0.00000000000E+00 -0.00000000000E+00 -0.79397614949E+03  0.79397614949E+03  0.25500000000E-02 0.  1.
    5000001    1    1    2    0    0  0.62640753520E+02  0.50602687819E+02 -0.52359159475E+03  0.56346841447E+03  0.19200000000E+03 0.  0.
   -5000001    1    1    2    0    0 -0.62640753520E+02 -0.50602687819E+02 -0.20717486992E+03  0.29371741988E+03  0.19200000000E+03 0.  0.
<mgrwt>
<rscale>  0 0.44804902E+03</rscale>
<asrwt>0</asrwt>
<pdfrwt beam="1">  1        2 0.11342516E+00 0.44804902E+03</pdfrwt>
<pdfrwt beam="2">  1       -2 0.90299555E-02 0.44804902E+03</pdfrwt>
<totfact> 0.30912082E+03</totfact>
</mgrwt>
</event>
<event>
 4    1  0.5455400E-005  0.5659699E+03  0.7818608E-02  0.9978637E-01
         -2   -1    0    0    0  501 -0.00000000000E+00  0.00000000000E+00  0.17326558521E+03  0.17326558523E+03  0.25500000000E-02 0. -1.
          2   -1    0    0  501    0  0.00000000000E+00 -0.00000000000E+00 -0.46218338494E+03  0.46218338495E+03  0.25500000000E-02 0.  1.
    5000001    1    1    2    0    0  0.89218818691E+02 -0.17219257931E+03 -0.60392707793E+02  0.27950234549E+03  0.19200000000E+03 0.  0.
   -5000001    1    1    2    0    0 -0.89218818691E+02  0.17219257931E+03 -0.22852509194E+03  0.35594662469E+03  0.19200000000E+03 0.  0.
<mgrwt>
<rscale>  0 0.56596987E+03</rscale>
<asrwt>0</asrwt>
<pdfrwt beam="1">  1        2 0.66026197E-01 0.56596987E+03</pdfrwt>
<pdfrwt beam="2">  1       -2 0.24752227E-01 0.56596987E+03</pdfrwt>
<totfact> 0.10734028E+03</totfact>
</mgrwt>
</event>
<event>
 4    1  0.5455400E-005  0.4598851E+03  0.7818608E-02  0.1024815E+00
         -2   -1    0    0    0  501 -0.00000000000E+00  0.00000000000E+00  0.13340994577E+03  0.13340994580E+03  0.25500000000E-02 0. -1.
          2   -1    0    0  501    0  0.00000000000E+00 -0.00000000000E+00 -0.39632418077E+03  0.39632418078E+03  0.25500000000E-02 0.  1.
    5000001    1    1    2    0    0  0.10033614550E+02  0.12471048975E+03 -0.10971708046E+03  0.25407718791E+03  0.19200000000E+03 0.  0.
   -5000001    1    1    2    0    0 -0.10033614550E+02 -0.12471048975E+03 -0.15319715454E+03  0.27565693866E+03  0.19200000000E+03 0.  0.
<mgrwt>
<rscale>  0 0.45988515E+03</rscale>
<asrwt>0</asrwt>
<pdfrwt beam="1">  1        2 0.56617739E-01 0.45988515E+03</pdfrwt>
<pdfrwt beam="2">  1       -2 0.19058564E-01 0.45988515E+03</pdfrwt>
<totfact> 0.20137041E+03</totfact>
</mgrwt>
</event>
<event>
 4    1  0.5455400E-005  0.5703799E+03  0.7818608E-02  0.9968838E-01
         -2   -1    0    0    0  501 -0.00000000000E+00  0.00000000000E+00  0.13338092172E+03  0.13338092175E+03  0.25500000000E-02 0. -1.
          2   -1    0    0  501    0  0.00000000000E+00 -0.00000000000E+00 -0.60978207491E+03  0.60978207492E+03  0.25500000000E-02 0.  1.
    5000001    1    1    2    0    0 -0.74776626883E+02  0.49077310882E+02 -0.48701916982E+03  0.53108549043E+03  0.19200000000E+03 0.  0.
   -5000001    1    1    2    0    0  0.74776626883E+02 -0.49077310882E+02  0.10618016633E+02  0.21207750623E+03  0.19200000000E+03 0.  0.
<mgrwt>
<rscale>  0 0.57037986E+03</rscale>
<asrwt>0</asrwt>
<pdfrwt beam="1">  1        2 0.87111724E-01 0.57037986E+03</pdfrwt>
<pdfrwt beam="2">  1       -2 0.19054418E-01 0.57037986E+03</pdfrwt>
<totfact> 0.12370387E+03</totfact>
</mgrwt>
</event>
<event>
 4    1  0.5455400E-005  0.4881586E+03  0.7818608E-02  0.1016917E+00
         -2   -1    0    0    0  501 -0.00000000000E+00  0.00000000000E+00  0.32247437299E+02  0.32247437400E+02  0.25500000000E-02 0. -1.
          2   -1    0    0  501    0  0.00000000000E+00 -0.00000000000E+00 -0.18474245484E+04  0.18474245484E+04  0.25500000000E-02 0.  1.
    5000001    1    1    2    0    0  0.13855571357E+03  0.48202108446E+02 -0.10403945390E+04  0.10680851679E+04  0.19200000000E+03 0.  0.
   -5000001    1    1    2    0    0 -0.13855571357E+03 -0.48202108446E+02 -0.77478257207E+03  0.81158681791E+03  0.19200000000E+03 0.  0.
<mgrwt>
<rscale>  0 0.48815861E+03</rscale>
<asrwt>0</asrwt>
<pdfrwt beam="1">  1        2 0.26391773E+00 0.48815861E+03</pdfrwt>
<pdfrwt beam="2">  1       -2 0.46067779E-02 0.48815861E+03</pdfrwt>
<totfact> 0.23100793E+03</totfact>
</mgrwt>
</event>
<event>
 4    1  0.5455400E-005  0.5198810E+03  0.7818608E-02  0.1008716E+00
         -2   -1    0    0    0  501 -0.00000000000E+00  0.00000000000E+00  0.48665194885E+02  0.48665194952E+02  0.25500000000E-02 0. -1.
          2   -1    0    0  501    0  0.00000000000E+00 -0.00000000000E+00 -0.13884474190E+04  0.13884474190E+04  0.25500000000E-02 0.  1.
    5000001    1    1    2    0    0 -0.11233915789E+03  0.98767408966E+02 -0.92218617362E+03  0.95376434526E+03  0.19200000000E+03 0.  0.
   -5000001    1    1    2    0    0  0.11233915789E+03 -0.98767408966E+02 -0.41759605054E+03  0.48334826874E+03  0.19200000000E+03 0.  0.
<mgrwt>
<rscale>  0 0.51988100E+03</rscale>
<asrwt>0</asrwt>
<pdfrwt beam="1">  1        2 0.19834961E+00 0.51988100E+03</pdfrwt>
<pdfrwt beam="2">  1       -2 0.69521716E-02 0.51988100E+03</pdfrwt>
<totfact> 0.20891491E+03</totfact>
</mgrwt>
</event>
<event>
 4    1  0.5455400E-005  0.8036738E+03  0.7818608E-02  0.9554715E-01
         -2   -1    0    0    0  501 -0.00000000000E+00  0.00000000000E+00  0.34285532462E+03  0.34285532463E+03  0.25500000000E-02 0. -1.
          2   -1    0    0  501    0  0.00000000000E+00 -0.00000000000E+00 -0.47096513418E+03  0.47096513419E+03  0.25500000000E-02 0.  1.
    5000001    1    1    2    0    0 -0.33245639101E+03  0.62487169781E+02  0.38099897581E+02  0.39082924725E+03  0.19200000000E+03 0.  0.
   -5000001    1    1    2    0    0  0.33245639101E+03 -0.62487169781E+02 -0.16620970714E+03  0.42299121156E+03  0.19200000000E+03 0.  0.
<mgrwt>
<rscale>  0 0.80367382E+03</rscale>
<asrwt>0</asrwt>
<pdfrwt beam="1">  1        2 0.67280734E-01 0.80367382E+03</pdfrwt>
<pdfrwt beam="2">  1       -2 0.48979332E-01 0.80367382E+03</pdfrwt>
<totfact> 0.28550166E+02</totfact>
</mgrwt>
</event>
<event>
 4    1  0.5455400E-005  0.1135405E+04  0.7818608E-02  0.9171354E-01
         -2   -1    0    0    0  501 -0.00000000000E+00  0.00000000000E+00  0.62452385118E+03  0.62452385119E+03  0.25500000000E-02 0. -1.
          2   -1    0    0  501    0  0.00000000000E+00 -0.00000000000E+00 -0.51605139247E+03  0.51605139248E+03  0.25500000000E-02 0.  1.
    5000001    1    1    2    0    0  0.14240081830E+03 -0.45702505991E+03 -0.18406214312E+03  0.54762466249E+03  0.19200000000E+03 0.  0.
   -5000001    1    1    2    0    0 -0.14240081830E+03  0.45702505991E+03  0.29253460183E+03  0.59295058117E+03  0.19200000000E+03 0.  0.
<mgrwt>
<rscale>  0 0.11354055E+04</rscale>
<asrwt>0</asrwt>
<pdfrwt beam="1">  1        2 0.73721628E-01 0.11354055E+04</pdfrwt>
<pdfrwt beam="2">  1       -2 0.89217693E-01 0.11354055E+04</pdfrwt>
<totfact> 0.69250025E+01</totfact>
</mgrwt>
</event>
<event>
 4    1  0.5455400E-005  0.5684849E+03  0.7818608E-02  0.9973037E-01
         -2   -1    0    0    0  501 -0.00000000000E+00  0.00000000000E+00  0.63844215712E+03  0.63844215712E+03  0.25500000000E-02 0. -1.
          2   -1    0    0  501    0  0.00000000000E+00 -0.00000000000E+00 -0.12654830424E+03  0.12654830427E+03  0.25500000000E-02 0.  1.
    5000001    1    1    2    0    0 -0.18926461549E+03 -0.47542836734E+02  0.35885607732E+03  0.45135695433E+03  0.19200000000E+03 0.  0.
   -5000001    1    1    2    0    0  0.18926461549E+03  0.47542836734E+02  0.15303777556E+03  0.31363350705E+03  0.19200000000E+03 0.  0.
<mgrwt>
<rscale>  0 0.56848491E+03</rscale>
<asrwt>0</asrwt>
<pdfrwt beam="1">  1        2 0.18078329E-01 0.56848491E+03</pdfrwt>
<pdfrwt beam="2">  1       -2 0.91206022E-01 0.56848491E+03</pdfrwt>
<totfact> 0.33177901E+02</totfact>
</mgrwt>
</event>
<event>
 4    1  0.5455400E-005  0.4245098E+03  0.7818608E-02  0.1035608E+00
          2   -1    0    0  501    0  0.00000000000E+00  0.00000000000E+00  0.34678356081E+03  0.34678356081E+03  0.25500000000E-02 0.  1.
         -2   -1    0    0    0  501 -0.00000000000E+00 -0.00000000000E+00 -0.12991428980E+03  0.12991428983E+03  0.25500000000E-02 0. -1.
    5000001    1    1    2    0    0  0.56432445364E+02 -0.34582259979E+02  0.17772620056E+03  0.26987248093E+03  0.19200000000E+03 0.  0.
   -5000001    1    1    2    0    0 -0.56432445364E+02  0.34582259979E+02  0.39143070436E+02  0.20682536972E+03  0.19200000000E+03 0.  0.
<mgrwt>
<rscale>  0 0.42450979E+03</rscale>
<asrwt>0</asrwt>
<pdfrwt beam="1">  1        2 0.49540508E-01 0.42450979E+03</pdfrwt>
<pdfrwt beam="2">  1       -2 0.18559185E-01 0.42450979E+03</pdfrwt>
<totfact> 0.24380685E+03</totfact>
</mgrwt>
</event>
<event>
 4    1  0.5455400E-005  0.6016065E+03  0.7818608E-02  0.9902079E-01
         -2   -1    0    0    0  501 -0.00000000000E+00  0.00000000000E+00  0.19645758001E+04  0.19645758001E+04  0.25500000000E-02 0. -1.
          2   -1    0    0  501    0  0.00000000000E+00 -0.00000000000E+00 -0.46057071934E+02  0.46057072005E+02  0.25500000000E-02 0.  1.
    5000001    1    1    2    0    0  0.22039265322E+03  0.23642192216E+02  0.73539477864E+03  0.79170787245E+03  0.19200000000E+03 0.  0.
   -5000001    1    1    2    0    0 -0.22039265322E+03 -0.23642192216E+02  0.11831239496E+04  0.12189249997E+04  0.19200000000E+03 0.  0.
<mgrwt>
<rscale>  0 0.60160655E+03</rscale>
<asrwt>0</asrwt>
<pdfrwt beam="1">  1        2 0.65795841E-02 0.60160655E+03</pdfrwt>
<pdfrwt beam="2">  1       -2 0.28065358E+00 0.60160655E+03</pdfrwt>
<totfact> 0.50160049E+01</totfact>
</mgrwt>
</event>
<event>
 4    1  0.5455400E-005  0.7292155E+03  0.7818608E-02  0.9668534E-01
         -2   -1    0    0    0  501 -0.00000000000E+00  0.00000000000E+00  0.50846679874E+02  0.50846679938E+02  0.25500000000E-02 0. -1.
          2   -1    0    0  501    0  0.00000000000E+00 -0.00000000000E+00 -0.26145032653E+04  0.26145032653E+04  0.25500000000E-02 0.  1.
    5000001    1    1    2    0    0 -0.21479116421E+03 -0.22330293115E+03 -0.12500968367E+04  0.13021541938E+04  0.19200000000E+03 0.  0.
   -5000001    1    1    2    0    0  0.21479116421E+03  0.22330293115E+03 -0.13135597487E+04  0.13631957514E+04  0.19200000000E+03 0.  0.
<mgrwt>
<rscale>  0 0.72921550E+03</rscale>
<asrwt>0</asrwt>
<pdfrwt beam="1">  1        2 0.37350038E+00 0.72921550E+03</pdfrwt>
<pdfrwt beam="2">  1       -2 0.72638130E-02 0.72921550E+03</pdfrwt>
<totfact> 0.45637172E+02</totfact>
</mgrwt>
</event>
<event>
 4    1  0.5455400E-005  0.6816324E+03  0.7818608E-02  0.9749169E-01
          2   -1    0    0  501    0  0.00000000000E+00  0.00000000000E+00  0.86586378298E+03  0.86586378298E+03  0.25500000000E-02 0.  1.
         -2   -1    0    0    0  501 -0.00000000000E+00 -0.00000000000E+00 -0.13415007904E+03  0.13415007906E+03  0.25500000000E-02 0. -1.
    5000001    1    1    2    0    0  0.12886485937E+03  0.20964287758E+03  0.16504592780E+03  0.35307286272E+03  0.19200000000E+03 0.  0.
   -5000001    1    1    2    0    0 -0.12886485937E+03 -0.20964287758E+03  0.56666777614E+03  0.64694099933E+03  0.19200000000E+03 0.  0.
<mgrwt>
<rscale>  0 0.68163244E+03</rscale>
<asrwt>0</asrwt>
<pdfrwt beam="1">  1        2 0.12369482E+00 0.68163244E+03</pdfrwt>
<pdfrwt beam="2">  1       -2 0.19164298E-01 0.68163244E+03</pdfrwt>
<totfact> 0.79049456E+02</totfact>
</mgrwt>
</event>
<event>
 4    1  0.5455400E-005  0.4203458E+03  0.7818608E-02  0.1036954E+00
         -2   -1    0    0    0  501 -0.00000000000E+00  0.00000000000E+00  0.86158814438E+02  0.86158814475E+02  0.25500000000E-02 0. -1.
          2   -1    0    0  501    0  0.00000000000E+00 -0.00000000000E+00 -0.51268866735E+03  0.51268866735E+03  0.25500000000E-02 0.  1.
    5000001    1    1    2    0    0 -0.46700865750E+02  0.65805878788E+02 -0.17303859931E+03  0.27077249010E+03  0.19200000000E+03 0.  0.
   -5000001    1    1    2    0    0  0.46700865750E+02 -0.65805878788E+02 -0.25349125360E+03  0.32807499173E+03  0.19200000000E+03 0.  0.
<mgrwt>
<rscale>  0 0.42034580E+03</rscale>
<asrwt>0</asrwt>
<pdfrwt beam="1">  1        2 0.73241237E-01 0.42034580E+03</pdfrwt>
<pdfrwt beam="2">  1       -2 0.12308402E-01 0.42034580E+03</pdfrwt>
<totfact> 0.31439380E+03</totfact>
</mgrwt>
</event>
<event>
 4    1  0.5455400E-005  0.4264090E+03  0.7818608E-02  0.1035000E+00
          2   -1    0    0  501    0  0.00000000000E+00  0.00000000000E+00  0.42636657820E+03  0.42636657821E+03  0.25500000000E-02 0.  1.
         -2   -1    0    0    0  501 -0.00000000000E+00 -0.00000000000E+00 -0.10661283307E+03  0.10661283310E+03  0.25500000000E-02 0. -1.
    5000001    1    1    2    0    0  0.92378285196E+02 -0.21174591574E+01  0.15069884183E+03  0.26098347100E+03  0.19200000000E+03 0.  0.
   -5000001    1    1    2    0    0 -0.92378285196E+02  0.21174591574E+01  0.16905490331E+03  0.27199594030E+03  0.19200000000E+03 0.  0.
<mgrwt>
<rscale>  0 0.42640895E+03</rscale>
<asrwt>0</asrwt>
<pdfrwt beam="1">  1        2 0.60909512E-01 0.42640895E+03</pdfrwt>
<pdfrwt beam="2">  1       -2 0.15230405E-01 0.42640895E+03</pdfrwt>
<totfact> 0.27151721E+03</totfact>
</mgrwt>
</event>
<event>
 4    1  0.5455400E-005  0.6073533E+03  0.7818608E-02  0.9890267E-01
         -2   -1    0    0    0  501 -0.00000000000E+00  0.00000000000E+00  0.10336502533E+03  0.10336502536E+03  0.25500000000E-02 0. -1.
          2   -1    0    0  501    0  0.00000000000E+00 -0.00000000000E+00 -0.89217318610E+03  0.89217318610E+03  0.25500000000E-02 0.  1.
    5000001    1    1    2    0    0 -0.64375066200E+02  0.15784081046E+03 -0.66021626259E+03  0.70838364181E+03  0.19200000000E+03 0.  0.
   -5000001    1    1    2    0    0  0.64375066200E+02 -0.15784081046E+03 -0.12859189818E+03  0.28715456965E+03  0.19200000000E+03 0.  0.
<mgrwt>
<rscale>  0 0.60735329E+03</rscale>
<asrwt>0</asrwt>
<pdfrwt beam="1">  1        2 0.12745331E+00 0.60735329E+03</pdfrwt>
<pdfrwt beam="2">  1       -2 0.14766433E-01 0.60735329E+03</pdfrwt>
<totfact> 0.11877782E+03</totfact>
</mgrwt>
</event>
<event>
 4    1  0.5455400E-005  0.7587313E+03  0.7818608E-02  0.9621751E-01
          2   -1    0    0  501    0  0.00000000000E+00  0.00000000000E+00  0.32328934407E+03  0.32328934408E+03  0.25500000000E-02 0.  1.
         -2   -1    0    0    0  501 -0.00000000000E+00 -0.00000000000E+00 -0.44516873025E+03  0.44516873025E+03  0.25500000000E-02 0. -1.
    5000001    1    1    2    0    0 -0.18874525450E+03 -0.67150033123E+02  0.20106643824E+03  0.34267420480E+03  0.19200000000E+03 0.  0.
   -5000001    1    1    2    0    0  0.18874525450E+03  0.67150033123E+02 -0.32294582442E+03  0.42578386954E+03  0.19200000000E+03 0.  0.
<mgrwt>
<rscale>  0 0.75873133E+03</rscale>
<asrwt>0</asrwt>
<pdfrwt beam="1">  1        2 0.46184192E-01 0.75873133E+03</pdfrwt>
<pdfrwt beam="2">  1       -2 0.63595533E-01 0.75873133E+03</pdfrwt>
<totfact> 0.25309638E+02</totfact>
</mgrwt>
</event>
<event>
 4    1  0.5455400E-005  0.7764637E+03  0.7818608E-02  0.9594724E-01
         -2   -1    0    0    0  501 -0.00000000000E+00  0.00000000000E+00  0.10587278950E+03  0.10587278953E+03  0.25500000000E-02 0. -1.
          2   -1    0    0  501    0  0.00000000000E+00 -0.00000000000E+00 -0.14236326877E+04  0.14236326877E+04  0.25500000000E-02 0.  1.
    5000001    1    1    2    0    0 -0.33301073790E+03 -0.43910003459E+02 -0.59548540371E+03  0.71013456894E+03  0.19200000000E+03 0.  0.
   -5000001    1    1    2    0    0  0.33301073790E+03  0.43910003459E+02 -0.72227449446E+03  0.81937090827E+03  0.19200000000E+03 0.  0.
<mgrwt>
<rscale>  0 0.77646369E+03</rscale>
<asrwt>0</asrwt>
<pdfrwt beam="1">  1        2 0.20337609E+00 0.77646369E+03</pdfrwt>
<pdfrwt beam="2">  1       -2 0.15124685E-01 0.77646369E+03</pdfrwt>
<totfact> 0.55900675E+02</totfact>
</mgrwt>
</event>
<event>
 4    1  0.5455400E-005  0.4488752E+03  0.7818608E-02  0.1028058E+00
         -2   -1    0    0    0  501 -0.00000000000E+00  0.00000000000E+00  0.80017918729E+02  0.80017918770E+02  0.25500000000E-02 0. -1.
          2   -1    0    0  501    0  0.00000000000E+00 -0.00000000000E+00 -0.62951185042E+03  0.62951185042E+03  0.25500000000E-02 0.  1.
    5000001    1    1    2    0    0  0.11295345315E+03  0.19407195155E+02 -0.24421453821E+03  0.33111910618E+03  0.19200000000E+03 0.  0.
   -5000001    1    1    2    0    0 -0.11295345315E+03 -0.19407195155E+02 -0.30527939348E+03  0.37841066301E+03  0.19200000000E+03 0.  0.
<mgrwt>
<rscale>  0 0.44887516E+03</rscale>
<asrwt>0</asrwt>
<pdfrwt beam="1">  1        2 0.89930261E-01 0.44887516E+03</pdfrwt>
<pdfrwt beam="2">  1       -2 0.11431132E-01 0.44887516E+03</pdfrwt>
<totfact> 0.28029067E+03</totfact>
</mgrwt>
</event>
<event>
 4    1  0.5455400E-005  0.5970309E+03  0.7818608E-02  0.9911585E-01
         -2   -1    0    0    0  501 -0.00000000000E+00  0.00000000000E+00  0.16856196929E+03  0.16856196930E+03  0.25500000000E-02 0. -1.
          2   -1    0    0  501    0  0.00000000000E+00 -0.00000000000E+00 -0.52865696433E+03  0.52865696433E+03  0.25500000000E-02 0.  1.
    5000001    1    1    2    0    0  0.19614126166E+03  0.71747968723E+01 -0.31685881903E+03  0.41926886771E+03  0.19200000000E+03 0.  0.
   -5000001    1    1    2    0    0 -0.19614126166E+03 -0.71747968723E+01 -0.43236176013E+02  0.27795006593E+03  0.19200000000E+03 0.  0.
<mgrwt>
<rscale>  0 0.59703085E+03</rscale>
<asrwt>0</asrwt>
<pdfrwt beam="1">  1        2 0.75522423E-01 0.59703085E+03</pdfrwt>
<pdfrwt beam="2">  1       -2 0.24080282E-01 0.59703085E+03</pdfrwt>
<totfact> 0.96774196E+02</totfact>
</mgrwt>
</event>
<event>
 4    1  0.5455400E-005  0.1128540E+04  0.7818608E-02  0.9177812E-01
          2   -1    0    0  501    0  0.00000000000E+00  0.00000000000E+00  0.18979374394E+04  0.18979374394E+04  0.25500000000E-02 0.  1.
         -2   -1    0    0    0  501 -0.00000000000E+00 -0.00000000000E+00 -0.16776152896E+03  0.16776152898E+03  0.25500000000E-02 0. -1.
    5000001    1    1    2    0    0  0.31427832184E+03 -0.40938658922E+03  0.10905239593E+04  0.12216688376E+04  0.19200000000E+03 0.  0.
   -5000001    1    1    2    0    0 -0.31427832184E+03  0.40938658922E+03  0.63965195109E+03  0.84403013070E+03  0.19200000000E+03 0.  0.
<mgrwt>
<rscale>  0 0.11285404E+04</rscale>
<asrwt>0</asrwt>
<pdfrwt beam="1">  1        2 0.27113391E+00 0.11285404E+04</pdfrwt>
<pdfrwt beam="2">  1       -2 0.23965934E-01 0.11285404E+04</pdfrwt>
<totfact> 0.13901312E+02</totfact>
</mgrwt>
</event>
<event>
 4    1  0.5455400E-005  0.4794353E+03  0.7818608E-02  0.1019290E+00
         -2   -1    0    0    0  501 -0.00000000000E+00  0.00000000000E+00  0.54159378228E+02  0.54159378288E+02  0.25500000000E-02 0. -1.
          2   -1    0    0  501    0  0.00000000000E+00 -0.00000000000E+00 -0.10610269286E+04  0.10610269286E+04  0.25500000000E-02 0.  1.
    5000001    1    1    2    0    0 -0.14135637863E+03 -0.23641594597E+02 -0.52145241329E+03  0.57386162975E+03  0.19200000000E+03 0.  0.
   -5000001    1    1    2    0    0  0.14135637863E+03  0.23641594597E+02 -0.48541513713E+03  0.54132467719E+03  0.19200000000E+03 0.  0.
<mgrwt>
<rscale>  0 0.47943533E+03</rscale>
<asrwt>0</asrwt>
<pdfrwt beam="1">  1        2 0.15157526E+00 0.47943533E+03</pdfrwt>
<pdfrwt beam="2">  1       -2 0.77370547E-02 0.47943533E+03</pdfrwt>
<totfact> 0.26806768E+03</totfact>
</mgrwt>
</event>
<event>
 4    1  0.5455400E-005  0.4332160E+03  0.7818608E-02  0.1032849E+00
         -2   -1    0    0    0  501 -0.00000000000E+00  0.00000000000E+00  0.34489164788E+03  0.34489164789E+03  0.25500000000E-02 0. -1.
          2   -1    0    0  501    0  0.00000000000E+00 -0.00000000000E+00 -0.13603990494E+03  0.13603990496E+03  0.25500000000E-02 0.  1.
    5000001    1    1    2    0    0 -0.40139154491E+02  0.91890554311E+02  0.10446596521E+03  0.24048318773E+03  0.19200000000E+03 0.  0.
   -5000001    1    1    2    0    0  0.40139154491E+02 -0.91890554311E+02  0.10438577774E+03  0.24044836512E+03  0.19200000000E+03 0.  0.
<mgrwt>
<rscale>  0 0.43321601E+03</rscale>
<asrwt>0</asrwt>
<pdfrwt beam="1">  1        2 0.19434273E-01 0.43321601E+03</pdfrwt>
<pdfrwt beam="2">  1       -2 0.49270234E-01 0.43321601E+03</pdfrwt>
<totfact> 0.11452252E+03</totfact>
</mgrwt>
</event>
<event>
 4    1  0.5455400E-005  0.6564260E+03  0.7818608E-02  0.9794795E-01
          2   -1    0    0  501    0  0.00000000000E+00  0.00000000000E+00  0.39614403394E+03  0.39614403395E+03  0.25500000000E-02 0.  1.
         -2   -1    0    0    0  501 -0.00000000000E+00 -0.00000000000E+00 -0.27193085251E+03  0.27193085252E+03  0.25500000000E-02 0. -1.
    5000001    1    1    2    0    0  0.19106850232E+03  0.41461599779E+02  0.24595991894E+03  0.36822074705E+03  0.19200000000E+03 0.  0.
   -5000001    1    1    2    0    0 -0.19106850232E+03 -0.41461599779E+02 -0.12174673751E+03  0.29985413942E+03  0.19200000000E+03 0.  0.
<mgrwt>
<rscale>  0 0.65642604E+03</rscale>
<asrwt>0</asrwt>
<pdfrwt beam="1">  1        2 0.56592004E-01 0.65642604E+03</pdfrwt>
<pdfrwt beam="2">  1       -2 0.38847265E-01 0.65642604E+03</pdfrwt>
<totfact> 0.55099085E+02</totfact>
</mgrwt>
</event>
<event>
 4    1  0.5455400E-005  0.6653127E+03  0.7818608E-02  0.9778463E-01
          2   -1    0    0  501    0  0.00000000000E+00  0.00000000000E+00  0.14749464612E+04  0.14749464612E+04  0.25500000000E-02 0.  1.
         -2   -1    0    0    0  501 -0.00000000000E+00 -0.00000000000E+00 -0.75026619476E+02  0.75026619519E+02  0.25500000000E-02 0. -1.
    5000001    1    1    2    0    0 -0.25319753709E+03 -0.68148828290E+02  0.86540065685E+03  0.92441092187E+03  0.19200000000E+03 0.  0.
   -5000001    1    1    2    0    0  0.25319753709E+03  0.68148828290E+02  0.53451918484E+03  0.62556215882E+03  0.19200000000E+03 0.  0.
<mgrwt>
<rscale>  0 0.66531270E+03</rscale>
<asrwt>0</asrwt>
<pdfrwt beam="1">  1        2 0.21070662E+00 0.66531270E+03</pdfrwt>
<pdfrwt beam="2">  1       -2 0.10718089E-01 0.66531270E+03</pdfrwt>
<totfact> 0.93548075E+02</totfact>
</mgrwt>
</event>
<event>
 4    1  0.5455400E-005  0.7477272E+03  0.7818608E-02  0.9638923E-01
         -2   -1    0    0    0  501 -0.00000000000E+00  0.00000000000E+00  0.27897575250E+03  0.27897575251E+03  0.25500000000E-02 0. -1.
          2   -1    0    0  501    0  0.00000000000E+00 -0.00000000000E+00 -0.50102565339E+03  0.50102565340E+03  0.25500000000E-02 0.  1.
    5000001    1    1    2    0    0 -0.31021768501E+03 -0.69676713157E+02 -0.15552966663E+03  0.40267025424E+03  0.19200000000E+03 0.  0.
   -5000001    1    1    2    0    0  0.31021768501E+03  0.69676713157E+02 -0.66520234263E+02  0.37733115167E+03  0.19200000000E+03 0.  0.
<mgrwt>
<rscale>  0 0.74772725E+03</rscale>
<asrwt>0</asrwt>
<pdfrwt beam="1">  1        2 0.71575093E-01 0.74772725E+03</pdfrwt>
<pdfrwt beam="2">  1       -2 0.39853679E-01 0.74772725E+03</pdfrwt>
<totfact> 0.40139426E+02</totfact>
</mgrwt>
</event>
<event>
 4    1  0.5455400E-005  0.5377415E+03  0.7818608E-02  0.1004372E+00
         -2   -1    0    0    0  501 -0.00000000000E+00  0.00000000000E+00  0.30774144795E+02  0.30774144901E+02  0.25500000000E-02 0. -1.
          2   -1    0    0  501    0  0.00000000000E+00 -0.00000000000E+00 -0.23490981847E+04  0.23490981847E+04  0.25500000000E-02 0.  1.
    5000001    1    1    2    0    0  0.10110384639E+03  0.10065996900E+03 -0.61581041978E+03  0.66063673091E+03  0.19200000000E+03 0.  0.
   -5000001    1    1    2    0    0 -0.10110384639E+03 -0.10065996900E+03 -0.17025136201E+04  0.17192355987E+04  0.19200000000E+03 0.  0.
<mgrwt>
<rscale>  0 0.53774153E+03</rscale>
<asrwt>0</asrwt>
<pdfrwt beam="1">  1        2 0.33558534E+00 0.53774153E+03</pdfrwt>
<pdfrwt beam="2">  1       -2 0.43963079E-02 0.53774153E+03</pdfrwt>
<totfact> 0.13887467E+03</totfact>
</mgrwt>
</event>
<event>
 4    1  0.5455400E-005  0.6740148E+03  0.7818608E-02  0.9762732E-01
          2   -1    0    0  501    0  0.00000000000E+00  0.00000000000E+00  0.12496176574E+04  0.12496176574E+04  0.25500000000E-02 0.  1.
         -2   -1    0    0    0  501 -0.00000000000E+00 -0.00000000000E+00 -0.90886977650E+02  0.90886977686E+02  0.25500000000E-02 0. -1.
    5000001    1    1    2    0    0 -0.69199657280E+02 -0.25289734849E+03  0.75685498194E+03  0.82367416199E+03  0.19200000000E+03 0.  0.
   -5000001    1    1    2    0    0  0.69199657280E+02  0.25289734849E+03  0.40187569784E+03  0.51683047313E+03  0.19200000000E+03 0.  0.
<mgrwt>
<rscale>  0 0.67401475E+03</rscale>
<asrwt>0</asrwt>
<pdfrwt beam="1">  1        2 0.17851680E+00 0.67401475E+03</pdfrwt>
<pdfrwt beam="2">  1       -2 0.12983854E-01 0.67401475E+03</pdfrwt>
<totfact> 0.90150006E+02</totfact>
</mgrwt>
</event>
<event>
 4    1  0.5455400E-005  0.5590959E+03  0.7818608E-02  0.9994102E-01
          2   -1    0    0  501    0  0.00000000000E+00  0.00000000000E+00  0.86484570681E+03  0.86484570681E+03  0.25500000000E-02 0.  1.
         -2   -1    0    0    0  501 -0.00000000000E+00 -0.00000000000E+00 -0.90359547276E+02  0.90359547312E+02  0.25500000000E-02 0. -1.
    5000001    1    1    2    0    0 -0.48745432417E+02  0.14662857105E+03  0.16183344506E+03  0.29483914084E+03  0.19200000000E+03 0.  0.
   -5000001    1    1    2    0    0  0.48745432417E+02 -0.14662857105E+03  0.61265271447E+03  0.66036611329E+03  0.19200000000E+03 0.  0.
<mgrwt>
<rscale>  0 0.55909594E+03</rscale>
<asrwt>0</asrwt>
<pdfrwt beam="1">  1        2 0.12354939E+00 0.55909594E+03</pdfrwt>
<pdfrwt beam="2">  1       -2 0.12908507E-01 0.55909594E+03</pdfrwt>
<totfact> 0.15500355E+03</totfact>
</mgrwt>
</event>
<event>
 4    1  0.5455400E-005  0.9390957E+03  0.7818608E-02  0.9377988E-01
          2   -1    0    0  501    0  0.00000000000E+00  0.00000000000E+00  0.15710823714E+04  0.15710823714E+04  0.25500000000E-02 0.  1.
         -2   -1    0    0    0  501 -0.00000000000E+00 -0.00000000000E+00 -0.14033330347E+03  0.14033330350E+03  0.25500000000E-02 0. -1.
    5000001    1    1    2    0    0 -0.11216870673E+03 -0.37156173556E+03  0.10462871149E+04  0.11323518309E+04  0.19200000000E+03 0.  0.
   -5000001    1    1    2    0    0  0.11216870673E+03  0.37156173556E+03  0.38446195298E+03  0.57906384397E+03  0.19200000000E+03 0.  0.
<mgrwt>
<rscale>  0 0.93909569E+03</rscale>
<asrwt>0</asrwt>
<pdfrwt beam="1">  1        2 0.22444033E+00 0.93909569E+03</pdfrwt>
<pdfrwt beam="2">  1       -2 0.20047615E-01 0.93909569E+03</pdfrwt>
<totfact> 0.28507456E+02</totfact>
</mgrwt>
</event>
<event>
 4    1  0.5455400E-005  0.4604521E+03  0.7818608E-02  0.1024650E+00
          2   -1    0    0  501    0  0.00000000000E+00  0.00000000000E+00  0.83376686418E+02  0.83376686457E+02  0.25500000000E-02 0.  1.
         -2   -1    0    0    0  501 -0.00000000000E+00 -0.00000000000E+00 -0.63571765033E+03  0.63571765033E+03  0.25500000000E-02 0. -1.
    5000001    1    1    2    0    0  0.93015323806E+02 -0.85125534569E+02 -0.25188474920E+03  0.34089314158E+03  0.19200000000E+03 0.  0.
   -5000001    1    1    2    0    0 -0.93015323806E+02  0.85125534569E+02 -0.30045621471E+03  0.37820119521E+03  0.19200000000E+03 0.  0.
<mgrwt>
<rscale>  0 0.46045209E+03</rscale>
<asrwt>0</asrwt>
<pdfrwt beam="1">  1        2 0.11910956E-01 0.46045209E+03</pdfrwt>
<pdfrwt beam="2">  1       -2 0.90816804E-01 0.46045209E+03</pdfrwt>
<totfact> 0.55588243E+02</totfact>
</mgrwt>
</event>
<event>
 4    1  0.5455400E-005  0.4915052E+03  0.7818608E-02  0.1016020E+00
         -2   -1    0    0    0  501 -0.00000000000E+00  0.00000000000E+00  0.47471227987E+02  0.47471228055E+02  0.25500000000E-02 0. -1.
          2   -1    0    0  501    0  0.00000000000E+00 -0.00000000000E+00 -0.12722304728E+04  0.12722304728E+04  0.25500000000E-02 0.  1.
    5000001    1    1    2    0    0 -0.48715020365E+02  0.14040842428E+03 -0.71436320302E+03  0.75449749148E+03  0.19200000000E+03 0.  0.
   -5000001    1    1    2    0    0  0.48715020365E+02 -0.14040842428E+03 -0.51039604178E+03  0.56520420936E+03  0.19200000000E+03 0.  0.
<mgrwt>
<rscale>  0 0.49150521E+03</rscale>
<asrwt>0</asrwt>
<pdfrwt beam="1">  1        2 0.18174719E+00 0.49150521E+03</pdfrwt>
<pdfrwt beam="2">  1       -2 0.67816048E-02 0.49150521E+03</pdfrwt>
<totfact> 0.25087005E+03</totfact>
</mgrwt>
</event>
<event>
 4    1  0.5455400E-005  0.4424542E+03  0.7818608E-02  0.1029996E+00
          2   -1    0    0  501    0  0.00000000000E+00  0.00000000000E+00  0.16638474584E+03  0.16638474586E+03  0.25500000000E-02 0.  1.
         -2   -1    0    0    0  501 -0.00000000000E+00 -0.00000000000E+00 -0.29414618463E+03  0.29414618464E+03  0.25500000000E-02 0. -1.
    5000001    1    1    2    0    0 -0.81254263177E+02 -0.72783258195E+02 -0.77758888072E+02  0.23411557537E+03  0.19200000000E+03 0.  0.
   -5000001    1    1    2    0    0  0.81254263177E+02  0.72783258195E+02 -0.50002550722E+02  0.22641535513E+03  0.19200000000E+03 0.  0.
<mgrwt>
<rscale>  0 0.44245424E+03</rscale>
<asrwt>0</asrwt>
<pdfrwt beam="1">  1        2 0.23769250E-01 0.44245424E+03</pdfrwt>
<pdfrwt beam="2">  1       -2 0.42020883E-01 0.44245424E+03</pdfrwt>
<totfact> 0.12441593E+03</totfact>
</mgrwt>
</event>
<event>
 4    1  0.5455400E-005  0.4365275E+03  0.7818608E-02  0.1031818E+00
          2   -1    0    0  501    0  0.00000000000E+00  0.00000000000E+00  0.96544801470E+03  0.96544801470E+03  0.25500000000E-02 0.  1.
         -2   -1    0    0    0  501 -0.00000000000E+00 -0.00000000000E+00 -0.49344004132E+02  0.49344004197E+02  0.25500000000E-02 0. -1.
    5000001    1    1    2    0    0  0.28811273441E+02  0.95254355886E+02  0.38942085255E+03  0.44543920145E+03  0.19200000000E+03 0.  0.
   -5000001    1    1    2    0    0 -0.28811273441E+02 -0.95254355886E+02  0.52668315802E+03  0.56935281744E+03  0.19200000000E+03 0.  0.
<mgrwt>
<rscale>  0 0.43652753E+03</rscale>
<asrwt>0</asrwt>
<pdfrwt beam="1">  1        2 0.13792115E+00 0.43652753E+03</pdfrwt>
<pdfrwt beam="2">  1       -2 0.70491433E-02 0.43652753E+03</pdfrwt>
<totfact> 0.35404663E+03</totfact>
</mgrwt>
</event>
<event>
 4    1  0.5455400E-005  0.5318959E+03  0.7818608E-02  0.1005773E+00
         -2   -1    0    0    0  501 -0.00000000000E+00  0.00000000000E+00  0.61553554084E+02  0.61553554137E+02  0.25500000000E-02 0. -1.
          2   -1    0    0  501    0  0.00000000000E+00 -0.00000000000E+00 -0.11490530514E+04  0.11490530514E+04  0.25500000000E-02 0.  1.
    5000001    1    1    2    0    0 -0.19048941863E+02  0.15318380781E+03 -0.31573644789E+03  0.40047677297E+03  0.19200000000E+03 0.  0.
   -5000001    1    1    2    0    0  0.19048941863E+02 -0.15318380781E+03 -0.77176304946E+03  0.81012983260E+03  0.19200000000E+03 0.  0.
<mgrwt>
<rscale>  0 0.53189585E+03</rscale>
<asrwt>0</asrwt>
<pdfrwt beam="1">  1        2 0.16415042E+00 0.53189585E+03</pdfrwt>
<pdfrwt beam="2">  1       -2 0.87933656E-02 0.53189585E+03</pdfrwt>
<totfact> 0.19448069E+03</totfact>
</mgrwt>
</event>
<event>
 4    1  0.5455400E-005  0.1083996E+04  0.7818608E-02  0.9220932E-01
          2   -1    0    0  501    0  0.00000000000E+00  0.00000000000E+00  0.14844206372E+04  0.14844206372E+04  0.25500000000E-02 0.  1.
         -2   -1    0    0    0  501 -0.00000000000E+00 -0.00000000000E+00 -0.19789678749E+03  0.19789678751E+03  0.25500000000E-02 0. -1.
    5000001    1    1    2    0    0  0.13240092753E+03 -0.41105231465E+03  0.23146893473E+03  0.52624697503E+03  0.19200000000E+03 0.  0.
   -5000001    1    1    2    0    0 -0.13240092753E+03  0.41105231465E+03  0.10550549149E+04  0.11560704496E+04  0.19200000000E+03 0.  0.
<mgrwt>
<rscale>  0 0.10839964E+04</rscale>
<asrwt>0</asrwt>
<pdfrwt beam="1">  1        2 0.21206009E+00 0.10839964E+04</pdfrwt>
<pdfrwt beam="2">  1       -2 0.28270970E-01 0.10839964E+04</pdfrwt>
<totfact> 0.16925367E+02</totfact>
</mgrwt>
</event>
<event>
 4    1  0.5455400E-005  0.7280179E+03  0.7818608E-02  0.9670482E-01
         -2   -1    0    0    0  501 -0.00000000000E+00  0.00000000000E+00  0.15126897281E+04  0.15126897281E+04  0.25500000000E-02 0. -1.
          2   -1    0    0  501    0  0.00000000000E+00 -0.00000000000E+00 -0.87593987433E+02  0.87593987471E+02  0.25500000000E-02 0.  1.
    5000001    1    1    2    0    0  0.51743624988E+02  0.30465262565E+03  0.68581540362E+03  0.77633587633E+03  0.19200000000E+03 0.  0.
   -5000001    1    1    2    0    0 -0.51743624988E+02 -0.30465262565E+03  0.73928033706E+03  0.82394783925E+03  0.19200000000E+03 0.  0.
<mgrwt>
<rscale>  0 0.72801793E+03</rscale>
<asrwt>0</asrwt>
<pdfrwt beam="1">  1        2 0.12513428E-01 0.72801793E+03</pdfrwt>
<pdfrwt beam="2">  1       -2 0.21609851E+00 0.72801793E+03</pdfrwt>
<totfact> 0.53608280E+01</totfact>
</mgrwt>
</event>
<event>
 4    1  0.5455400E-005  0.4996732E+03  0.7818608E-02  0.1013864E+00
         -2   -1    0    0    0  501 -0.00000000000E+00  0.00000000000E+00  0.42003088673E+02  0.42003088750E+02  0.25500000000E-02 0. -1.
          2   -1    0    0  501    0  0.00000000000E+00 -0.00000000000E+00 -0.14860413510E+04  0.14860413510E+04  0.25500000000E-02 0.  1.
    5000001    1    1    2    0    0  0.80077030841E+02 -0.98595025778E+02 -0.42519526632E+03  0.48351662275E+03  0.19200000000E+03 0.  0.
   -5000001    1    1    2    0    0 -0.80077030841E+02  0.98595025778E+02 -0.10188429961E+04  0.10445278171E+04  0.19200000000E+03 0.  0.
<mgrwt>
<rscale>  0 0.49967320E+03</rscale>
<asrwt>0</asrwt>
<pdfrwt beam="1">  1        2 0.21229159E+00 0.49967320E+03</pdfrwt>
<pdfrwt beam="2">  1       -2 0.60004422E-02 0.49967320E+03</pdfrwt>
<totfact> 0.23398368E+03</totfact>
</mgrwt>
</event>
<event>
 4    1  0.5455400E-005  0.4421417E+03  0.7818608E-02  0.1030092E+00
         -2   -1    0    0    0  501 -0.00000000000E+00  0.00000000000E+00  0.37442917435E+02  0.37442917521E+02  0.25500000000E-02 0. -1.
          2   -1    0    0  501    0  0.00000000000E+00 -0.00000000000E+00 -0.13052484760E+04  0.13052484760E+04  0.25500000000E-02 0.  1.
    5000001    1    1    2    0    0 -0.69844561054E+02  0.25219257899E+02 -0.87862429910E+03  0.90241838005E+03  0.19200000000E+03 0.  0.
   -5000001    1    1    2    0    0  0.69844561054E+02 -0.25219257899E+02 -0.38918125947E+03  0.44027301348E+03  0.19200000000E+03 0.  0.
<mgrwt>
<rscale>  0 0.44214166E+03</rscale>
<asrwt>0</asrwt>
<pdfrwt beam="1">  1        2 0.18646404E+00 0.44214166E+03</pdfrwt>
<pdfrwt beam="2">  1       -2 0.53489890E-02 0.44214166E+03</pdfrwt>
<totfact> 0.34846016E+03</totfact>
</mgrwt>
</event>
<event>
 4    1  0.5455400E-005  0.1056666E+04  0.7818608E-02  0.9248489E-01
         -2   -1    0    0    0  501 -0.00000000000E+00  0.00000000000E+00  0.82316894455E+02  0.82316894495E+02  0.25500000000E-02 0. -1.
          2   -1    0    0  501    0  0.00000000000E+00 -0.00000000000E+00 -0.33909885870E+04  0.33909885870E+04  0.25500000000E-02 0.  1.
    5000001    1    1    2    0    0  0.38209807014E+03 -0.72032908556E+02 -0.66230238795E+03  0.79164141390E+03  0.19200000000E+03 0.  0.
   -5000001    1    1    2    0    0 -0.38209807014E+03  0.72032908556E+02 -0.26463693046E+04  0.26816640676E+04  0.19200000000E+03 0.  0.
<mgrwt>
<rscale>  0 0.10566658E+04</rscale>
<asrwt>0</asrwt>
<pdfrwt beam="1">  1        2 0.48442685E+00 0.10566658E+04</pdfrwt>
<pdfrwt beam="2">  1       -2 0.11759559E-01 0.10566658E+04</pdfrwt>
<totfact> 0.75456297E+01</totfact>
</mgrwt>
</event>
<event>
 4    1  0.5455400E-005  0.7164219E+03  0.7818608E-02  0.9689553E-01
         -2   -1    0    0    0  501 -0.00000000000E+00  0.00000000000E+00  0.30574914079E+03  0.30574914080E+03  0.25500000000E-02 0. -1.
          2   -1    0    0  501    0  0.00000000000E+00 -0.00000000000E+00 -0.41967442084E+03  0.41967442084E+03  0.25500000000E-02 0.  1.
    5000001    1    1    2    0    0  0.23220360195E+03 -0.18490057338E+03 -0.11551969427E+03  0.37190796517E+03  0.19200000000E+03 0.  0.
   -5000001    1    1    2    0    0 -0.23220360195E+03  0.18490057338E+03  0.15944142288E+01  0.35351559647E+03  0.19200000000E+03 0.  0.
<mgrwt>
<rscale>  0 0.71642192E+03</rscale>
<asrwt>0</asrwt>
<pdfrwt beam="1">  1        2 0.59953488E-01 0.71642192E+03</pdfrwt>
<pdfrwt beam="2">  1       -2 0.43678449E-01 0.71642192E+03</pdfrwt>
<totfact> 0.41015259E+02</totfact>
</mgrwt>
</event>
<event>
 4    1  0.5455400E-005  0.1140183E+04  0.7818608E-02  0.9166888E-01
         -2   -1    0    0    0  501 -0.00000000000E+00  0.00000000000E+00  0.17188158443E+03  0.17188158445E+03  0.25500000000E-02 0. -1.
          2   -1    0    0  501    0  0.00000000000E+00 -0.00000000000E+00 -0.18908626309E+04  0.18908626309E+04  0.25500000000E-02 0.  1.
    5000001    1    1    2    0    0 -0.35979652719E+03 -0.37313366726E+03 -0.11118513504E+04  0.12416761655E+04  0.19200000000E+03 0.  0.
   -5000001    1    1    2    0    0  0.35979652719E+03  0.37313366726E+03 -0.60712969609E+03  0.82106804986E+03  0.19200000000E+03 0.  0.
<mgrwt>
<rscale>  0 0.11401833E+04</rscale>
<asrwt>0</asrwt>
<pdfrwt beam="1">  1        2 0.27012322E+00 0.11401833E+04</pdfrwt>
<pdfrwt beam="2">  1       -2 0.24554513E-01 0.11401833E+04</pdfrwt>
<totfact> 0.13407016E+02</totfact>
</mgrwt>
</event>
<event>
 4    1  0.5455400E-005  0.9847263E+03  0.7818608E-02  0.9325457E-01
          2   -1    0    0  501    0  0.00000000000E+00  0.00000000000E+00  0.31955538466E+04  0.31955538466E+04  0.25500000000E-02 0.  1.
         -2   -1    0    0    0  501 -0.00000000000E+00 -0.00000000000E+00 -0.75862120515E+02  0.75862120558E+02  0.25500000000E-02 0. -1.
    5000001    1    1    2    0    0  0.29082204140E+03  0.34752711849E+03  0.16074041741E+04  0.16810605988E+04  0.19200000000E+03 0.  0.
   -5000001    1    1    2    0    0 -0.29082204140E+03 -0.34752711849E+03  0.15122875520E+04  0.15903553684E+04  0.19200000000E+03 0.  0.
<mgrwt>
<rscale>  0 0.98472634E+03</rscale>
<asrwt>0</asrwt>
<pdfrwt beam="1">  1        2 0.45650764E+00 0.98472634E+03</pdfrwt>
<pdfrwt beam="2">  1       -2 0.10837447E-01 0.98472634E+03</pdfrwt>
<totfact> 0.11287714E+02</totfact>
</mgrwt>
</event>
<event>
 4    1  0.5455400E-005  0.6153802E+03  0.7818608E-02  0.9874001E-01
         -2   -1    0    0    0  501 -0.00000000000E+00  0.00000000000E+00  0.56145594585E+02  0.56145594643E+02  0.25500000000E-02 0. -1.
          2   -1    0    0  501    0  0.00000000000E+00 -0.00000000000E+00 -0.16862089707E+04  0.16862089707E+04  0.25500000000E-02 0.  1.
    5000001    1    1    2    0    0 -0.21568081257E+03 -0.10199511712E+03 -0.73066001390E+03  0.79224319040E+03  0.19200000000E+03 0.  0.
   -5000001    1    1    2    0    0  0.21568081257E+03  0.10199511712E+03 -0.89940336217E+03  0.95011137490E+03  0.19200000000E+03 0.  0.
<mgrwt>
<rscale>  0 0.61538022E+03</rscale>
<asrwt>0</asrwt>
<pdfrwt beam="1">  1        2 0.24088696E+00 0.61538022E+03</pdfrwt>
<pdfrwt beam="2">  1       -2 0.80208003E-02 0.61538022E+03</pdfrwt>
<totfact> 0.11640178E+03</totfact>
</mgrwt>
</event>
<event>
 4    1  0.5455400E-005  0.5204888E+03  0.7818608E-02  0.1008565E+00
          2   -1    0    0  501    0  0.00000000000E+00  0.00000000000E+00  0.82357583149E+02  0.82357583189E+02  0.25500000000E-02 0.  1.
         -2   -1    0    0    0  501 -0.00000000000E+00 -0.00000000000E+00 -0.82235478726E+03  0.82235478726E+03  0.25500000000E-02 0. -1.
    5000001    1    1    2    0    0 -0.10548517521E+03  0.49384389112E+02 -0.14139283256E+03  0.26537119885E+03  0.19200000000E+03 0.  0.
   -5000001    1    1    2    0    0  0.10548517521E+03 -0.49384389112E+02 -0.59860437155E+03  0.63934117161E+03  0.19200000000E+03 0.  0.
<mgrwt>
<rscale>  0 0.52048882E+03</rscale>
<asrwt>0</asrwt>
<pdfrwt beam="1">  1        2 0.11765370E-01 0.52048882E+03</pdfrwt>
<pdfrwt beam="2">  1       -2 0.11747925E+00 0.52048882E+03</pdfrwt>
<totfact> 0.30674924E+02</totfact>
</mgrwt>
</event>
<event>
 4    1  0.5455400E-005  0.4440202E+03  0.7818608E-02  0.1029520E+00
          2   -1    0    0  501    0  0.00000000000E+00  0.00000000000E+00  0.10519792542E+04  0.10519792542E+04  0.25500000000E-02 0.  1.
         -2   -1    0    0    0  501 -0.00000000000E+00 -0.00000000000E+00 -0.46853092863E+02  0.46853092933E+02  0.25500000000E-02 0. -1.
    5000001    1    1    2    0    0 -0.19070886157E+02  0.10095530454E+03  0.39558095125E+03  0.45155726238E+03  0.19200000000E+03 0.  0.
   -5000001    1    1    2    0    0  0.19070886157E+02 -0.10095530454E+03  0.60954521011E+03  0.64727508479E+03  0.19200000000E+03 0.  0.
<mgrwt>
<rscale>  0 0.44402019E+03</rscale>
<asrwt>0</asrwt>
<pdfrwt beam="1">  1        2 0.15028274E+00 0.44402019E+03</pdfrwt>
<pdfrwt beam="2">  1       -2 0.66932994E-02 0.44402019E+03</pdfrwt>
<totfact> 0.34076668E+03</totfact>
</mgrwt>
</event>
<event>
 4    1  0.5455400E-005  0.1322130E+04  0.7818608E-02  0.9012198E-01
          2   -1    0    0  501    0  0.00000000000E+00  0.00000000000E+00  0.23603104047E+04  0.23603104047E+04  0.25500000000E-02 0.  1.
         -2   -1    0    0    0  501 -0.00000000000E+00 -0.00000000000E+00 -0.18514793983E+03  0.18514793985E+03  0.25500000000E-02 0. -1.
    5000001    1    1    2    0    0 -0.13548268455E+03 -0.61476395980E+03  0.12070772525E+04  0.13748417282E+04  0.19200000000E+03 0.  0.
   -5000001    1    1    2    0    0  0.13548268455E+03  0.61476395980E+03  0.96808521241E+03  0.11706166164E+04  0.19200000000E+03 0.  0.
<mgrwt>
<rscale>  0 0.13221295E+04</rscale>
<asrwt>0</asrwt>
<pdfrwt beam="1">  1        2 0.33718721E+00 0.13221295E+04</pdfrwt>
<pdfrwt beam="2">  1       -2 0.26449705E-01 0.13221295E+04</pdfrwt>
<totfact> 0.66296039E+01</totfact>
</mgrwt>
</event>
<event>
 4    1  0.5455400E-005  0.4539068E+03  0.7818608E-02  0.1026563E+00
          2   -1    0    0  501    0  0.00000000000E+00  0.00000000000E+00  0.41898178460E+03  0.41898178461E+03  0.25500000000E-02 0.  1.
         -2   -1    0    0    0  501 -0.00000000000E+00 -0.00000000000E+00 -0.12293578663E+03  0.12293578665E+03  0.25500000000E-02 0. -1.
    5000001    1    1    2    0    0  0.10235783296E+03 -0.44658672918E+02  0.92377552907E+02  0.24056004514E+03  0.19200000000E+03 0.  0.
   -5000001    1    1    2    0    0 -0.10235783296E+03  0.44658672918E+02  0.20366844506E+03  0.30135752612E+03  0.19200000000E+03 0.  0.
<mgrwt>
<rscale>  0 0.45390684E+03</rscale>
<asrwt>0</asrwt>
<pdfrwt beam="1">  1        2 0.59854541E-01 0.45390684E+03</pdfrwt>
<pdfrwt beam="2">  1       -2 0.17562255E-01 0.45390684E+03</pdfrwt>
<totfact> 0.21781218E+03</totfact>
</mgrwt>
</event>
<event>
 4    1  0.5455400E-005  0.8978642E+03  0.7818608E-02  0.9428255E-01
         -2   -1    0    0    0  501 -0.00000000000E+00  0.00000000000E+00  0.13460909330E+03  0.13460909333E+03  0.25500000000E-02 0. -1.
          2   -1    0    0  501    0  0.00000000000E+00 -0.00000000000E+00 -0.14972245739E+04  0.14972245739E+04  0.25500000000E-02 0.  1.
    5000001    1    1    2    0    0  0.23939174810E+03 -0.32765061936E+03 -0.68778590364E+03  0.82132623644E+03  0.19200000000E+03 0.  0.
   -5000001    1    1    2    0    0 -0.23939174810E+03  0.32765061936E+03 -0.67482957700E+03  0.81050743083E+03  0.19200000000E+03 0.  0.
<mgrwt>
<rscale>  0 0.89786423E+03</rscale>
<asrwt>0</asrwt>
<pdfrwt beam="1">  1        2 0.21388922E+00 0.89786423E+03</pdfrwt>
<pdfrwt beam="2">  1       -2 0.19229871E-01 0.89786423E+03</pdfrwt>
<totfact> 0.33609226E+02</totfact>
</mgrwt>
</event>
<event>
 4    1  0.5455400E-005  0.5345167E+03  0.7818608E-02  0.1005143E+00
          2   -1    0    0  501    0  0.00000000000E+00  0.00000000000E+00  0.13922828245E+04  0.13922828245E+04  0.25500000000E-02 0.  1.
         -2   -1    0    0    0  501 -0.00000000000E+00 -0.00000000000E+00 -0.51302098116E+02  0.51302098180E+02  0.25500000000E-02 0. -1.
    5000001    1    1    2    0    0 -0.17521931261E+03  0.55364283175E+02  0.74668820930E+03  0.79257447175E+03  0.19200000000E+03 0.  0.
   -5000001    1    1    2    0    0  0.17521931261E+03 -0.55364283175E+02  0.59429251713E+03  0.65101045097E+03  0.19200000000E+03 0.  0.
<mgrwt>
<rscale>  0 0.53451672E+03</rscale>
<asrwt>0</asrwt>
<pdfrwt beam="1">  1        2 0.19889752E+00 0.53451672E+03</pdfrwt>
<pdfrwt beam="2">  1       -2 0.73288721E-02 0.53451672E+03</pdfrwt>
<totfact> 0.19127136E+03</totfact>
</mgrwt>
</event>
<event>
 4    1  0.5455400E-005  0.4182309E+03  0.7818608E-02  0.1037644E+00
         -2   -1    0    0    0  501 -0.00000000000E+00  0.00000000000E+00  0.10075356804E+03  0.10075356808E+03  0.25500000000E-02 0. -1.
          2   -1    0    0  501    0  0.00000000000E+00 -0.00000000000E+00 -0.43402209575E+03  0.43402209576E+03  0.25500000000E-02 0.  1.
    5000001    1    1    2    0    0 -0.65004664628E+02 -0.40635961896E+02 -0.12643491647E+03  0.24233587420E+03  0.19200000000E+03 0.  0.
   -5000001    1    1    2    0    0  0.65004664628E+02  0.40635961896E+02 -0.20683361124E+03  0.29243978963E+03  0.19200000000E+03 0.  0.
<mgrwt>
<rscale>  0 0.41823092E+03</rscale>
<asrwt>0</asrwt>
<pdfrwt beam="1">  1        2 0.62003156E-01 0.41823092E+03</pdfrwt>
<pdfrwt beam="2">  1       -2 0.14393367E-01 0.41823092E+03</pdfrwt>
<totfact> 0.29247197E+03</totfact>
</mgrwt>
</event>
<event>
 4    1  0.5455400E-005  0.8640168E+03  0.7818608E-02  0.9471715E-01
          2   -1    0    0  501    0  0.00000000000E+00  0.00000000000E+00  0.43961708646E+03  0.43961708647E+03  0.25500000000E-02 0.  1.
         -2   -1    0    0    0  501 -0.00000000000E+00 -0.00000000000E+00 -0.42453138967E+03  0.42453138967E+03  0.25500000000E-02 0. -1.
    5000001    1    1    2    0    0 -0.16523429976E+03 -0.34379215660E+03  0.72912062537E+02  0.43321540787E+03  0.19200000000E+03 0.  0.
   -5000001    1    1    2    0    0  0.16523429976E+03  0.34379215660E+03 -0.57826365741E+02  0.43093306827E+03  0.19200000000E+03 0.  0.
<mgrwt>
<rscale>  0 0.86401679E+03</rscale>
<asrwt>0</asrwt>
<pdfrwt beam="1">  1        2 0.62802441E-01 0.86401679E+03</pdfrwt>
<pdfrwt beam="2">  1       -2 0.60647341E-01 0.86401679E+03</pdfrwt>
<totfact> 0.19783132E+02</totfact>
</mgrwt>
</event>
<event>
 4    1  0.5455400E-005  0.7888329E+03  0.7818608E-02  0.9576323E-01
          2   -1    0    0  501    0  0.00000000000E+00  0.00000000000E+00  0.73376964812E+03  0.73376964813E+03  0.25500000000E-02 0.  1.
         -2   -1    0    0    0  501 -0.00000000000E+00 -0.00000000000E+00 -0.21200703959E+03  0.21200703961E+03  0.25500000000E-02 0. -1.
    5000001    1    1    2    0    0 -0.30838245783E+03  0.15235653542E+03  0.23726225766E+03  0.45985827500E+03  0.19200000000E+03 0.  0.
   -5000001    1    1    2    0    0  0.30838245783E+03 -0.15235653542E+03  0.28450035088E+03  0.48591841273E+03  0.19200000000E+03 0.  0.
<mgrwt>
<rscale>  0 0.78883289E+03</rscale>
<asrwt>0</asrwt>
<pdfrwt beam="1">  1        2 0.10482424E+00 0.78883289E+03</pdfrwt>
<pdfrwt beam="2">  1       -2 0.30286720E-01 0.78883289E+03</pdfrwt>
<totfact> 0.42874859E+02</totfact>
</mgrwt>
</event>
<event>
 4    1  0.5455400E-005  0.7433248E+03  0.7818608E-02  0.9645881E-01
         -2   -1    0    0    0  501 -0.00000000000E+00  0.00000000000E+00  0.90046338819E+02  0.90046338856E+02  0.25500000000E-02 0. -1.
          2   -1    0    0  501    0  0.00000000000E+00 -0.00000000000E+00 -0.15340204148E+04  0.15340204148E+04  0.25500000000E-02 0.  1.
    5000001    1    1    2    0    0 -0.20439738776E+03 -0.17164036480E+03 -0.11006078673E+04  0.11486689621E+04  0.19200000000E+03 0.  0.
   -5000001    1    1    2    0    0  0.20439738776E+03  0.17164036480E+03 -0.34336620872E+03  0.47539779158E+03  0.19200000000E+03 0.  0.
<mgrwt>
<rscale>  0 0.74332475E+03</rscale>
<asrwt>0</asrwt>
<pdfrwt beam="1">  1        2 0.21914576E+00 0.74332475E+03</pdfrwt>
<pdfrwt beam="2">  1       -2 0.12863764E-01 0.74332475E+03</pdfrwt>
<totfact> 0.64255906E+02</totfact>
</mgrwt>
</event>
<event>
 4    1  0.5455400E-005  0.9665459E+03  0.7818608E-02  0.9346017E-01
          2   -1    0    0  501    0  0.00000000000E+00  0.00000000000E+00  0.35050216013E+04  0.35050216013E+04  0.25500000000E-02 0.  1.
         -2   -1    0    0    0  501 -0.00000000000E+00 -0.00000000000E+00 -0.66633750945E+02  0.66633750993E+02  0.25500000000E-02 0. -1.
    5000001    1    1    2    0    0 -0.87675428895E+02 -0.32096950280E+03  0.28027381280E+04  0.28289421021E+04  0.19200000000E+03 0.  0.
   -5000001    1    1    2    0    0  0.87675428895E+02  0.32096950280E+03  0.63564972229E+03  0.74271325019E+03  0.19200000000E+03 0.  0.
<mgrwt>
<rscale>  0 0.96654588E+03</rscale>
<asrwt>0</asrwt>
<pdfrwt beam="1">  1        2 0.50071739E+00 0.96654588E+03</pdfrwt>
<pdfrwt beam="2">  1       -2 0.95191070E-02 0.96654588E+03</pdfrwt>
<totfact> 0.92182424E+01</totfact>
</mgrwt>
</event>
<event>
 4    1  0.5455400E-005  0.5637360E+03  0.7818608E-02  0.9983637E-01
         -2   -1    0    0    0  501 -0.00000000000E+00  0.00000000000E+00  0.71080036557E+02  0.71080036602E+02  0.25500000000E-02 0.  1.
          2   -1    0    0  501    0  0.00000000000E+00 -0.00000000000E+00 -0.11177479650E+04  0.11177479650E+04  0.25500000000E-02 0. -1.
    5000001    1    1    2    0    0 -0.95380991484E+02 -0.17847342315E+03 -0.60861215745E+03  0.66949462620E+03  0.19200000000E+03 0.  0.
   -5000001    1    1    2    0    0  0.95380991484E+02  0.17847342315E+03 -0.43805577095E+03  0.51933337536E+03  0.19200000000E+03 0.  0.
<mgrwt>
<rscale>  0 0.56373599E+03</rscale>
<asrwt>0</asrwt>
<pdfrwt beam="1">  1        2 0.15967827E+00 0.56373599E+03</pdfrwt>
<pdfrwt beam="2">  1       -2 0.10154292E-01 0.56373599E+03</pdfrwt>
<totfact> 0.16066373E+03</totfact>
</mgrwt>
</event>
<event>
 4    1  0.5455400E-005  0.1641573E+04  0.7818608E-02  0.8795408E-01
         -2   -1    0    0    0  501 -0.00000000000E+00  0.00000000000E+00  0.57495114852E+03  0.57495114853E+03  0.25500000000E-02 0. -1.
          2   -1    0    0  501    0  0.00000000000E+00 -0.00000000000E+00 -0.11717347931E+04  0.11717347931E+04  0.25500000000E-02 0.  1.
    5000001    1    1    2    0    0  0.26527688065E+03  0.52551150836E+03 -0.87167909329E+03  0.10692158858E+04  0.19200000000E+03 0.  0.
   -5000001    1    1    2    0    0 -0.26527688065E+03 -0.52551150836E+03  0.27489544869E+03  0.67747005583E+03  0.19200000000E+03 0.  0.
<mgrwt>
<rscale>  0 0.16415727E+04</rscale>
<asrwt>0</asrwt>
<pdfrwt beam="1">  1        2 0.16739068E+00 0.16415727E+04</pdfrwt>
<pdfrwt beam="2">  1       -2 0.82135879E-01 0.16415727E+04</pdfrwt>
<totfact> 0.27690589E+01</totfact>
</mgrwt>
</event>
<event>
 4    1  0.5455400E-005  0.5193914E+03  0.7818608E-02  0.1008838E+00
          2   -1    0    0  501    0  0.00000000000E+00  0.00000000000E+00  0.17426439650E+03  0.17426439652E+03  0.25500000000E-02 0.  1.
         -2   -1    0    0    0  501 -0.00000000000E+00 -0.00000000000E+00 -0.38700875552E+03  0.38700875553E+03  0.25500000000E-02 0. -1.
    5000001    1    1    2    0    0  0.12853020753E+03  0.10921346707E+02 -0.23395390008E+03  0.32899501125E+03  0.19200000000E+03 0.  0.
   -5000001    1    1    2    0    0 -0.12853020753E+03 -0.10921346707E+02  0.21209541064E+02  0.23227814080E+03  0.19200000000E+03 0.  0.
<mgrwt>
<rscale>  0 0.51939136E+03</rscale>
<asrwt>0</asrwt>
<pdfrwt beam="1">  1        2 0.24894914E-01 0.51939136E+03</pdfrwt>
<pdfrwt beam="2">  1       -2 0.55286965E-01 0.51939136E+03</pdfrwt>
<totfact> 0.68131932E+02</totfact>
</mgrwt>
</event>
<event>
 4    1  0.5455400E-005  0.6873738E+03  0.7818608E-02  0.9739072E-01
          2   -1    0    0  501    0  0.00000000000E+00  0.00000000000E+00  0.32903901463E+03  0.32903901464E+03  0.25500000000E-02 0.  1.
         -2   -1    0    0    0  501 -0.00000000000E+00 -0.00000000000E+00 -0.35898685954E+03  0.35898685955E+03  0.25500000000E-02 0. -1.
    5000001    1    1    2    0    0  0.25237547951E+03  0.10332925277E+03 -0.98036773325E+02  0.34762843103E+03  0.19200000000E+03 0.  0.
   -5000001    1    1    2    0    0 -0.25237547951E+03 -0.10332925277E+03  0.68088928419E+02  0.34039744316E+03  0.19200000000E+03 0.  0.
<mgrwt>
<rscale>  0 0.68737379E+03</rscale>
<asrwt>0</asrwt>
<pdfrwt beam="1">  1        2 0.47005574E-01 0.68737379E+03</pdfrwt>
<pdfrwt beam="2">  1       -2 0.51283837E-01 0.68737379E+03</pdfrwt>
<totfact> 0.38975202E+02</totfact>
</mgrwt>
</event>
<event>
 4    1  0.5455400E-005  0.4575105E+03  0.7818608E-02  0.1025506E+00
          2   -1    0    0  501    0  0.00000000000E+00  0.00000000000E+00  0.10087885913E+04  0.10087885913E+04  0.25500000000E-02 0.  1.
         -2   -1    0    0    0  501 -0.00000000000E+00 -0.00000000000E+00 -0.51873068513E+02  0.51873068576E+02  0.25500000000E-02 0. -1.
    5000001    1    1    2    0    0 -0.12429028289E+03  0.17351373872E+01  0.48709324086E+03  0.53812165020E+03  0.19200000000E+03 0.  0.
   -5000001    1    1    2    0    0  0.12429028289E+03 -0.17351373872E+01  0.46982228197E+03  0.52254000972E+03  0.19200000000E+03 0.  0.
<mgrwt>
<rscale>  0 0.45751048E+03</rscale>
<asrwt>0</asrwt>
<pdfrwt beam="1">  1        2 0.14411265E+00 0.45751048E+03</pdfrwt>
<pdfrwt beam="2">  1       -2 0.74104386E-02 0.45751048E+03</pdfrwt>
<totfact> 0.30814853E+03</totfact>
</mgrwt>
</event>
<event>
 4    1  0.5455400E-005  0.6775890E+03  0.7818608E-02  0.9756345E-01
         -2   -1    0    0    0  501 -0.00000000000E+00  0.00000000000E+00  0.14592377624E+03  0.14592377627E+03  0.25500000000E-02 0. -1.
          2   -1    0    0  501    0  0.00000000000E+00 -0.00000000000E+00 -0.78658678707E+03  0.78658678707E+03  0.25500000000E-02 0.  1.
    5000001    1    1    2    0    0  0.25061249417E+03 -0.84074148569E+00 -0.48950221832E+03  0.58248068708E+03  0.19200000000E+03 0.  0.
   -5000001    1    1    2    0    0 -0.25061249417E+03  0.84074148569E+00 -0.15116079250E+03  0.35002987626E+03  0.19200000000E+03 0.  0.
<mgrwt>
<rscale>  0 0.67758900E+03</rscale>
<asrwt>0</asrwt>
<pdfrwt beam="1">  1        2 0.11236954E+00 0.67758900E+03</pdfrwt>
<pdfrwt beam="2">  1       -2 0.20846254E-01 0.67758900E+03</pdfrwt>
<totfact> 0.77320756E+02</totfact>
</mgrwt>
</event>
<event>
 4    1  0.5455400E-005  0.4685493E+03  0.7818608E-02  0.1022330E+00
          2   -1    0    0  501    0  0.00000000000E+00  0.00000000000E+00  0.22285391814E+04  0.22285391814E+04  0.25500000000E-02 0.  1.
         -2   -1    0    0    0  501 -0.00000000000E+00 -0.00000000000E+00 -0.24628068480E+02  0.24628068612E+02  0.25500000000E-02 0. -1.
    5000001    1    1    2    0    0  0.13137317743E+03 -0.20269995102E+02  0.11920270302E+04  0.12146860604E+04  0.19200000000E+03 0.  0.
   -5000001    1    1    2    0    0 -0.13137317743E+03  0.20269995102E+02  0.10118840827E+04  0.10384811896E+04  0.19200000000E+03 0.  0.
<mgrwt>
<rscale>  0 0.46854932E+03</rscale>
<asrwt>0</asrwt>
<pdfrwt beam="1">  1        2 0.31836281E+00 0.46854932E+03</pdfrwt>
<pdfrwt beam="2">  1       -2 0.35182947E-02 0.46854932E+03</pdfrwt>
<totfact> 0.22533252E+03</totfact>
</mgrwt>
</event>
<event>
 4    1  0.5455400E-005  0.9735601E+03  0.7818608E-02  0.9338029E-01
          2   -1    0    0  501    0  0.00000000000E+00  0.00000000000E+00  0.39844446190E+04  0.39844446190E+04  0.25500000000E-02 0.  1.
         -2   -1    0    0    0  501 -0.00000000000E+00 -0.00000000000E+00 -0.59469978241E+02  0.59469978296E+02  0.25500000000E-02 0. -1.
    5000001    1    1    2    0    0 -0.73293550259E+02 -0.39845155455E+03  0.11748607781E+04  0.12574964945E+04  0.19200000000E+03 0.  0.
   -5000001    1    1    2    0    0  0.73293550259E+02  0.39845155455E+03  0.27501138627E+04  0.27864181028E+04  0.19200000000E+03 0.  0.
<mgrwt>
<rscale>  0 0.97356014E+03</rscale>
<asrwt>0</asrwt>
<pdfrwt beam="1">  1        2 0.56920644E+00 0.97356014E+03</pdfrwt>
<pdfrwt beam="2">  1       -2 0.84957102E-02 0.97356014E+03</pdfrwt>
<totfact> 0.54936871E+01</totfact>
</mgrwt>
</event>
<event>
 4    1  0.5455400E-005  0.6448722E+03  0.7818608E-02  0.9816449E-01
          2   -1    0    0  501    0  0.00000000000E+00  0.00000000000E+00  0.58239232307E+03  0.58239232308E+03  0.25500000000E-02 0.  1.
         -2   -1    0    0    0  501 -0.00000000000E+00 -0.00000000000E+00 -0.17851372822E+03  0.17851372824E+03  0.25500000000E-02 0. -1.
    5000001    1    1    2    0    0 -0.20509143939E+03 -0.75809363612E+02  0.36582461081E+03  0.46744112356E+03  0.19200000000E+03 0.  0.
   -5000001    1    1    2    0    0  0.20509143939E+03  0.75809363612E+02  0.38053984044E+02  0.29346492776E+03  0.19200000000E+03 0.  0.
<mgrwt>
<rscale>  0 0.64487216E+03</rscale>
<asrwt>0</asrwt>
<pdfrwt beam="1">  1        2 0.83198902E-01 0.64487216E+03</pdfrwt>
<pdfrwt beam="2">  1       -2 0.25501961E-01 0.64487216E+03</pdfrwt>
<totfact> 0.77976345E+02</totfact>
</mgrwt>
</event>
<event>
 4    1  0.5455400E-005  0.4634566E+03  0.7818608E-02  0.1023783E+00
         -2   -1    0    0    0  501 -0.00000000000E+00  0.00000000000E+00  0.22893269333E+03  0.22893269335E+03  0.25500000000E-02 0. -1.
          2   -1    0    0  501    0  0.00000000000E+00 -0.00000000000E+00 -0.23455802944E+03  0.23455802945E+03  0.25500000000E-02 0.  1.
    5000001    1    1    2    0    0  0.12842820839E+03 -0.18341570316E+02 -0.86739870387E+00  0.23172175188E+03  0.19200000000E+03 0.  0.
   -5000001    1    1    2    0    0 -0.12842820839E+03  0.18341570316E+02 -0.47579373971E+01  0.23176897092E+03  0.19200000000E+03 0.  0.
<mgrwt>
<rscale>  0 0.46345658E+03</rscale>
<asrwt>0</asrwt>
<pdfrwt beam="1">  1        2 0.33508290E-01 0.46345658E+03</pdfrwt>
<pdfrwt beam="2">  1       -2 0.32704671E-01 0.46345658E+03</pdfrwt>
<totfact> 0.13645495E+03</totfact>
</mgrwt>
</event>
<event>
 4    1  0.5455400E-005  0.4824723E+03  0.7818608E-02  0.1018458E+00
          2   -1    0    0  501    0  0.00000000000E+00  0.00000000000E+00  0.14442993728E+04  0.14442993728E+04  0.25500000000E-02 0.  1.
         -2   -1    0    0    0  501 -0.00000000000E+00 -0.00000000000E+00 -0.40292809378E+02  0.40292809459E+02  0.25500000000E-02 0. -1.
    5000001    1    1    2    0    0  0.11736571073E+03  0.82523553881E+02  0.78604861909E+03  0.82177933691E+03  0.19200000000E+03 0.  0.
   -5000001    1    1    2    0    0 -0.11736571073E+03 -0.82523553881E+02  0.61795794434E+03  0.66281284536E+03  0.19200000000E+03 0.  0.
<mgrwt>
<rscale>  0 0.48247230E+03</rscale>
<asrwt>0</asrwt>
<pdfrwt beam="1">  1        2 0.20632844E+00 0.48247230E+03</pdfrwt>
<pdfrwt beam="2">  1       -2 0.57561169E-02 0.48247230E+03</pdfrwt>
<totfact> 0.26250653E+03</totfact>
</mgrwt>
</event>
<event>
 4    1  0.5455400E-005  0.5918307E+03  0.7818608E-02  0.9922501E-01
          2   -1    0    0  501    0  0.00000000000E+00  0.00000000000E+00  0.36960764278E+03  0.36960764279E+03  0.25500000000E-02 0.  1.
         -2   -1    0    0    0  501 -0.00000000000E+00 -0.00000000000E+00 -0.23691583750E+03  0.23691583751E+03  0.25500000000E-02 0. -1.
    5000001    1    1    2    0    0  0.63406774714E+02  0.20741563892E+03  0.12834776872E+03  0.31682616067E+03  0.19200000000E+03 0.  0.
   -5000001    1    1    2    0    0 -0.63406774714E+02 -0.20741563892E+03  0.43440365534E+01  0.28969731963E+03  0.19200000000E+03 0.  0.
<mgrwt>
<rscale>  0 0.59183073E+03</rscale>
<asrwt>0</asrwt>
<pdfrwt beam="1">  1        2 0.52801092E-01 0.59183073E+03</pdfrwt>
<pdfrwt beam="2">  1       -2 0.33845120E-01 0.59183073E+03</pdfrwt>
<totfact> 0.77503971E+02</totfact>
</mgrwt>
</event>
<event>
 4    1  0.5455400E-005  0.1118941E+04  0.7818608E-02  0.9186925E-01
         -2   -1    0    0    0  501 -0.00000000000E+00  0.00000000000E+00  0.45580406636E+03  0.45580406636E+03  0.25500000000E-02 0. -1.
          2   -1    0    0  501    0  0.00000000000E+00 -0.00000000000E+00 -0.68671440789E+03  0.68671440790E+03  0.25500000000E-02 0.  1.
    5000001    1    1    2    0    0  0.39718884175E+03  0.96915171625E+02 -0.45255051757E+03  0.63938837763E+03  0.19200000000E+03 0.  0.
   -5000001    1    1    2    0    0 -0.39718884175E+03 -0.96915171625E+02  0.22164017604E+03  0.50313009663E+03  0.19200000000E+03 0.  0.
<mgrwt>
<rscale>  0 0.11189410E+04</rscale>
<asrwt>0</asrwt>
<pdfrwt beam="1">  1        2 0.98102058E-01 0.11189410E+04</pdfrwt>
<pdfrwt beam="2">  1       -2 0.65114867E-01 0.11189410E+04</pdfrwt>
<totfact> 0.99494231E+01</totfact>
</mgrwt>
</event>
<event>
 4    1  0.5455400E-005  0.1237290E+04  0.7818608E-02  0.9080828E-01
         -2   -1    0    0    0  501 -0.00000000000E+00  0.00000000000E+00  0.41804373694E+03  0.41804373695E+03  0.25500000000E-02 0. -1.
          2   -1    0    0  501    0  0.00000000000E+00 -0.00000000000E+00 -0.91550639107E+03  0.91550639107E+03  0.25500000000E-02 0.  1.
    5000001    1    1    2    0    0 -0.28851761342E+03  0.43512458070E+03  0.43035663723E+02  0.55793537469E+03  0.19200000000E+03 0.  0.
   -5000001    1    1    2    0    0  0.28851761342E+03 -0.43512458070E+03 -0.54049831786E+03  0.77561475333E+03  0.19200000000E+03 0.  0.
<mgrwt>
<rscale>  0 0.12372901E+04</rscale>
<asrwt>0</asrwt>
<pdfrwt beam="1">  1        2 0.13078663E+00 0.12372901E+04</pdfrwt>
<pdfrwt beam="2">  1       -2 0.59720534E-01 0.12372901E+04</pdfrwt>
<totfact> 0.81861885E+01</totfact>
</mgrwt>
</event>
<event>
 4    1  0.5455400E-005  0.4616405E+03  0.7818608E-02  0.1024307E+00
         -2   -1    0    0    0  501 -0.00000000000E+00  0.00000000000E+00  0.42075636071E+03  0.42075636072E+03  0.25500000000E-02 0. -1.
          2   -1    0    0  501    0  0.00000000000E+00 -0.00000000000E+00 -0.12662431710E+03  0.12662431713E+03  0.25500000000E-02 0.  1.
    5000001    1    1    2    0    0 -0.27166027067E+02  0.68027402294E+02  0.27169890223E+03  0.34066114243E+03  0.19200000000E+03 0.  0.
   -5000001    1    1    2    0    0  0.27166027067E+02 -0.68027402294E+02  0.22433141380E+02  0.20671953541E+03  0.19200000000E+03 0.  0.
<mgrwt>
<rscale>  0 0.46164050E+03</rscale>
<asrwt>0</asrwt>
<pdfrwt beam="1">  1        2 0.18089188E-01 0.46164050E+03</pdfrwt>
<pdfrwt beam="2">  1       -2 0.60108052E-01 0.46164050E+03</pdfrwt>
<totfact> 0.82882818E+02</totfact>
</mgrwt>
</event>
<event>
 4    1  0.5455400E-005  0.5361352E+03  0.7818608E-02  0.1004755E+00
         -2   -1    0    0    0  501 -0.00000000000E+00  0.00000000000E+00  0.29635772542E+02  0.29635772652E+02  0.25500000000E-02 0. -1.
          2   -1    0    0  501    0  0.00000000000E+00 -0.00000000000E+00 -0.24247803560E+04  0.24247803560E+04  0.25500000000E-02 0.  1.
    5000001    1    1    2    0    0 -0.68723922991E+02 -0.14178213252E+03 -0.16592698615E+04  0.16777561277E+04  0.19200000000E+03 0.  0.
   -5000001    1    1    2    0    0  0.68723922991E+02  0.14178213252E+03 -0.73587472196E+03  0.77666000098E+03  0.19200000000E+03 0.  0.
<mgrwt>
<rscale>  0 0.53613520E+03</rscale>
<asrwt>0</asrwt>
<pdfrwt beam="1">  1        2 0.34639707E+00 0.53613520E+03</pdfrwt>
<pdfrwt beam="2">  1       -2 0.42336833E-02 0.53613520E+03</pdfrwt>
<totfact> 0.13473260E+03</totfact>
</mgrwt>
</event>
<event>
 4    1  0.5455400E-005  0.5820437E+03  0.7818608E-02  0.9943376E-01
         -2   -1    0    0    0  501 -0.00000000000E+00  0.00000000000E+00  0.29637416007E+03  0.29637416009E+03  0.25500000000E-02 0. -1.
          2   -1    0    0  501    0  0.00000000000E+00 -0.00000000000E+00 -0.28576615485E+03  0.28576615486E+03  0.25500000000E-02 0.  1.
    5000001    1    1    2    0    0  0.15312604082E+03 -0.15512280855E+03  0.23168492289E+02  0.29139569171E+03  0.19200000000E+03 0.  0.
   -5000001    1    1    2    0    0 -0.15312604082E+03  0.15512280855E+03 -0.12560487065E+02  0.29074462324E+03  0.19200000000E+03 0.  0.
<mgrwt>
<rscale>  0 0.58204366E+03</rscale>
<asrwt>0</asrwt>
<pdfrwt beam="1">  1        2 0.40823736E-01 0.58204366E+03</pdfrwt>
<pdfrwt beam="2">  1       -2 0.42339166E-01 0.58204366E+03</pdfrwt>
<totfact> 0.66966228E+02</totfact>
</mgrwt>
</event>
<event>
 4    1  0.5455400E-005  0.1248167E+04  0.7818608E-02  0.9071711E-01
          2   -1    0    0  501    0  0.00000000000E+00  0.00000000000E+00  0.35634210326E+03  0.35634210327E+03  0.25500000000E-02 0.  1.
         -2   -1    0    0    0  501 -0.00000000000E+00 -0.00000000000E+00 -0.10929944560E+04  0.10929944560E+04  0.25500000000E-02 0. -1.
    5000001    1    1    2    0    0  0.32143741570E+03  0.49818331895E+03 -0.32968666087E+03  0.70502902483E+03  0.19200000000E+03 0.  0.
   -5000001    1    1    2    0    0 -0.32143741570E+03 -0.49818331895E+03 -0.40696569191E+03  0.74430753448E+03  0.19200000000E+03 0.  0.
<mgrwt>
<rscale>  0 0.12481666E+04</rscale>
<asrwt>0</asrwt>
<pdfrwt beam="1">  1        2 0.50906015E-01 0.12481666E+04</pdfrwt>
<pdfrwt beam="2">  1       -2 0.15614206E+00 0.12481666E+04</pdfrwt>
<totfact> 0.26062466E+01</totfact>
</mgrwt>
</event>
<event>
 4    1  0.5455400E-005  0.9375487E+03  0.7818608E-02  0.9379824E-01
         -2   -1    0    0    0  501 -0.00000000000E+00  0.00000000000E+00  0.17313534333E+03  0.17313534335E+03  0.25500000000E-02 0. -1.
          2   -1    0    0  501    0  0.00000000000E+00 -0.00000000000E+00 -0.12692346561E+04  0.12692346561E+04  0.25500000000E-02 0.  1.
    5000001    1    1    2    0    0  0.39782480968E+03 -0.14300578140E+03 -0.44870181168E+03  0.64568765554E+03  0.19200000000E+03 0.  0.
   -5000001    1    1    2    0    0 -0.39782480968E+03  0.14300578140E+03 -0.64739750113E+03  0.79668234396E+03  0.19200000000E+03 0.  0.
<mgrwt>
<rscale>  0 0.93754867E+03</rscale>
<asrwt>0</asrwt>
<pdfrwt beam="1">  1        2 0.18131923E+00 0.93754867E+03</pdfrwt>
<pdfrwt beam="2">  1       -2 0.24733621E-01 0.93754867E+03</pdfrwt>
<totfact> 0.28506443E+02</totfact>
</mgrwt>
</event>
<event>
 4    1  0.5455400E-005  0.4667955E+03  0.7818608E-02  0.1022829E+00
         -2   -1    0    0    0  501 -0.00000000000E+00  0.00000000000E+00  0.25463375395E+02  0.25463375523E+02  0.25500000000E-02 0. -1.
          2   -1    0    0  501    0  0.00000000000E+00 -0.00000000000E+00 -0.21393280865E+04  0.21393280865E+04  0.25500000000E-02 0.  1.
    5000001    1    1    2    0    0  0.60407849686E+02  0.92480105758E+02 -0.13980006077E+04  0.14154403475E+04  0.19200000000E+03 0.  0.
   -5000001    1    1    2    0    0 -0.60407849686E+02 -0.92480105758E+02 -0.71586410347E+03  0.74935111456E+03  0.19200000000E+03 0.  0.
<mgrwt>
<rscale>  0 0.46679552E+03</rscale>
<asrwt>0</asrwt>
<pdfrwt beam="1">  1        2 0.30561819E+00 0.46679552E+03</pdfrwt>
<pdfrwt beam="2">  1       -2 0.36376264E-02 0.46679552E+03</pdfrwt>
<totfact> 0.23733664E+03</totfact>
</mgrwt>
</event>
<event>
 4    1  0.5455400E-005  0.5666503E+03  0.7818608E-02  0.9977119E-01
         -2   -1    0    0    0  501 -0.00000000000E+00  0.00000000000E+00  0.82294876147E+02  0.82294876187E+02  0.25500000000E-02 0. -1.
          2   -1    0    0  501    0  0.00000000000E+00 -0.00000000000E+00 -0.97543303981E+03  0.97543303981E+03  0.25500000000E-02 0.  1.
    5000001    1    1    2    0    0  0.13194494905E+03 -0.16123395518E+03 -0.44318674402E+03  0.52600793526E+03  0.19200000000E+03 0.  0.
   -5000001    1    1    2    0    0 -0.13194494905E+03  0.16123395518E+03 -0.44995141964E+03  0.53171998074E+03  0.19200000000E+03 0.  0.
<mgrwt>
<rscale>  0 0.56665030E+03</rscale>
<asrwt>0</asrwt>
<pdfrwt beam="1">  1        2 0.13934757E+00 0.56665030E+03</pdfrwt>
<pdfrwt beam="2">  1       -2 0.11756411E-01 0.56665030E+03</pdfrwt>
<totfact> 0.15374970E+03</totfact>
</mgrwt>
</event>
<event>
 4    1  0.5455400E-005  0.8405685E+03  0.7818608E-02  0.9503084E-01
          2   -1    0    0  501    0  0.00000000000E+00  0.00000000000E+00  0.21963835257E+04  0.21963835257E+04  0.25500000000E-02 0.  1.
         -2   -1    0    0    0  501 -0.00000000000E+00 -0.00000000000E+00 -0.80422586940E+02  0.80422586980E+02  0.25500000000E-02 0. -1.
    5000001    1    1    2    0    0 -0.24402381689E+03 -0.11047588887E+03  0.35153507106E+03  0.48186455713E+03  0.19200000000E+03 0.  0.
   -5000001    1    1    2    0    0  0.24402381689E+03  0.11047588887E+03  0.17644258677E+04  0.17949415555E+04  0.19200000000E+03 0.  0.
<mgrwt>
<rscale>  0 0.84056849E+03</rscale>
<asrwt>0</asrwt>
<pdfrwt beam="1">  1        2 0.31376906E+00 0.84056849E+03</pdfrwt>
<pdfrwt beam="2">  1       -2 0.11488941E-01 0.84056849E+03</pdfrwt>
<totfact> 0.35351318E+02</totfact>
</mgrwt>
</event>
<event>
 4    1  0.5455400E-005  0.5062663E+03  0.7818608E-02  0.1012156E+00
          2   -1    0    0  501    0  0.00000000000E+00  0.00000000000E+00  0.18028837822E+04  0.18028837822E+04  0.25500000000E-02 0.  1.
         -2   -1    0    0    0  501 -0.00000000000E+00 -0.00000000000E+00 -0.35541056588E+02  0.35541056680E+02  0.25500000000E-02 0. -1.
    5000001    1    1    2    0    0 -0.63757181641E+02  0.13367632149E+03  0.61985367644E+03  0.66559516024E+03  0.19200000000E+03 0.  0.
   -5000001    1    1    2    0    0  0.63757181641E+02 -0.13367632149E+03  0.11474890492E+04  0.11728296786E+04  0.19200000000E+03 0.  0.
<mgrwt>
<rscale>  0 0.50626631E+03</rscale>
<asrwt>0</asrwt>
<pdfrwt beam="1">  1        2 0.25755484E+00 0.50626631E+03</pdfrwt>
<pdfrwt beam="2">  1       -2 0.50772935E-02 0.50626631E+03</pdfrwt>
<totfact> 0.20919047E+03</totfact>
</mgrwt>
</event>
<event>
 4    1  0.5455400E-005  0.4489154E+03  0.7818608E-02  0.1028046E+00
         -2   -1    0    0    0  501 -0.00000000000E+00  0.00000000000E+00  0.55514696450E+02  0.55514696509E+02  0.25500000000E-02 0. -1.
          2   -1    0    0  501    0  0.00000000000E+00 -0.00000000000E+00 -0.90753022463E+03  0.90753022463E+03  0.25500000000E-02 0.  1.
    5000001    1    1    2    0    0  0.10936761378E+03  0.10435448776E+01 -0.51060056262E+03  0.55636256028E+03  0.19200000000E+03 0.  0.
   -5000001    1    1    2    0    0 -0.10936761378E+03 -0.10435448776E+01 -0.34141496556E+03  0.40668236087E+03  0.19200000000E+03 0.  0.
<mgrwt>
<rscale>  0 0.44891543E+03</rscale>
<asrwt>0</asrwt>
<pdfrwt beam="1">  1        2 0.12964717E+00 0.44891543E+03</pdfrwt>
<pdfrwt beam="2">  1       -2 0.79306715E-02 0.44891543E+03</pdfrwt>
<totfact> 0.31965174E+03</totfact>
</mgrwt>
</event>
<event>
 4    1  0.5455400E-005  0.5782470E+03  0.7818608E-02  0.9951593E-01
          2   -1    0    0  501    0  0.00000000000E+00  0.00000000000E+00  0.43307704478E+03  0.43307704479E+03  0.25500000000E-02 0.  1.
         -2   -1    0    0    0  501 -0.00000000000E+00 -0.00000000000E+00 -0.19301971102E+03  0.19301971104E+03  0.25500000000E-02 0. -1.
    5000001    1    1    2    0    0  0.19356427339E+03  0.16836223473E+02  0.17436669742E+02  0.27371266651E+03  0.19200000000E+03 0.  0.
   -5000001    1    1    2    0    0 -0.19356427339E+03 -0.16836223473E+02  0.22262066402E+03  0.35238408932E+03  0.19200000000E+03 0.  0.
<mgrwt>
<rscale>  0 0.57824703E+03</rscale>
<asrwt>0</asrwt>
<pdfrwt beam="1">  1        2 0.61868148E-01 0.57824703E+03</pdfrwt>
<pdfrwt beam="2">  1       -2 0.27574245E-01 0.57824703E+03</pdfrwt>
<totfact> 0.94997099E+02</totfact>
</mgrwt>
</event>
<event>
 4    1  0.5455400E-005  0.5323235E+03  0.7818608E-02  0.1005670E+00
         -2   -1    0    0    0  501 -0.00000000000E+00  0.00000000000E+00  0.14086291315E+03  0.14086291317E+03  0.25500000000E-02 0. -1.
          2   -1    0    0  501    0  0.00000000000E+00 -0.00000000000E+00 -0.50291511056E+03  0.50291511057E+03  0.25500000000E-02 0.  1.
    5000001    1    1    2    0    0  0.73039298126E+02 -0.15072872322E+03 -0.27411016564E+03  0.37423825296E+03  0.19200000000E+03 0.  0.
   -5000001    1    1    2    0    0 -0.73039298126E+02  0.15072872322E+03 -0.87942031776E+02  0.26953977077E+03  0.19200000000E+03 0.  0.
<mgrwt>
<rscale>  0 0.53232354E+03</rscale>
<asrwt>0</asrwt>
<pdfrwt beam="1">  1        2 0.71845015E-01 0.53232354E+03</pdfrwt>
<pdfrwt beam="2">  1       -2 0.20123273E-01 0.53232354E+03</pdfrwt>
<totfact> 0.14061039E+03</totfact>
</mgrwt>
</event>
<event>
 4    1  0.5455400E-005  0.6599383E+03  0.7818608E-02  0.9788307E-01
         -2   -1    0    0    0  501 -0.00000000000E+00  0.00000000000E+00  0.71009927395E+02  0.71009927441E+02  0.25500000000E-02 0. -1.
          2   -1    0    0  501    0  0.00000000000E+00 -0.00000000000E+00 -0.15333015084E+04  0.15333015084E+04  0.25500000000E-02 0.  1.
    5000001    1    1    2    0    0  0.15714442885E+03 -0.20965764422E+03 -0.87216340193E+03  0.93068990484E+03  0.19200000000E+03 0.  0.
   -5000001    1    1    2    0    0 -0.15714442885E+03  0.20965764422E+03 -0.59012817911E+03  0.67362153104E+03  0.19200000000E+03 0.  0.
<mgrwt>
<rscale>  0 0.65993827E+03</rscale>
<asrwt>0</asrwt>
<pdfrwt beam="1">  1        2 0.21904305E+00 0.65993827E+03</pdfrwt>
<pdfrwt beam="2">  1       -2 0.10144276E-01 0.65993827E+03</pdfrwt>
<totfact> 0.95405125E+02</totfact>
</mgrwt>
</event>
<event>
 4    1  0.5455400E-005  0.5271827E+03  0.7818608E-02  0.1006918E+00
         -2   -1    0    0    0  501 -0.00000000000E+00  0.00000000000E+00  0.54025760531E+02  0.54025760591E+02  0.25500000000E-02 0. -1.
          2   -1    0    0  501    0  0.00000000000E+00 -0.00000000000E+00 -0.12860605995E+04  0.12860605995E+04  0.25500000000E-02 0.  1.
    5000001    1    1    2    0    0  0.21446216252E+01 -0.16703308113E+03 -0.44153050570E+03  0.50962519272E+03  0.19200000000E+03 0.  0.
   -5000001    1    1    2    0    0 -0.21446216252E+01  0.16703308113E+03 -0.79050433327E+03  0.83046116737E+03  0.19200000000E+03 0.  0.
<mgrwt>
<rscale>  0 0.52718271E+03</rscale>
<asrwt>0</asrwt>
<pdfrwt beam="1">  1        2 0.18372292E+00 0.52718271E+03</pdfrwt>
<pdfrwt beam="2">  1       -2 0.77179666E-02 0.52718271E+03</pdfrwt>
<totfact> 0.20095621E+03</totfact>
</mgrwt>
</event>
<event>
 4    1  0.5455400E-005  0.7030475E+03  0.7818608E-02  0.9712035E-01
         -2   -1    0    0    0  501 -0.00000000000E+00  0.00000000000E+00  0.49927586472E+02  0.49927586537E+02  0.25500000000E-02 0. -1.
          2   -1    0    0  501    0  0.00000000000E+00 -0.00000000000E+00 -0.24749633922E+04  0.24749633922E+04  0.25500000000E-02 0.  1.
    5000001    1    1    2    0    0  0.14954607732E+03  0.23313846669E+03 -0.85360949155E+03  0.91773129943E+03  0.19200000000E+03 0.  0.
   -5000001    1    1    2    0    0 -0.14954607732E+03 -0.23313846669E+03 -0.15714263142E+04  0.16071596793E+04  0.19200000000E+03 0.  0.
<mgrwt>
<rscale>  0 0.70304751E+03</rscale>
<asrwt>0</asrwt>
<pdfrwt beam="1">  1        2 0.35356612E+00 0.70304751E+03</pdfrwt>
<pdfrwt beam="2">  1       -2 0.71325139E-02 0.70304751E+03</pdfrwt>
<totfact> 0.55604424E+02</totfact>
</mgrwt>
</event>
<event>
 4    1  0.5455400E-005  0.4614928E+03  0.7818608E-02  0.1024349E+00
          2   -1    0    0  501    0  0.00000000000E+00  0.00000000000E+00  0.16870661989E+04  0.16870661989E+04  0.25500000000E-02 0.  1.
         -2   -1    0    0    0  501 -0.00000000000E+00 -0.00000000000E+00 -0.31560048321E+02  0.31560048424E+02  0.25500000000E-02 0. -1.
    5000001    1    1    2    0    0 -0.11416557771E+03  0.50726757463E+02  0.93128645603E+03  0.95904402727E+03  0.19200000000E+03 0.  0.
   -5000001    1    1    2    0    0  0.11416557771E+03 -0.50726757463E+02  0.72421969459E+03  0.75958222010E+03  0.19200000000E+03 0.  0.
<mgrwt>
<rscale>  0 0.46149276E+03</rscale>
<asrwt>0</asrwt>
<pdfrwt beam="1">  1        2 0.24100958E+00 0.46149276E+03</pdfrwt>
<pdfrwt beam="2">  1       -2 0.45085760E-02 0.46149276E+03</pdfrwt>
<totfact> 0.28759935E+03</totfact>
</mgrwt>
</event>
<event>
 4    1  0.5455400E-005  0.4110749E+03  0.7818608E-02  0.1040011E+00
          2   -1    0    0  501    0  0.00000000000E+00  0.00000000000E+00  0.32863532193E+04  0.32863532193E+04  0.25500000000E-02 0.  1.
         -2   -1    0    0    0  501 -0.00000000000E+00 -0.00000000000E+00 -0.12854866973E+02  0.12854867226E+02  0.25500000000E-02 0. -1.
    5000001    1    1    2    0    0  0.38657333939E+02 -0.50132133265E+02  0.13392509938E+04  0.13544241746E+04  0.19200000000E+03 0.  0.
   -5000001    1    1    2    0    0 -0.38657333939E+02  0.50132133265E+02  0.19342473585E+04  0.19447839120E+04  0.19200000000E+03 0.  0.
<mgrwt>
<rscale>  0 0.41107485E+03</rscale>
<asrwt>0</asrwt>
<pdfrwt beam="1">  1        2 0.46947918E+00 0.41107485E+03</pdfrwt>
<pdfrwt beam="2">  1       -2 0.18364090E-02 0.41107485E+03</pdfrwt>
<totfact> 0.16728225E+03</totfact>
</mgrwt>
</event>
<event>
 4    1  0.5455400E-005  0.7015910E+03  0.7818608E-02  0.9714515E-01
          2   -1    0    0  501    0  0.00000000000E+00  0.00000000000E+00  0.73655236496E+03  0.73655236496E+03  0.25500000000E-02 0.  1.
         -2   -1    0    0    0  501 -0.00000000000E+00 -0.00000000000E+00 -0.16707229862E+03  0.16707229864E+03  0.25500000000E-02 0. -1.
    5000001    1    1    2    0    0 -0.22899755186E+03  0.18104412412E+03  0.24448946899E+03  0.42644572232E+03  0.19200000000E+03 0.  0.
   -5000001    1    1    2    0    0  0.22899755186E+03 -0.18104412412E+03  0.32499059735E+03  0.47717894128E+03  0.19200000000E+03 0.  0.
<mgrwt>
<rscale>  0 0.70159104E+03</rscale>
<asrwt>0</asrwt>
<pdfrwt beam="1">  1        2 0.10522177E+00 0.70159104E+03</pdfrwt>
<pdfrwt beam="2">  1       -2 0.23867471E-01 0.70159104E+03</pdfrwt>
<totfact> 0.66054318E+02</totfact>
</mgrwt>
</event>
<event>
 4    1  0.5455400E-005  0.6010467E+03  0.7818608E-02  0.9903237E-01
         -2   -1    0    0    0  501 -0.00000000000E+00  0.00000000000E+00  0.55944572573E+02  0.55944572631E+02  0.25500000000E-02 0. -1.
          2   -1    0    0  501    0  0.00000000000E+00 -0.00000000000E+00 -0.16143528939E+04  0.16143528939E+04  0.25500000000E-02 0.  1.
    5000001    1    1    2    0    0 -0.22602313839E+03 -0.18102756669E+02 -0.65380730940E+03  0.71815191061E+03  0.19200000000E+03 0.  0.
   -5000001    1    1    2    0    0  0.22602313839E+03  0.18102756669E+02 -0.90460101196E+03  0.95214555596E+03  0.19200000000E+03 0.  0.
<mgrwt>
<rscale>  0 0.60104670E+03</rscale>
<asrwt>0</asrwt>
<pdfrwt beam="1">  1        2 0.23062181E+00 0.60104670E+03</pdfrwt>
<pdfrwt beam="2">  1       -2 0.79920828E-02 0.60104670E+03</pdfrwt>
<totfact> 0.12748140E+03</totfact>
</mgrwt>
</event>
<event>
 4    1  0.5455400E-005  0.7428472E+03  0.7818608E-02  0.9646639E-01
         -2   -1    0    0    0  501 -0.00000000000E+00  0.00000000000E+00  0.56867879388E+02  0.56867879445E+02  0.25500000000E-02 0.  1.
          2   -1    0    0  501    0  0.00000000000E+00 -0.00000000000E+00 -0.24258950489E+04  0.24258950489E+04  0.25500000000E-02 0. -1.
    5000001    1    1    2    0    0 -0.26273150966E+03 -0.36866981087E+02 -0.59886559645E+03  0.68256210199E+03  0.19200000000E+03 0.  0.
   -5000001    1    1    2    0    0  0.26273150966E+03  0.36866981087E+02 -0.17701615731E+04  0.18002008264E+04  0.19200000000E+03 0.  0.
<mgrwt>
<rscale>  0 0.74284724E+03</rscale>
<asrwt>0</asrwt>
<pdfrwt beam="1">  1        2 0.34655637E+00 0.74284724E+03</pdfrwt>
<pdfrwt beam="2">  1       -2 0.81239843E-02 0.74284724E+03</pdfrwt>
<totfact> 0.47739062E+02</totfact>
</mgrwt>
</event>
<event>
 4    1  0.5455400E-005  0.7350584E+03  0.7818608E-02  0.9659087E-01
         -2   -1    0    0    0  501 -0.00000000000E+00  0.00000000000E+00  0.12613853234E+03  0.12613853237E+03  0.25500000000E-02 0.  1.
          2   -1    0    0  501    0  0.00000000000E+00 -0.00000000000E+00 -0.10708678871E+04  0.10708678871E+04  0.25500000000E-02 0. -1.
    5000001    1    1    2    0    0 -0.14407137708E+03  0.26124825233E+03 -0.31611405594E+03  0.47518344605E+03  0.19200000000E+03 0.  0.
   -5000001    1    1    2    0    0  0.14407137708E+03 -0.26124825233E+03 -0.62861529883E+03  0.72182297342E+03  0.19200000000E+03 0.  0.
<mgrwt>
<rscale>  0 0.73505837E+03</rscale>
<asrwt>0</asrwt>
<pdfrwt beam="1">  1        2 0.15298112E+00 0.73505837E+03</pdfrwt>
<pdfrwt beam="2">  1       -2 0.18019791E-01 0.73505837E+03</pdfrwt>
<totfact> 0.65360022E+02</totfact>
</mgrwt>
</event>
<event>
 4    1  0.5455400E-005  0.5488718E+03  0.7818608E-02  0.1001755E+00
          2   -1    0    0  501    0  0.00000000000E+00  0.00000000000E+00  0.31768171326E+03  0.31768171327E+03  0.25500000000E-02 0.  1.
         -2   -1    0    0    0  501 -0.00000000000E+00 -0.00000000000E+00 -0.23707706964E+03  0.23707706966E+03  0.25500000000E-02 0. -1.
    5000001    1    1    2    0    0 -0.37691392888E+02  0.17646131823E+03  0.11788374429E+03  0.28865171937E+03  0.19200000000E+03 0.  0.
   -5000001    1    1    2    0    0  0.37691392888E+02 -0.17646131823E+03 -0.37279100672E+02  0.26610706356E+03  0.19200000000E+03 0.  0.
<mgrwt>
<rscale>  0 0.54887175E+03</rscale>
<asrwt>0</asrwt>
<pdfrwt beam="1">  1        2 0.45383102E-01 0.54887175E+03</pdfrwt>
<pdfrwt beam="2">  1       -2 0.33868153E-01 0.54887175E+03</pdfrwt>
<totfact> 0.91509013E+02</totfact>
</mgrwt>
</event>
<event>
 4    1  0.5455400E-005  0.5453565E+03  0.7818608E-02  0.1002574E+00
         -2   -1    0    0    0  501 -0.00000000000E+00  0.00000000000E+00  0.40197801767E+03  0.40197801768E+03  0.25500000000E-02 0. -1.
          2   -1    0    0  501    0  0.00000000000E+00 -0.00000000000E+00 -0.18496887468E+03  0.18496887470E+03  0.25500000000E-02 0.  1.
    5000001    1    1    2    0    0  0.18752953389E+03  0.26765298533E+02  0.15163189133E+03  0.30941870945E+03  0.19200000000E+03 0.  0.
   -5000001    1    1    2    0    0 -0.18752953389E+03 -0.26765298533E+02  0.65377251666E+02  0.27752818294E+03  0.19200000000E+03 0.  0.
<mgrwt>
<rscale>  0 0.54535648E+03</rscale>
<asrwt>0</asrwt>
<pdfrwt beam="1">  1        2 0.26424125E-01 0.54535648E+03</pdfrwt>
<pdfrwt beam="2">  1       -2 0.57425431E-01 0.54535648E+03</pdfrwt>
<totfact> 0.58839897E+02</totfact>
</mgrwt>
</event>
<event>
 4    1  0.5455400E-005  0.2333312E+04  0.7818608E-02  0.8464901E-01
          2   -1    0    0  501    0  0.00000000000E+00  0.00000000000E+00  0.57013600362E+03  0.57013600362E+03  0.25500000000E-02 0.  1.
         -2   -1    0    0    0  501 -0.00000000000E+00 -0.00000000000E+00 -0.23873000159E+04  0.23873000159E+04  0.25500000000E-02 0. -1.
    5000001    1    1    2    0    0  0.19958067746E+03  0.10351692145E+04 -0.14932948928E+04  0.18379884075E+04  0.19200000000E+03 0.  0.
   -5000001    1    1    2    0    0 -0.19958067746E+03 -0.10351692145E+04 -0.32386911949E+03  0.11194476120E+04  0.19200000000E+03 0.  0.
<mgrwt>
<rscale>  0 0.23333115E+04</rscale>
<asrwt>0</asrwt>
<pdfrwt beam="1">  1        2 0.81448002E-01 0.23333115E+04</pdfrwt>
<pdfrwt beam="2">  1       -2 0.34104285E+00 0.23333115E+04</pdfrwt>
<totfact> 0.92772258E-01</totfact>
</mgrwt>
</event>
<event>
 4    1  0.5455400E-005  0.5696079E+03  0.7818608E-02  0.9970547E-01
         -2   -1    0    0    0  501 -0.00000000000E+00  0.00000000000E+00  0.39066103507E+02  0.39066103590E+02  0.25500000000E-02 0. -1.
          2   -1    0    0  501    0  0.00000000000E+00 -0.00000000000E+00 -0.20763086029E+04  0.20763086029E+04  0.25500000000E-02 0.  1.
    5000001    1    1    2    0    0  0.19030270712E+02 -0.19518614366E+03 -0.13011951384E+04  0.13298242628E+04  0.19200000000E+03 0.  0.
   -5000001    1    1    2    0    0 -0.19030270712E+02  0.19518614366E+03 -0.73604736103E+03  0.78555044368E+03  0.19200000000E+03 0.  0.
<mgrwt>
<rscale>  0 0.56960789E+03</rscale>
<asrwt>0</asrwt>
<pdfrwt beam="1">  1        2 0.29661544E+00 0.56960789E+03</pdfrwt>
<pdfrwt beam="2">  1       -2 0.55808732E-02 0.56960789E+03</pdfrwt>
<totfact> 0.13140249E+03</totfact>
</mgrwt>
</event>
<event>
 4    1  0.5455400E-005  0.9951587E+03  0.7818608E-02  0.9313871E-01
          2   -1    0    0  501    0  0.00000000000E+00  0.00000000000E+00  0.30172834578E+04  0.30172834578E+04  0.25500000000E-02 0.  1.
         -2   -1    0    0    0  501 -0.00000000000E+00 -0.00000000000E+00 -0.82055668104E+02  0.82055668143E+02  0.25500000000E-02 0. -1.
    5000001    1    1    2    0    0 -0.44705939078E+03 -0.88686392787E+02  0.16380221688E+04  0.17110546457E+04  0.19200000000E+03 0.  0.
   -5000001    1    1    2    0    0  0.44705939078E+03  0.88686392787E+02  0.12972056209E+04  0.13882844802E+04  0.19200000000E+03 0.  0.
<mgrwt>
<rscale>  0 0.99515870E+03</rscale>
<asrwt>0</asrwt>
<pdfrwt beam="1">  1        2 0.43104047E+00 0.99515870E+03</pdfrwt>
<pdfrwt beam="2">  1       -2 0.11722239E-01 0.99515870E+03</pdfrwt>
<totfact> 0.12470246E+02</totfact>
</mgrwt>
</event>
<event>
 4    1  0.5455400E-005  0.1129023E+04  0.7818608E-02  0.9177357E-01
          2   -1    0    0  501    0  0.00000000000E+00  0.00000000000E+00  0.81783453956E+03  0.81783453956E+03  0.25500000000E-02 0.  1.
         -2   -1    0    0    0  501 -0.00000000000E+00 -0.00000000000E+00 -0.38965475205E+03  0.38965475206E+03  0.25500000000E-02 0. -1.
    5000001    1    1    2    0    0  0.98487327258E+02  0.51207857929E+03  0.32042250872E+03  0.64145055078E+03  0.19200000000E+03 0.  0.
   -5000001    1    1    2    0    0 -0.98487327258E+02 -0.51207857929E+03  0.10775727879E+03  0.56603874084E+03  0.19200000000E+03 0.  0.
<mgrwt>
<rscale>  0 0.11290228E+04</rscale>
<asrwt>0</asrwt>
<pdfrwt beam="1">  1        2 0.11683351E+00 0.11290228E+04</pdfrwt>
<pdfrwt beam="2">  1       -2 0.55664964E-01 0.11290228E+04</pdfrwt>
<totfact> 0.11104363E+02</totfact>
</mgrwt>
</event>
<event>
 4    1  0.5455400E-005  0.5689418E+03  0.7818608E-02  0.9972023E-01
          2   -1    0    0  501    0  0.00000000000E+00  0.00000000000E+00  0.10072295755E+04  0.10072295755E+04  0.25500000000E-02 0.  1.
         -2   -1    0    0    0  501 -0.00000000000E+00 -0.00000000000E+00 -0.80342844605E+02  0.80342844646E+02  0.25500000000E-02 0. -1.
    5000001    1    1    2    0    0 -0.19880220412E+03 -0.90141603488E+01  0.33583807316E+03  0.43503423180E+03  0.19200000000E+03 0.  0.
   -5000001    1    1    2    0    0  0.19880220412E+03  0.90141603488E+01  0.59104865775E+03  0.65253818837E+03  0.19200000000E+03 0.  0.
<mgrwt>
<rscale>  0 0.56894179E+03</rscale>
<asrwt>0</asrwt>
<pdfrwt beam="1">  1        2 0.14388993E+00 0.56894179E+03</pdfrwt>
<pdfrwt beam="2">  1       -2 0.11477550E-01 0.56894179E+03</pdfrwt>
<totfact> 0.15291997E+03</totfact>
</mgrwt>
</event>
<event>
 4    1  0.5455400E-005  0.7648970E+03  0.7818608E-02  0.9612265E-01
          2   -1    0    0  501    0  0.00000000000E+00  0.00000000000E+00  0.10281163628E+04  0.10281163628E+04  0.25500000000E-02 0.  1.
         -2   -1    0    0    0  501 -0.00000000000E+00 -0.00000000000E+00 -0.14226681261E+03  0.14226681263E+03  0.25500000000E-02 0. -1.
    5000001    1    1    2    0    0  0.62407693927E+02 -0.32452072632E+03  0.46425969389E+03  0.60133974211E+03  0.19200000000E+03 0.  0.
   -5000001    1    1    2    0    0 -0.62407693927E+02  0.32452072632E+03  0.42158985631E+03  0.56904343333E+03  0.19200000000E+03 0.  0.
<mgrwt>
<rscale>  0 0.76489696E+03</rscale>
<asrwt>0</asrwt>
<pdfrwt beam="1">  1        2 0.14687377E+00 0.76489696E+03</pdfrwt>
<pdfrwt beam="2">  1       -2 0.20323830E-01 0.76489696E+03</pdfrwt>
<totfact> 0.56179214E+02</totfact>
</mgrwt>
</event>
<event>
 4    1  0.5455400E-005  0.8127679E+03  0.7818608E-02  0.9541718E-01
         -2   -1    0    0    0  501 -0.00000000000E+00  0.00000000000E+00  0.51380811313E+02  0.51380811377E+02  0.25500000000E-02 0. -1.
          2   -1    0    0  501    0  0.00000000000E+00 -0.00000000000E+00 -0.32141945512E+04  0.32141945512E+04  0.25500000000E-02 0.  1.
    5000001    1    1    2    0    0 -0.33283108760E+03  0.39749594193E+02 -0.20884735395E+04  0.21238978997E+04  0.19200000000E+03 0.  0.
   -5000001    1    1    2    0    0  0.33283108760E+03 -0.39749594193E+02 -0.10743402004E+04  0.11416774629E+04  0.19200000000E+03 0.  0.
<mgrwt>
<rscale>  0 0.81276792E+03</rscale>
<asrwt>0</asrwt>
<pdfrwt beam="1">  1        2 0.45917052E+00 0.81276792E+03</pdfrwt>
<pdfrwt beam="2">  1       -2 0.73401179E-02 0.81276792E+03</pdfrwt>
<totfact> 0.21056767E+02</totfact>
</mgrwt>
</event>
<event>
 4    1  0.5455400E-005  0.7324553E+03  0.7818608E-02  0.9663284E-01
         -2   -1    0    0    0  501 -0.00000000000E+00  0.00000000000E+00  0.91145256541E+02  0.91145256577E+02  0.25500000000E-02 0. -1.
          2   -1    0    0  501    0  0.00000000000E+00 -0.00000000000E+00 -0.14715269630E+04  0.14715269630E+04  0.25500000000E-02 0.  1.
    5000001    1    1    2    0    0 -0.29956686188E+03  0.76561220982E+02 -0.60335105349E+03  0.70462643936E+03  0.19200000000E+03 0.  0.
   -5000001    1    1    2    0    0  0.29956686188E+03 -0.76561220982E+02 -0.77703065296E+03  0.85804578021E+03  0.19200000000E+03 0.  0.
<mgrwt>
<rscale>  0 0.73245533E+03</rscale>
<asrwt>0</asrwt>
<pdfrwt beam="1">  1        2 0.21021812E+00 0.73245533E+03</pdfrwt>
<pdfrwt beam="2">  1       -2 0.13020752E-01 0.73245533E+03</pdfrwt>
<totfact> 0.67946236E+02</totfact>
</mgrwt>
</event>
<event>
 4    1  0.5455400E-005  0.7735314E+03  0.7818608E-02  0.9599140E-01
         -2   -1    0    0    0  501 -0.00000000000E+00  0.00000000000E+00  0.73932157715E+02  0.73932157759E+02  0.25500000000E-02 0. -1.
          2   -1    0    0  501    0  0.00000000000E+00 -0.00000000000E+00 -0.20233105720E+04  0.20233105720E+04  0.25500000000E-02 0.  1.
    5000001    1    1    2    0    0 -0.54915597952E+02 -0.29564967095E+03 -0.13795595965E+04  0.14249467117E+04  0.19200000000E+03 0.  0.
   -5000001    1    1    2    0    0  0.54915597952E+02  0.29564967095E+03 -0.56981881780E+03  0.67229601810E+03  0.19200000000E+03 0.  0.
<mgrwt>
<rscale>  0 0.77353143E+03</rscale>
<asrwt>0</asrwt>
<pdfrwt beam="1">  1        2 0.28904433E+00 0.77353143E+03</pdfrwt>
<pdfrwt beam="2">  1       -2 0.10561738E-01 0.77353143E+03</pdfrwt>
<totfact> 0.49919048E+02</totfact>
</mgrwt>
</event>
<event>
 4    1  0.5455400E-005  0.8860729E+03  0.7818608E-02  0.9443160E-01
          2   -1    0    0  501    0  0.00000000000E+00  0.00000000000E+00  0.17593044970E+04  0.17593044970E+04  0.25500000000E-02 0.  1.
         -2   -1    0    0    0  501 -0.00000000000E+00 -0.00000000000E+00 -0.11156755942E+03  0.11156755945E+03  0.25500000000E-02 0. -1.
    5000001    1    1    2    0    0 -0.28296308292E+03  0.24938960094E+03  0.11004083032E+04  0.11789935170E+04  0.19200000000E+03 0.  0.
   -5000001    1    1    2    0    0  0.28296308292E+03 -0.24938960094E+03  0.54732863438E+03  0.69187853946E+03  0.19200000000E+03 0.  0.
<mgrwt>
<rscale>  0 0.88607293E+03</rscale>
<asrwt>0</asrwt>
<pdfrwt beam="1">  1        2 0.25132919E+00 0.88607293E+03</pdfrwt>
<pdfrwt beam="2">  1       -2 0.15938224E-01 0.88607293E+03</pdfrwt>
<totfact> 0.33979832E+02</totfact>
</mgrwt>
</event>
<event>
 4    1  0.5455400E-005  0.6762182E+03  0.7818608E-02  0.9758789E-01
          2   -1    0    0  501    0  0.00000000000E+00  0.00000000000E+00  0.64446380766E+03  0.64446380767E+03  0.25500000000E-02 0.  1.
         -2   -1    0    0    0  501 -0.00000000000E+00 -0.00000000000E+00 -0.17738432933E+03  0.17738432935E+03  0.25500000000E-02 0. -1.
    5000001    1    1    2    0    0 -0.16089304341E+03  0.22086238998E+03  0.29770119804E+03  0.44738883540E+03  0.19200000000E+03 0.  0.
   -5000001    1    1    2    0    0  0.16089304341E+03 -0.22086238998E+03  0.16937828030E+03  0.37445930161E+03  0.19200000000E+03 0.  0.
<mgrwt>
<rscale>  0 0.67621825E+03</rscale>
<asrwt>0</asrwt>
<pdfrwt beam="1">  1        2 0.92066259E-01 0.67621825E+03</pdfrwt>
<pdfrwt beam="2">  1       -2 0.25340618E-01 0.67621825E+03</pdfrwt>
<totfact> 0.69900252E+02</totfact>
</mgrwt>
</event>
<event>
 4    1  0.5455400E-005  0.4164348E+03  0.7818608E-02  0.1038233E+00
          2   -1    0    0  501    0  0.00000000000E+00  0.00000000000E+00  0.73478389400E+03  0.73478389401E+03  0.25500000000E-02 0.  1.
         -2   -1    0    0    0  501 -0.00000000000E+00 -0.00000000000E+00 -0.59003041763E+02  0.59003041818E+02  0.25500000000E-02 0. -1.
    5000001    1    1    2    0    0 -0.69086948271E+02 -0.31521503907E+02  0.28660568366E+03  0.35323282625E+03  0.19200000000E+03 0.  0.
   -5000001    1    1    2    0    0  0.69086948271E+02  0.31521503907E+02  0.38917516858E+03  0.44055410958E+03  0.19200000000E+03 0.  0.
<mgrwt>
<rscale>  0 0.41643480E+03</rscale>
<asrwt>0</asrwt>
<pdfrwt beam="1">  1        2 0.10496912E+00 0.41643480E+03</pdfrwt>
<pdfrwt beam="2">  1       -2 0.84290065E-02 0.41643480E+03</pdfrwt>
<totfact> 0.37946410E+03</totfact>
</mgrwt>
</event>
<event>
 4    1  0.5455400E-005  0.4258156E+03  0.7818608E-02  0.1035190E+00
          2   -1    0    0  501    0  0.00000000000E+00  0.00000000000E+00  0.13122206148E+04  0.13122206148E+04  0.25500000000E-02 0.  1.
         -2   -1    0    0    0  501 -0.00000000000E+00 -0.00000000000E+00 -0.34544290905E+02  0.34544290999E+02  0.25500000000E-02 0. -1.
    5000001    1    1    2    0    0  0.67364701981E+02  0.52857181822E+02  0.74533758544E+03  0.77441849216E+03  0.19200000000E+03 0.  0.
   -5000001    1    1    2    0    0 -0.67364701981E+02 -0.52857181822E+02  0.53233873850E+03  0.57234641368E+03  0.19200000000E+03 0.  0.
<mgrwt>
<rscale>  0 0.42581560E+03</rscale>
<asrwt>0</asrwt>
<pdfrwt beam="1">  1        2 0.18746006E+00 0.42581560E+03</pdfrwt>
<pdfrwt beam="2">  1       -2 0.49348994E-02 0.42581560E+03</pdfrwt>
<totfact> 0.39111983E+03</totfact>
</mgrwt>
</event>
<event>
 4    1  0.5455400E-005  0.4379861E+03  0.7818608E-02  0.1031367E+00
          2   -1    0    0  501    0  0.00000000000E+00  0.00000000000E+00  0.63674758650E+03  0.63674758650E+03  0.25500000000E-02 0.  1.
         -2   -1    0    0    0  501 -0.00000000000E+00 -0.00000000000E+00 -0.75317048604E+02  0.75317048647E+02  0.25500000000E-02 0. -1.
    5000001    1    1    2    0    0 -0.37674156971E+02 -0.86005418845E+02  0.35830513030E+03  0.41720838986E+03  0.19200000000E+03 0.  0.
   -5000001    1    1    2    0    0  0.37674156971E+02  0.86005418845E+02  0.20312540760E+03  0.29485624529E+03  0.19200000000E+03 0.  0.
<mgrwt>
<rscale>  0 0.43798607E+03</rscale>
<asrwt>0</asrwt>
<pdfrwt beam="1">  1        2 0.90963939E-01 0.43798607E+03</pdfrwt>
<pdfrwt beam="2">  1       -2 0.10759579E-01 0.43798607E+03</pdfrwt>
<totfact> 0.30501972E+03</totfact>
</mgrwt>
</event>
<event>
 4    1  0.5455400E-005  0.5651145E+03  0.7818608E-02  0.9980548E-01
         -2   -1    0    0    0  501 -0.00000000000E+00  0.00000000000E+00  0.46476855631E+02  0.46476855701E+02  0.25500000000E-02 0. -1.
          2   -1    0    0  501    0  0.00000000000E+00 -0.00000000000E+00 -0.17178142821E+04  0.17178142821E+04  0.25500000000E-02 0.  1.
    5000001    1    1    2    0    0  0.84121845131E+02 -0.18466807552E+03 -0.96797046947E+03  0.10074768547E+04  0.19200000000E+03 0.  0.
   -5000001    1    1    2    0    0 -0.84121845131E+02  0.18466807552E+03 -0.70336695701E+03  0.75681428313E+03  0.19200000000E+03 0.  0.
<mgrwt>
<rscale>  0 0.56511452E+03</rscale>
<asrwt>0</asrwt>
<pdfrwt beam="1">  1        2 0.24540200E+00 0.56511452E+03</pdfrwt>
<pdfrwt beam="2">  1       -2 0.66395519E-02 0.56511452E+03</pdfrwt>
<totfact> 0.15164176E+03</totfact>
</mgrwt>
</event>
<event>
 4    1  0.5455400E-005  0.1939593E+04  0.7818608E-02  0.8635396E-01
         -2   -1    0    0    0  501 -0.00000000000E+00  0.00000000000E+00  0.14673542317E+04  0.14673542317E+04  0.25500000000E-02 0. -1.
          2   -1    0    0  501    0  0.00000000000E+00 -0.00000000000E+00 -0.64095317659E+03  0.64095317659E+03  0.25500000000E-02 0.  1.
    5000001    1    1    2    0    0  0.39677240382E+03  0.76066970184E+03 -0.31792636531E+02  0.87972808724E+03  0.19200000000E+03 0.  0.
   -5000001    1    1    2    0    0 -0.39677240382E+03 -0.76066970184E+03  0.85819369161E+03  0.12285793210E+04  0.19200000000E+03 0.  0.
<mgrwt>
<rscale>  0 0.19395931E+04</rscale>
<asrwt>0</asrwt>
<pdfrwt beam="1">  1        2 0.91564740E-01 0.19395931E+04</pdfrwt>
<pdfrwt beam="2">  1       -2 0.20962203E+00 0.19395931E+04</pdfrwt>
<totfact> 0.54040358E+00</totfact>
</mgrwt>
</event>
<event>
 4    1  0.5455400E-005  0.5881650E+03  0.7818608E-02  0.9930269E-01
          2   -1    0    0  501    0  0.00000000000E+00  0.00000000000E+00  0.26295139827E+04  0.26295139827E+04  0.25500000000E-02 0.  1.
         -2   -1    0    0    0  501 -0.00000000000E+00 -0.00000000000E+00 -0.32889919552E+02  0.32889919651E+02  0.25500000000E-02 0. -1.
    5000001    1    1    2    0    0 -0.18137179137E+03  0.48791058230E+02  0.18404540967E+04  0.18599493478E+04  0.19200000000E+03 0.  0.
   -5000001    1    1    2    0    0  0.18137179137E+03 -0.48791058230E+02  0.75616996640E+03  0.80245455457E+03  0.19200000000E+03 0.  0.
<mgrwt>
<rscale>  0 0.58816495E+03</rscale>
<asrwt>0</asrwt>
<pdfrwt beam="1">  1        2 0.37564481E+00 0.58816495E+03</pdfrwt>
<pdfrwt beam="2">  1       -2 0.46985605E-02 0.58816495E+03</pdfrwt>
<totfact> 0.89737817E+02</totfact>
</mgrwt>
</event>
<event>
 4    1  0.5455400E-005  0.6049675E+03  0.7818608E-02  0.9895153E-01
          2   -1    0    0  501    0  0.00000000000E+00  0.00000000000E+00  0.47153530492E+03  0.47153530493E+03  0.25500000000E-02 0.  1.
         -2   -1    0    0    0  501 -0.00000000000E+00 -0.00000000000E+00 -0.19403938407E+03  0.19403938408E+03  0.25500000000E-02 0. -1.
    5000001    1    1    2    0    0 -0.52359939710E+02  0.22768333105E+03  0.14661696669E+03  0.33606814405E+03  0.19200000000E+03 0.  0.
   -5000001    1    1    2    0    0  0.52359939710E+02 -0.22768333105E+03  0.13087895417E+03  0.32950654496E+03  0.19200000000E+03 0.  0.
<mgrwt>
<rscale>  0 0.60496750E+03</rscale>
<asrwt>0</asrwt>
<pdfrwt beam="1">  1        2 0.67362188E-01 0.60496750E+03</pdfrwt>
<pdfrwt beam="2">  1       -2 0.27719912E-01 0.60496750E+03</pdfrwt>
<totfact> 0.85491744E+02</totfact>
</mgrwt>
</event>
<event>
 4    1  0.5455400E-005  0.8442921E+03  0.7818608E-02  0.9498030E-01
          2   -1    0    0  501    0  0.00000000000E+00  0.00000000000E+00  0.16711030507E+04  0.16711030507E+04  0.25500000000E-02 0.  1.
         -2   -1    0    0    0  501 -0.00000000000E+00 -0.00000000000E+00 -0.10664052339E+03  0.10664052342E+03  0.25500000000E-02 0. -1.
    5000001    1    1    2    0    0  0.30011566064E+03  0.22105711415E+03  0.67891403827E+03  0.79794982852E+03  0.19200000000E+03 0.  0.
   -5000001    1    1    2    0    0 -0.30011566064E+03 -0.22105711415E+03  0.88554848905E+03  0.97979374561E+03  0.19200000000E+03 0.  0.
<mgrwt>
<rscale>  0 0.84429214E+03</rscale>
<asrwt>0</asrwt>
<pdfrwt beam="1">  1        2 0.23872898E+00 0.84429214E+03</pdfrwt>
<pdfrwt beam="2">  1       -2 0.15234362E-01 0.84429214E+03</pdfrwt>
<totfact> 0.40834004E+02</totfact>
</mgrwt>
</event>
<event>
 4    1  0.5455400E-005  0.1077271E+04  0.7818608E-02  0.9227633E-01
          2   -1    0    0  501    0  0.00000000000E+00  0.00000000000E+00  0.11829136945E+04  0.11829136945E+04  0.25500000000E-02 0. -1.
         -2   -1    0    0    0  501 -0.00000000000E+00 -0.00000000000E+00 -0.24526556994E+03  0.24526556995E+03  0.25500000000E-02 0.  1.
    5000001    1    1    2    0    0 -0.47575674628E+03 -0.33316372988E+02  0.25583954722E+03  0.57425807461E+03  0.19200000000E+03 0.  0.
   -5000001    1    1    2    0    0  0.47575674628E+03  0.33316372988E+02  0.68180857735E+03  0.85392118986E+03  0.19200000000E+03 0.  0.
<mgrwt>
<rscale>  0 0.10772706E+04</rscale>
<asrwt>0</asrwt>
<pdfrwt beam="1">  1        2 0.16898767E+00 0.10772706E+04</pdfrwt>
<pdfrwt beam="2">  1       -2 0.35037939E-01 0.10772706E+04</pdfrwt>
<totfact> 0.16582690E+02</totfact>
</mgrwt>
</event>
<event>
 4    1  0.5455400E-005  0.4926393E+03  0.7818608E-02  0.1015718E+00
          2   -1    0    0  501    0  0.00000000000E+00  0.00000000000E+00  0.20968103547E+04  0.20968103547E+04  0.25500000000E-02 0.  1.
         -2   -1    0    0    0  501 -0.00000000000E+00 -0.00000000000E+00 -0.28936032238E+02  0.28936032350E+02  0.25500000000E-02 0. -1.
    5000001    1    1    2    0    0 -0.83461610394E+02 -0.11154513454E+03  0.13202024327E+04  0.13413450789E+04  0.19200000000E+03 0.  0.
   -5000001    1    1    2    0    0  0.83461610394E+02  0.11154513454E+03  0.74767188976E+03  0.78440130812E+03  0.19200000000E+03 0.  0.
<mgrwt>
<rscale>  0 0.49263931E+03</rscale>
<asrwt>0</asrwt>
<pdfrwt beam="1">  1        2 0.29954443E+00 0.49263931E+03</pdfrwt>
<pdfrwt beam="2">  1       -2 0.41337176E-02 0.49263931E+03</pdfrwt>
<totfact> 0.20480176E+03</totfact>
</mgrwt>
</event>
<event>
 4    1  0.5455400E-005  0.4465312E+03  0.7818608E-02  0.1028762E+00
          2   -1    0    0  501    0  0.00000000000E+00  0.00000000000E+00  0.14862982273E+04  0.14862982273E+04  0.25500000000E-02 0.  1.
         -2   -1    0    0    0  501 -0.00000000000E+00 -0.00000000000E+00 -0.33538039210E+02  0.33538039307E+02  0.25500000000E-02 0. -1.
    5000001    1    1    2    0    0  0.10541429248E+03 -0.32270024090E+02  0.62832181992E+03  0.66618753883E+03  0.19200000000E+03 0.  0.
   -5000001    1    1    2    0    0 -0.10541429248E+03  0.32270024090E+02  0.82443836815E+03  0.85364872775E+03  0.19200000000E+03 0.  0.
<mgrwt>
<rscale>  0 0.44653120E+03</rscale>
<asrwt>0</asrwt>
<pdfrwt beam="1">  1        2 0.21232835E+00 0.44653120E+03</pdfrwt>
<pdfrwt beam="2">  1       -2 0.47911477E-02 0.44653120E+03</pdfrwt>
<totfact> 0.33163473E+03</totfact>
</mgrwt>
</event>
<event>
 4    1  0.5455400E-005  0.9918123E+03  0.7818608E-02  0.9317571E-01
         -2   -1    0    0    0  501 -0.00000000000E+00  0.00000000000E+00  0.16084705390E+03  0.16084705392E+03  0.25500000000E-02 0. -1.
          2   -1    0    0  501    0  0.00000000000E+00 -0.00000000000E+00 -0.15289238265E+04  0.15289238265E+04  0.25500000000E-02 0.  1.
    5000001    1    1    2    0    0 -0.35066162603E+03 -0.27026664224E+03 -0.48940176596E+03  0.68730322449E+03  0.19200000000E+03 0.  0.
   -5000001    1    1    2    0    0  0.35066162603E+03  0.27026664224E+03 -0.87867500662E+03  0.10024676559E+04  0.19200000000E+03 0.  0.
<mgrwt>
<rscale>  0 0.99181227E+03</rscale>
<asrwt>0</asrwt>
<pdfrwt beam="1">  1        2 0.21841768E+00 0.99181227E+03</pdfrwt>
<pdfrwt beam="2">  1       -2 0.22978151E-01 0.99181227E+03</pdfrwt>
<totfact> 0.23485981E+02</totfact>
</mgrwt>
</event>
<event>
 4    1  0.5455400E-005  0.7282099E+03  0.7818608E-02  0.9670170E-01
          2   -1    0    0  501    0  0.00000000000E+00  0.00000000000E+00  0.39003252317E+03  0.39003252318E+03  0.25500000000E-02 0.  1.
         -2   -1    0    0    0  501 -0.00000000000E+00 -0.00000000000E+00 -0.33990092072E+03  0.33990092073E+03  0.25500000000E-02 0. -1.
    5000001    1    1    2    0    0 -0.23066267088E+03  0.70366015382E+02  0.21930724190E+03  0.37830716383E+03  0.19200000000E+03 0.  0.
   -5000001    1    1    2    0    0  0.23066267088E+03 -0.70366015382E+02 -0.16917563944E+03  0.35162628007E+03  0.19200000000E+03 0.  0.
<mgrwt>
<rscale>  0 0.72820990E+03</rscale>
<asrwt>0</asrwt>
<pdfrwt beam="1">  1        2 0.55718932E-01 0.72820990E+03</pdfrwt>
<pdfrwt beam="2">  1       -2 0.48557274E-01 0.72820990E+03</pdfrwt>
<totfact> 0.36009089E+02</totfact>
</mgrwt>
</event>
<event>
 4    1  0.5455400E-005  0.6873643E+03  0.7818608E-02  0.9739088E-01
          2   -1    0    0  501    0  0.00000000000E+00  0.00000000000E+00  0.20623010435E+04  0.20623010435E+04  0.25500000000E-02 0.  1.
         -2   -1    0    0    0  501 -0.00000000000E+00 -0.00000000000E+00 -0.57274581552E+02  0.57274581609E+02  0.25500000000E-02 0. -1.
    5000001    1    1    2    0    0 -0.23311161656E+03  0.43688270130E+01  0.15082029364E+04  0.15381483055E+04  0.19200000000E+03 0.  0.
   -5000001    1    1    2    0    0  0.23311161656E+03 -0.43688270130E+01  0.49682352557E+03  0.58142731960E+03  0.19200000000E+03 0.  0.
<mgrwt>
<rscale>  0 0.68736433E+03</rscale>
<asrwt>0</asrwt>
<pdfrwt beam="1">  1        2 0.29461444E+00 0.68736433E+03</pdfrwt>
<pdfrwt beam="2">  1       -2 0.81820828E-02 0.68736433E+03</pdfrwt>
<totfact> 0.72498213E+02</totfact>
</mgrwt>
</event>
<event>
 4    1  0.5455400E-005  0.6458180E+03  0.7818608E-02  0.9814658E-01
          2   -1    0    0  501    0  0.00000000000E+00  0.00000000000E+00  0.45421151857E+03  0.45421151858E+03  0.25500000000E-02 0.  1.
         -2   -1    0    0    0  501 -0.00000000000E+00 -0.00000000000E+00 -0.22956313246E+03  0.22956313247E+03  0.25500000000E-02 0. -1.
    5000001    1    1    2    0    0  0.21532769802E+03  0.52266013496E+02 -0.30937087481E+02  0.29482004186E+03  0.19200000000E+03 0.  0.
   -5000001    1    1    2    0    0 -0.21532769802E+03 -0.52266013496E+02  0.25558547359E+03  0.38895460919E+03  0.19200000000E+03 0.  0.
<mgrwt>
<rscale>  0 0.64581799E+03</rscale>
<asrwt>0</asrwt>
<pdfrwt beam="1">  1        2 0.64887359E-01 0.64581799E+03</pdfrwt>
<pdfrwt beam="2">  1       -2 0.32794733E-01 0.64581799E+03</pdfrwt>
<totfact> 0.65291722E+02</totfact>
</mgrwt>
</event>
<event>
 4    1  0.5455400E-005  0.1210253E+04  0.7818608E-02  0.9103929E-01
         -2   -1    0    0    0  501 -0.00000000000E+00  0.00000000000E+00  0.26092047469E+03  0.26092047470E+03  0.25500000000E-02 0. -1.
          2   -1    0    0  501    0  0.00000000000E+00 -0.00000000000E+00 -0.14034084235E+04  0.14034084236E+04  0.25500000000E-02 0.  1.
    5000001    1    1    2    0    0  0.23895946395E+03 -0.51477078523E+03 -0.68812231359E+03  0.91239624353E+03  0.19200000000E+03 0.  0.
   -5000001    1    1    2    0    0 -0.23895946395E+03  0.51477078523E+03 -0.45436563526E+03  0.75193265473E+03  0.19200000000E+03 0.  0.
<mgrwt>
<rscale>  0 0.12102529E+04</rscale>
<asrwt>0</asrwt>
<pdfrwt beam="1">  1        2 0.20048691E+00 0.12102529E+04</pdfrwt>
<pdfrwt beam="2">  1       -2 0.37274354E-01 0.12102529E+04</pdfrwt>
<totfact> 0.11015747E+02</totfact>
</mgrwt>
</event>
<event>
 4    1  0.5455400E-005  0.6691554E+03  0.7818608E-02  0.9771485E-01
         -2   -1    0    0    0  501 -0.00000000000E+00  0.00000000000E+00  0.39201754360E+03  0.39201754361E+03  0.25500000000E-02 0. -1.
          2   -1    0    0  501    0  0.00000000000E+00 -0.00000000000E+00 -0.28555412700E+03  0.28555412701E+03  0.25500000000E-02 0.  1.
    5000001    1    1    2    0    0 -0.26769981271E+03  0.21360196832E+02  0.10831052324E+03  0.34744009150E+03  0.19200000000E+03 0.  0.
   -5000001    1    1    2    0    0  0.26769981271E+03 -0.21360196832E+02 -0.18471066376E+01  0.33013157913E+03  0.19200000000E+03 0.  0.
<mgrwt>
<rscale>  0 0.66915537E+03</rscale>
<asrwt>0</asrwt>
<pdfrwt beam="1">  1        2 0.40793447E-01 0.66915537E+03</pdfrwt>
<pdfrwt beam="2">  1       -2 0.56002506E-01 0.66915537E+03</pdfrwt>
<totfact> 0.38057251E+02</totfact>
</mgrwt>
</event>
<event>
 4    1  0.5455400E-005  0.6279338E+03  0.7818608E-02  0.9849089E-01
         -2   -1    0    0    0  501 -0.00000000000E+00  0.00000000000E+00  0.13723574315E+03  0.13723574317E+03  0.25500000000E-02 0. -1.
          2   -1    0    0  501    0  0.00000000000E+00 -0.00000000000E+00 -0.71829118830E+03  0.71829118831E+03  0.25500000000E-02 0.  1.
    5000001    1    1    2    0    0  0.81359088106E+02 -0.23294460001E+03 -0.32974958429E+03  0.45440210852E+03  0.19200000000E+03 0.  0.
   -5000001    1    1    2    0    0 -0.81359088106E+02  0.23294460001E+03 -0.25130586086E+03  0.40112482296E+03  0.19200000000E+03 0.  0.
<mgrwt>
<rscale>  0 0.62793383E+03</rscale>
<asrwt>0</asrwt>
<pdfrwt beam="1">  1        2 0.10261303E+00 0.62793383E+03</pdfrwt>
<pdfrwt beam="2">  1       -2 0.19605106E-01 0.62793383E+03</pdfrwt>
<totfact> 0.96569856E+02</totfact>
</mgrwt>
</event>
<event>
 4    1  0.5455400E-005  0.5293680E+03  0.7818608E-02  0.1006386E+00
          2   -1    0    0  501    0  0.00000000000E+00  0.00000000000E+00  0.71776578741E+03  0.71776578741E+03  0.25500000000E-02 0.  1.
         -2   -1    0    0    0  501 -0.00000000000E+00 -0.00000000000E+00 -0.97605123512E+02  0.97605123545E+02  0.25500000000E-02 0. -1.
    5000001    1    1    2    0    0 -0.13899092372E+03  0.11230500213E+03  0.25534693115E+03  0.36605593238E+03  0.19200000000E+03 0.  0.
   -5000001    1    1    2    0    0  0.13899092372E+03 -0.11230500213E+03  0.36481373274E+03  0.44931497858E+03  0.19200000000E+03 0.  0.
<mgrwt>
<rscale>  0 0.52936799E+03</rscale>
<asrwt>0</asrwt>
<pdfrwt beam="1">  1        2 0.10253797E+00 0.52936799E+03</pdfrwt>
<pdfrwt beam="2">  1       -2 0.13943590E-01 0.52936799E+03</pdfrwt>
<totfact> 0.17274411E+03</totfact>
</mgrwt>
</event>
<event>
 4    1  0.5455400E-005  0.9134257E+03  0.7818608E-02  0.9408953E-01
          2   -1    0    0  501    0  0.00000000000E+00  0.00000000000E+00  0.66100498213E+03  0.66100498213E+03  0.25500000000E-02 0.  1.
         -2   -1    0    0    0  501 -0.00000000000E+00 -0.00000000000E+00 -0.31555983846E+03  0.31555983847E+03  0.25500000000E-02 0. -1.
    5000001    1    1    2    0    0  0.10913841335E+03  0.39385787719E+03  0.24591970576E+03  0.51417479749E+03  0.19200000000E+03 0.  0.
   -5000001    1    1    2    0    0 -0.10913841335E+03 -0.39385787719E+03  0.99525437908E+02  0.46239002312E+03  0.19200000000E+03 0.  0.
<mgrwt>
<rscale>  0 0.91342570E+03</rscale>
<asrwt>0</asrwt>
<pdfrwt beam="1">  1        2 0.94429283E-01 0.91342570E+03</pdfrwt>
<pdfrwt beam="2">  1       -2 0.45079977E-01 0.91342570E+03</pdfrwt>
<totfact> 0.22571582E+02</totfact>
</mgrwt>
</event>
<event>
 4    1  0.5455400E-005  0.4460027E+03  0.7818608E-02  0.1028921E+00
          2   -1    0    0  501    0  0.00000000000E+00  0.00000000000E+00  0.12356780646E+04  0.12356780646E+04  0.25500000000E-02 0.  1.
         -2   -1    0    0    0  501 -0.00000000000E+00 -0.00000000000E+00 -0.40244785225E+02  0.40244785306E+02  0.25500000000E-02 0. -1.
    5000001    1    1    2    0    0 -0.17959334110E+02 -0.11058152567E+03  0.64847355831E+03  0.68551642382E+03  0.19200000000E+03 0.  0.
   -5000001    1    1    2    0    0  0.17959334110E+02  0.11058152567E+03  0.54695972109E+03  0.59040642611E+03  0.19200000000E+03 0.  0.
<mgrwt>
<rscale>  0 0.44600268E+03</rscale>
<asrwt>0</asrwt>
<pdfrwt beam="1">  1        2 0.17652543E+00 0.44600268E+03</pdfrwt>
<pdfrwt beam="2">  1       -2 0.57492552E-02 0.44600268E+03</pdfrwt>
<totfact> 0.33990436E+03</totfact>
</mgrwt>
</event>
<event>
 4    1  0.5455400E-005  0.5672556E+03  0.7818608E-02  0.9975770E-01
          2   -1    0    0  501    0  0.00000000000E+00  0.00000000000E+00  0.28214748525E+04  0.28214748525E+04  0.25500000000E-02 0.  1.
         -2   -1    0    0    0  501 -0.00000000000E+00 -0.00000000000E+00 -0.28511588118E+02  0.28511588232E+02  0.25500000000E-02 0. -1.
    5000001    1    1    2    0    0 -0.20676496061E+03  0.17995180504E+02  0.12835603703E+04  0.13143313127E+04  0.19200000000E+03 0.  0.
   -5000001    1    1    2    0    0  0.20676496061E+03 -0.17995180504E+02  0.15094028941E+04  0.15356551280E+04  0.19200000000E+03 0.  0.
<mgrwt>
<rscale>  0 0.56725560E+03</rscale>
<asrwt>0</asrwt>
<pdfrwt beam="1">  1        2 0.40306757E+00 0.56725560E+03</pdfrwt>
<pdfrwt beam="2">  1       -2 0.40730867E-02 0.56725560E+03</pdfrwt>
<totfact> 0.88855863E+02</totfact>
</mgrwt>
</event>
<event>
 4    1  0.5455400E-005  0.5308046E+03  0.7818608E-02  0.1006037E+00
          2   -1    0    0  501    0  0.00000000000E+00  0.00000000000E+00  0.12361220016E+04  0.12361220016E+04  0.25500000000E-02 0. -1.
         -2   -1    0    0    0  501 -0.00000000000E+00 -0.00000000000E+00 -0.56983356106E+02  0.56983356163E+02  0.25500000000E-02 0.  1.
    5000001    1    1    2    0    0  0.47648773714E+02  0.17686190795E+03  0.60146402389E+03  0.65739905092E+03  0.19200000000E+03 0.  0.
   -5000001    1    1    2    0    0 -0.47648773714E+02 -0.17686190795E+03  0.57767462163E+03  0.63570630687E+03  0.19200000000E+03 0.  0.
<mgrwt>
<rscale>  0 0.53080460E+03</rscale>
<asrwt>0</asrwt>
<pdfrwt beam="1">  1        2 0.17658885E+00 0.53080460E+03</pdfrwt>
<pdfrwt beam="2">  1       -2 0.81404797E-02 0.53080460E+03</pdfrwt>
<totfact> 0.19662458E+03</totfact>
</mgrwt>
</event>
<event>
 4    1  0.5455400E-005  0.4784339E+03  0.7818608E-02  0.1019566E+00
         -2   -1    0    0    0  501 -0.00000000000E+00  0.00000000000E+00  0.54009352824E+02  0.54009352884E+02  0.25500000000E-02 0. -1.
          2   -1    0    0  501    0  0.00000000000E+00 -0.00000000000E+00 -0.10595340825E+04  0.10595340825E+04  0.25500000000E-02 0.  1.
    5000001    1    1    2    0    0 -0.27364579479E+02  0.14003217699E+03 -0.50673909795E+03  0.56036268987E+03  0.19200000000E+03 0.  0.
   -5000001    1    1    2    0    0  0.27364579479E+02 -0.14003217699E+03 -0.49878563174E+03  0.55318074553E+03  0.19200000000E+03 0.  0.
<mgrwt>
<rscale>  0 0.47843390E+03</rscale>
<asrwt>0</asrwt>
<pdfrwt beam="1">  1        2 0.15136200E+00 0.47843390E+03</pdfrwt>
<pdfrwt beam="2">  1       -2 0.77156225E-02 0.47843390E+03</pdfrwt>
<totfact> 0.26978957E+03</totfact>
</mgrwt>
</event>
<event>
 4    1  0.5455400E-005  0.8291103E+03  0.7818608E-02  0.9518811E-01
         -2   -1    0    0    0  501 -0.00000000000E+00  0.00000000000E+00  0.82122408974E+03  0.82122408975E+03  0.25500000000E-02 0. -1.
          2   -1    0    0  501    0  0.00000000000E+00 -0.00000000000E+00 -0.20926804886E+03  0.20926804888E+03  0.25500000000E-02 0.  1.
    5000001    1    1    2    0    0 -0.69802691165E+02  0.20631272372E+03  0.67374428341E+03  0.73364345229E+03  0.19200000000E+03 0.  0.
   -5000001    1    1    2    0    0  0.69802691165E+02 -0.20631272372E+03 -0.61788242527E+02  0.29684868634E+03  0.19200000000E+03 0.  0.
<mgrwt>
<rscale>  0 0.82911028E+03</rscale>
<asrwt>0</asrwt>
<pdfrwt beam="1">  1        2 0.29895436E-01 0.82911028E+03</pdfrwt>
<pdfrwt beam="2">  1       -2 0.11731773E+00 0.82911028E+03</pdfrwt>
<totfact> 0.10095596E+02</totfact>
</mgrwt>
</event>
<event>
 4    1  0.5455400E-005  0.1011668E+04  0.7818608E-02  0.9295839E-01
         -2   -1    0    0    0  501 -0.00000000000E+00  0.00000000000E+00  0.13455659181E+03  0.13455659183E+03  0.25500000000E-02 0. -1.
          2   -1    0    0  501    0  0.00000000000E+00 -0.00000000000E+00 -0.19015654210E+04  0.19015654210E+04  0.25500000000E-02 0.  1.
    5000001    1    1    2    0    0  0.36277203007E+03 -0.29327488358E+03 -0.95855339171E+03  0.10831907994E+04  0.19200000000E+03 0.  0.
   -5000001    1    1    2    0    0 -0.36277203007E+03  0.29327488358E+03 -0.80845543743E+03  0.95293121339E+03  0.19200000000E+03 0.  0.
<mgrwt>
<rscale>  0 0.10116683E+04</rscale>
<asrwt>0</asrwt>
<pdfrwt beam="1">  1        2 0.27165219E+00 0.10116683E+04</pdfrwt>
<pdfrwt beam="2">  1       -2 0.19222371E-01 0.10116683E+04</pdfrwt>
<totfact> 0.20629656E+02</totfact>
</mgrwt>
</event>
<event>
 4    1  0.5455400E-005  0.5284634E+03  0.7818608E-02  0.1006605E+00
          2   -1    0    0  501    0  0.00000000000E+00  0.00000000000E+00  0.18801275703E+04  0.18801275703E+04  0.25500000000E-02 0.  1.
         -2   -1    0    0    0  501 -0.00000000000E+00 -0.00000000000E+00 -0.37134923981E+02  0.37134924068E+02  0.25500000000E-02 0. -1.
    5000001    1    1    2    0    0 -0.50939582282E+02  0.17335159615E+03  0.85774495447E+03  0.89734944356E+03  0.19200000000E+03 0.  0.
   -5000001    1    1    2    0    0  0.50939582282E+02 -0.17335159615E+03  0.98524769189E+03  0.10199130509E+04  0.19200000000E+03 0.  0.
<mgrwt>
<rscale>  0 0.52846341E+03</rscale>
<asrwt>0</asrwt>
<pdfrwt beam="1">  1        2 0.26858971E+00 0.52846341E+03</pdfrwt>
<pdfrwt beam="2">  1       -2 0.53049880E-02 0.52846341E+03</pdfrwt>
<totfact> 0.17862537E+03</totfact>
</mgrwt>
</event>
<event>
 4    1  0.5455400E-005  0.4409648E+03  0.7818608E-02  0.1030451E+00
         -2   -1    0    0    0  501 -0.00000000000E+00  0.00000000000E+00  0.87176284536E+02  0.87176284574E+02  0.25500000000E-02 0. -1.
          2   -1    0    0  501    0  0.00000000000E+00 -0.00000000000E+00 -0.55763424747E+03  0.55763424747E+03  0.25500000000E-02 0.  1.
    5000001    1    1    2    0    0 -0.60070420588E+02 -0.31427844178E+02 -0.11156261298E+03  0.23217747831E+03  0.19200000000E+03 0.  0.
   -5000001    1    1    2    0    0  0.60070420588E+02  0.31427844178E+02 -0.35889534995E+03  0.41263305374E+03  0.19200000000E+03 0.  0.
<mgrwt>
<rscale>  0 0.44096477E+03</rscale>
<asrwt>0</asrwt>
<pdfrwt beam="1">  1        2 0.79662033E-01 0.44096477E+03</pdfrwt>
<pdfrwt beam="2">  1       -2 0.12453755E-01 0.44096477E+03</pdfrwt>
<totfact> 0.28046233E+03</totfact>
</mgrwt>
</event>
<event>
 4    1  0.5455400E-005  0.6222808E+03  0.7818608E-02  0.9860229E-01
         -2   -1    0    0    0  501 -0.00000000000E+00  0.00000000000E+00  0.80086959818E+02  0.80086959858E+02  0.25500000000E-02 0. -1.
          2   -1    0    0  501    0  0.00000000000E+00 -0.00000000000E+00 -0.12087905511E+04  0.12087905511E+04  0.25500000000E-02 0.  1.
    5000001    1    1    2    0    0  0.18559021466E+02  0.24351019093E+03 -0.52831563047E+03  0.61288094746E+03  0.19200000000E+03 0.  0.
   -5000001    1    1    2    0    0 -0.18559021466E+02 -0.24351019093E+03 -0.60038796077E+03  0.67599656346E+03  0.19200000000E+03 0.  0.
<mgrwt>
<rscale>  0 0.62228084E+03</rscale>
<asrwt>0</asrwt>
<pdfrwt beam="1">  1        2 0.17268435E+00 0.62228084E+03</pdfrwt>
<pdfrwt beam="2">  1       -2 0.11440995E-01 0.62228084E+03</pdfrwt>
<totfact> 0.11726017E+03</totfact>
</mgrwt>
</event>
<event>
 4    1  0.5455400E-005  0.5214459E+03  0.7818608E-02  0.1008328E+00
          2   -1    0    0  501    0  0.00000000000E+00  0.00000000000E+00  0.46577987086E+03  0.46577987087E+03  0.25500000000E-02 0.  1.
         -2   -1    0    0    0  501 -0.00000000000E+00 -0.00000000000E+00 -0.14594115742E+03  0.14594115744E+03  0.25500000000E-02 0. -1.
    5000001    1    1    2    0    0 -0.14763574097E+03  0.33623830723E+02  0.26605686248E+03  0.36135457390E+03  0.19200000000E+03 0.  0.
   -5000001    1    1    2    0    0  0.14763574097E+03 -0.33623830723E+02  0.53781850959E+02  0.25036645441E+03  0.19200000000E+03 0.  0.
<mgrwt>
<rscale>  0 0.52144589E+03</rscale>
<asrwt>0</asrwt>
<pdfrwt beam="1">  1        2 0.66539982E-01 0.52144589E+03</pdfrwt>
<pdfrwt beam="2">  1       -2 0.20848737E-01 0.52144589E+03</pdfrwt>
<totfact> 0.14414470E+03</totfact>
</mgrwt>
</event>
<event>
 4    1  0.5455400E-005  0.9951213E+03  0.7818608E-02  0.9313912E-01
          2   -1    0    0  501    0  0.00000000000E+00  0.00000000000E+00  0.88019175285E+03  0.88019175285E+03  0.25500000000E-02 0.  1.
         -2   -1    0    0    0  501 -0.00000000000E+00 -0.00000000000E+00 -0.28126439527E+03  0.28126439528E+03  0.25500000000E-02 0. -1.
    5000001    1    1    2    0    0  0.42587401690E+03  0.90026390037E+02  0.12940714546E+03  0.49303512904E+03  0.19200000000E+03 0.  0.
   -5000001    1    1    2    0    0 -0.42587401690E+03 -0.90026390037E+02  0.46952021212E+03  0.66842101909E+03  0.19200000000E+03 0.  0.
<mgrwt>
<rscale>  0 0.99512130E+03</rscale>
<asrwt>0</asrwt>
<pdfrwt beam="1">  1        2 0.12574168E+00 0.99512130E+03</pdfrwt>
<pdfrwt beam="2">  1       -2 0.40180628E-01 0.99512130E+03</pdfrwt>
<totfact> 0.19587820E+02</totfact>
</mgrwt>
</event>
<event>
 4    1  0.5455400E-005  0.4706819E+03  0.7818608E-02  0.1021728E+00
         -2   -1    0    0    0  501 -0.00000000000E+00  0.00000000000E+00  0.42366557743E+02  0.42366557820E+02  0.25500000000E-02 0. -1.
          2   -1    0    0  501    0  0.00000000000E+00 -0.00000000000E+00 -0.13072895431E+04  0.13072895431E+04  0.25500000000E-02 0.  1.
    5000001    1    1    2    0    0  0.97678965586E+02 -0.52763765690E+02 -0.85817473995E+03  0.88637073484E+03  0.19200000000E+03 0.  0.
   -5000001    1    1    2    0    0 -0.97678965586E+02  0.52763765690E+02 -0.40674824541E+03  0.46328536609E+03  0.19200000000E+03 0.  0.
<mgrwt>
<rscale>  0 0.47068188E+03</rscale>
<asrwt>0</asrwt>
<pdfrwt beam="1">  1        2 0.18675562E+00 0.47068188E+03</pdfrwt>
<pdfrwt beam="2">  1       -2 0.60523662E-02 0.47068188E+03</pdfrwt>
<totfact> 0.28695626E+03</totfact>
</mgrwt>
</event>
<event>
 4    1  0.5455400E-005  0.6674549E+03  0.7818608E-02  0.9774567E-01
          2   -1    0    0  501    0  0.00000000000E+00  0.00000000000E+00  0.31920076601E+03  0.31920076602E+03  0.25500000000E-02 0.  1.
         -2   -1    0    0    0  501 -0.00000000000E+00 -0.00000000000E+00 -0.34891524658E+03  0.34891524659E+03  0.25500000000E-02 0. -1.
    5000001    1    1    2    0    0  0.28011592312E+02  0.25081569864E+03 -0.11896434110E+03  0.33868817287E+03  0.19200000000E+03 0.  0.
   -5000001    1    1    2    0    0 -0.28011592312E+02 -0.25081569864E+03  0.89249860527E+02  0.32942783974E+03  0.19200000000E+03 0.  0.
<mgrwt>
<rscale>  0 0.66745491E+03</rscale>
<asrwt>0</asrwt>
<pdfrwt beam="1">  1        2 0.45600109E-01 0.66745491E+03</pdfrwt>
<pdfrwt beam="2">  1       -2 0.49845035E-01 0.66745491E+03</pdfrwt>
<totfact> 0.42730700E+02</totfact>
</mgrwt>
</event>
<event>
 4    1  0.5455400E-005  0.7442156E+03  0.7818608E-02  0.9644469E-01
          2   -1    0    0  501    0  0.00000000000E+00  0.00000000000E+00  0.13243622740E+04  0.13243622740E+04  0.25500000000E-02 0.  1.
         -2   -1    0    0    0  501 -0.00000000000E+00 -0.00000000000E+00 -0.10455162136E+03  0.10455162139E+03  0.25500000000E-02 0. -1.
    5000001    1    1    2    0    0 -0.95419423466E+02 -0.24850816488E+03  0.27327558102E+03  0.42708865305E+03  0.19200000000E+03 0.  0.
   -5000001    1    1    2    0    0  0.95419423466E+02  0.24850816488E+03  0.94653507160E+03  0.10018252423E+04  0.19200000000E+03 0.  0.
<mgrwt>
<rscale>  0 0.74421562E+03</rscale>
<asrwt>0</asrwt>
<pdfrwt beam="1">  1        2 0.18919460E+00 0.74421562E+03</pdfrwt>
<pdfrwt beam="2">  1       -2 0.14935946E-01 0.74421562E+03</pdfrwt>
<totfact> 0.64676909E+02</totfact>
</mgrwt>
</event>
<event>
 4    1  0.5455400E-005  0.4468781E+03  0.7818608E-02  0.1028657E+00
          2   -1    0    0  501    0  0.00000000000E+00  0.00000000000E+00  0.29655439241E+04  0.29655439241E+04  0.25500000000E-02 0.  1.
         -2   -1    0    0    0  501 -0.00000000000E+00 -0.00000000000E+00 -0.16835028867E+02  0.16835029060E+02  0.25500000000E-02 0. -1.
    5000001    1    1    2    0    0 -0.48123097766E+02 -0.87895763854E+02  0.11076276280E+04  0.11286028797E+04  0.19200000000E+03 0.  0.
   -5000001    1    1    2    0    0  0.48123097766E+02  0.87895763854E+02  0.18410812672E+04  0.18537760734E+04  0.19200000000E+03 0.  0.
<mgrwt>
<rscale>  0 0.44687814E+03</rscale>
<asrwt>0</asrwt>
<pdfrwt beam="1">  1        2 0.42364859E+00 0.44687814E+03</pdfrwt>
<pdfrwt beam="2">  1       -2 0.24050072E-02 0.44687814E+03</pdfrwt>
<totfact> 0.16726234E+03</totfact>
</mgrwt>
</event>
<event>
 4    1  0.5455400E-005  0.5762069E+03  0.7818608E-02  0.9956037E-01
          2   -1    0    0  501    0  0.00000000000E+00  0.00000000000E+00  0.23198833140E+03  0.23198833142E+03  0.25500000000E-02 0.  1.
         -2   -1    0    0    0  501 -0.00000000000E+00 -0.00000000000E+00 -0.35779210567E+03  0.35779210568E+03  0.25500000000E-02 0. -1.
    5000001    1    1    2    0    0  0.18948800378E+03 -0.73277189591E+02 -0.13428969355E+03  0.31011767425E+03  0.19200000000E+03 0.  0.
   -5000001    1    1    2    0    0 -0.18948800378E+03  0.73277189591E+02  0.84859192859E+01  0.27966276284E+03  0.19200000000E+03 0.  0.
<mgrwt>
<rscale>  0 0.57620689E+03</rscale>
<asrwt>0</asrwt>
<pdfrwt beam="1">  1        2 0.33141190E-01 0.57620689E+03</pdfrwt>
<pdfrwt beam="2">  1       -2 0.51113158E-01 0.57620689E+03</pdfrwt>
<totfact> 0.57944631E+02</totfact>
</mgrwt>
</event>
<event>
 4    1  0.5455400E-005  0.4361792E+03  0.7818608E-02  0.1031926E+00
          2   -1    0    0  501    0  0.00000000000E+00  0.00000000000E+00  0.11692211766E+04  0.11692211766E+04  0.25500000000E-02 0.  1.
         -2   -1    0    0    0  501 -0.00000000000E+00 -0.00000000000E+00 -0.40679286838E+02  0.40679286918E+02  0.25500000000E-02 0. -1.
    5000001    1    1    2    0    0  0.67503742575E+02 -0.57400025168E+02  0.41625056704E+03  0.46688333951E+03  0.19200000000E+03 0.  0.
   -5000001    1    1    2    0    0 -0.67503742575E+02  0.57400025168E+02  0.71229132273E+03  0.74301712402E+03  0.19200000000E+03 0.  0.
<mgrwt>
<rscale>  0 0.43617925E+03</rscale>
<asrwt>0</asrwt>
<pdfrwt beam="1">  1        2 0.16703158E+00 0.43617925E+03</pdfrwt>
<pdfrwt beam="2">  1       -2 0.58113272E-02 0.43617925E+03</pdfrwt>
<totfact> 0.36380586E+03</totfact>
</mgrwt>
</event>
<event>
 4    1  0.5455400E-005  0.4488104E+03  0.7818608E-02  0.1028077E+00
         -2   -1    0    0    0  501 -0.00000000000E+00  0.00000000000E+00  0.12386759981E+04  0.12386759981E+04  0.25500000000E-02 0. -1.
          2   -1    0    0  501    0  0.00000000000E+00 -0.00000000000E+00 -0.40654452909E+02  0.40654452989E+02  0.25500000000E-02 0.  1.
    5000001    1    1    2    0    0  0.94999400918E+02 -0.58902149609E+02  0.68912174790E+03  0.72404912322E+03  0.19200000000E+03 0.  0.
   -5000001    1    1    2    0    0 -0.94999400918E+02  0.58902149609E+02  0.50889979731E+03  0.55528132789E+03  0.19200000000E+03 0.  0.
<mgrwt>
<rscale>  0 0.44881041E+03</rscale>
<asrwt>0</asrwt>
<pdfrwt beam="1">  1        2 0.58077799E-02 0.44881041E+03</pdfrwt>
<pdfrwt beam="2">  1       -2 0.17695369E+00 0.44881041E+03</pdfrwt>
<totfact> 0.26306342E+02</totfact>
</mgrwt>
</event>
<event>
 4    1  0.5455400E-005  0.6449206E+03  0.7818608E-02  0.9816357E-01
         -2   -1    0    0    0  501 -0.00000000000E+00  0.00000000000E+00  0.76041014945E+02  0.76041014987E+02  0.25500000000E-02 0. -1.
          2   -1    0    0  501    0  0.00000000000E+00 -0.00000000000E+00 -0.13674283641E+04  0.13674283641E+04  0.25500000000E-02 0.  1.
    5000001    1    1    2    0    0  0.24920355790E+03  0.63080806977E+02 -0.57368584212E+03  0.65731350734E+03  0.19200000000E+03 0.  0.
   -5000001    1    1    2    0    0 -0.24920355790E+03 -0.63080806977E+02 -0.71770150699E+03  0.78615587170E+03  0.19200000000E+03 0.  0.
<mgrwt>
<rscale>  0 0.64492059E+03</rscale>
<asrwt>0</asrwt>
<pdfrwt beam="1">  1        2 0.19534689E+00 0.64492059E+03</pdfrwt>
<pdfrwt beam="2">  1       -2 0.10863003E-01 0.64492059E+03</pdfrwt>
<totfact> 0.10444728E+03</totfact>
</mgrwt>
</event>
<event>
 4    1  0.5455400E-005  0.4952432E+03  0.7818608E-02  0.1015028E+00
          2   -1    0    0  501    0  0.00000000000E+00  0.00000000000E+00  0.95774568540E+02  0.95774568574E+02  0.25500000000E-02 0.  1.
         -2   -1    0    0    0  501 -0.00000000000E+00 -0.00000000000E+00 -0.64021655846E+03  0.64021655846E+03  0.25500000000E-02 0. -1.
    5000001    1    1    2    0    0  0.80520315928E+02  0.10714153859E+03 -0.15250170423E+03  0.27943442945E+03  0.19200000000E+03 0.  0.
   -5000001    1    1    2    0    0 -0.80520315928E+02 -0.10714153859E+03 -0.39194028568E+03  0.45655669759E+03  0.19200000000E+03 0.  0.
<mgrwt>
<rscale>  0 0.49524323E+03</rscale>
<asrwt>0</asrwt>
<pdfrwt beam="1">  1        2 0.13682082E-01 0.49524323E+03</pdfrwt>
<pdfrwt beam="2">  1       -2 0.91459506E-01 0.49524323E+03</pdfrwt>
<totfact> 0.46126691E+02</totfact>
</mgrwt>
</event>
<event>
 4    1  0.5455400E-005  0.4876028E+03  0.7818608E-02  0.1017066E+00
         -2   -1    0    0    0  501 -0.00000000000E+00  0.00000000000E+00  0.59667134334E+02  0.59667134388E+02  0.25500000000E-02 0. -1.
          2   -1    0    0  501    0  0.00000000000E+00 -0.00000000000E+00 -0.99617850876E+03  0.99617850877E+03  0.25500000000E-02 0.  1.
    5000001    1    1    2    0    0 -0.55564177333E+02 -0.12421800120E+03 -0.60618937242E+03  0.65026690279E+03  0.19200000000E+03 0.  0.
   -5000001    1    1    2    0    0  0.55564177333E+02  0.12421800120E+03 -0.33032200201E+03  0.40557874036E+03  0.19200000000E+03 0.  0.
<mgrwt>
<rscale>  0 0.48760278E+03</rscale>
<asrwt>0</asrwt>
<pdfrwt beam="1">  1        2 0.14231121E+00 0.48760278E+03</pdfrwt>
<pdfrwt beam="2">  1       -2 0.85238770E-02 0.48760278E+03</pdfrwt>
<totfact> 0.25126242E+03</totfact>
</mgrwt>
</event>
<event>
 4    1  0.5455400E-005  0.7261003E+03  0.7818608E-02  0.9673610E-01
         -2   -1    0    0    0  501 -0.00000000000E+00  0.00000000000E+00  0.79631965380E+02  0.79631965420E+02  0.25500000000E-02 0.  1.
          2   -1    0    0  501    0  0.00000000000E+00 -0.00000000000E+00 -0.16551821847E+04  0.16551821847E+04  0.25500000000E-02 0. -1.
    5000001    1    1    2    0    0  0.17355917241E+03  0.12815893199E+03 -0.26217952560E+03  0.39006358689E+03  0.19200000000E+03 0.  0.
   -5000001    1    1    2    0    0 -0.17355917241E+03 -0.12815893199E+03 -0.13133706937E+04  0.13447505632E+04  0.19200000000E+03 0.  0.
<mgrwt>
<rscale>  0 0.72610030E+03</rscale>
<asrwt>0</asrwt>
<pdfrwt beam="1">  1        2 0.23645458E+00 0.72610030E+03</pdfrwt>
<pdfrwt beam="2">  1       -2 0.11375996E-01 0.72610030E+03</pdfrwt>
<totfact> 0.68204259E+02</totfact>
</mgrwt>
</event>
<event>
 4    1  0.5455400E-005  0.4985732E+03  0.7818608E-02  0.1014152E+00
          2   -1    0    0  501    0  0.00000000000E+00  0.00000000000E+00  0.55521966017E+03  0.55521966018E+03  0.25500000000E-02 0.  1.
         -2   -1    0    0    0  501 -0.00000000000E+00 -0.00000000000E+00 -0.11192654313E+03  0.11192654316E+03  0.25500000000E-02 0. -1.
    5000001    1    1    2    0    0 -0.25951692288E+02  0.15684834626E+03  0.22461559603E+03  0.33554591346E+03  0.19200000000E+03 0.  0.
   -5000001    1    1    2    0    0  0.25951692288E+02 -0.15684834626E+03  0.21867752101E+03  0.33160028988E+03  0.19200000000E+03 0.  0.
<mgrwt>
<rscale>  0 0.49857323E+03</rscale>
<asrwt>0</asrwt>
<pdfrwt beam="1">  1        2 0.79317094E-01 0.49857323E+03</pdfrwt>
<pdfrwt beam="2">  1       -2 0.15989506E-01 0.49857323E+03</pdfrwt>
<totfact> 0.18616523E+03</totfact>
</mgrwt>
</event>
<event>
 4    1  0.5455400E-005  0.4796868E+03  0.7818608E-02  0.1019221E+00
          2   -1    0    0  501    0  0.00000000000E+00  0.00000000000E+00  0.19015051090E+03  0.19015051092E+03  0.25500000000E-02 0.  1.
         -2   -1    0    0    0  501 -0.00000000000E+00 -0.00000000000E+00 -0.30252281498E+03  0.30252281499E+03  0.25500000000E-02 0. -1.
    5000001    1    1    2    0    0  0.12505167007E+03 -0.68251035426E+02 -0.75801463328E+02  0.25081065740E+03  0.19200000000E+03 0.  0.
   -5000001    1    1    2    0    0 -0.12505167007E+03  0.68251035426E+02 -0.36570840743E+02  0.24186266851E+03  0.19200000000E+03 0.  0.
<mgrwt>
<rscale>  0 0.47968685E+03</rscale>
<asrwt>0</asrwt>
<pdfrwt beam="1">  1        2 0.27164359E-01 0.47968685E+03</pdfrwt>
<pdfrwt beam="2">  1       -2 0.43217545E-01 0.47968685E+03</pdfrwt>
<totfact> 0.10127116E+03</totfact>
</mgrwt>
</event>
<event>
 4    1  0.5455400E-005  0.5486145E+03  0.7818608E-02  0.1001815E+00
         -2   -1    0    0    0  501 -0.00000000000E+00  0.00000000000E+00  0.16371012685E+03  0.16371012687E+03  0.25500000000E-02 0. -1.
          2   -1    0    0  501    0  0.00000000000E+00 -0.00000000000E+00 -0.45962003233E+03  0.45962003234E+03  0.25500000000E-02 0.  1.
    5000001    1    1    2    0    0  0.15889413886E+03 -0.11455315241E+03 -0.15166834896E+03  0.31342791862E+03  0.19200000000E+03 0.  0.
   -5000001    1    1    2    0    0 -0.15889413886E+03  0.11455315241E+03 -0.14424155652E+03  0.30990224059E+03  0.19200000000E+03 0.  0.
<mgrwt>
<rscale>  0 0.54861445E+03</rscale>
<asrwt>0</asrwt>
<pdfrwt beam="1">  1        2 0.65660004E-01 0.54861445E+03</pdfrwt>
<pdfrwt beam="2">  1       -2 0.23387161E-01 0.54861445E+03</pdfrwt>
<totfact> 0.11951910E+03</totfact>
</mgrwt>
</event>
<event>
 4    1  0.5455400E-005  0.5436307E+03  0.7818608E-02  0.1002979E+00
         -2   -1    0    0    0  501 -0.00000000000E+00  0.00000000000E+00  0.47287598666E+02  0.47287598735E+02  0.25500000000E-02 0. -1.
          2   -1    0    0  501    0  0.00000000000E+00 -0.00000000000E+00 -0.15624304799E+04  0.15624304799E+04  0.25500000000E-02 0.  1.
    5000001    1    1    2    0    0  0.17689425972E+02  0.18221745660E+03 -0.58230654546E+03  0.63989142060E+03  0.19200000000E+03 0.  0.
   -5000001    1    1    2    0    0 -0.17689425972E+02 -0.18221745660E+03 -0.93283633576E+03  0.96982665802E+03  0.19200000000E+03 0.  0.
<mgrwt>
<rscale>  0 0.54363070E+03</rscale>
<asrwt>0</asrwt>
<pdfrwt beam="1">  1        2 0.22320432E+00 0.54363070E+03</pdfrwt>
<pdfrwt beam="2">  1       -2 0.67553722E-02 0.54363070E+03</pdfrwt>
<totfact> 0.17726467E+03</totfact>
</mgrwt>
</event>
<event>
 4    1  0.5455400E-005  0.4781470E+03  0.7818608E-02  0.1019646E+00
         -2   -1    0    0    0  501 -0.00000000000E+00  0.00000000000E+00  0.27699462175E+02  0.27699462293E+02  0.25500000000E-02 0. -1.
          2   -1    0    0  501    0  0.00000000000E+00 -0.00000000000E+00 -0.20634385955E+04  0.20634385955E+04  0.25500000000E-02 0.  1.
    5000001    1    1    2    0    0 -0.12937484209E+03 -0.40689845003E+02 -0.82730550460E+03  0.86005343508E+03  0.19200000000E+03 0.  0.
   -5000001    1    1    2    0    0  0.12937484209E+03  0.40689845003E+02 -0.12084336287E+04  0.12310846227E+04  0.19200000000E+03 0.  0.
<mgrwt>
<rscale>  0 0.47814700E+03</rscale>
<asrwt>0</asrwt>
<pdfrwt beam="1">  1        2 0.29477685E+00 0.47814700E+03</pdfrwt>
<pdfrwt beam="2">  1       -2 0.39570673E-02 0.47814700E+03</pdfrwt>
<totfact> 0.22764136E+03</totfact>
</mgrwt>
</event>
<event>
 4    1  0.5455400E-005  0.4511771E+03  0.7818608E-02  0.1027372E+00
          2   -1    0    0  501    0  0.00000000000E+00  0.00000000000E+00  0.15924856469E+04  0.15924856469E+04  0.25500000000E-02 0.  1.
         -2   -1    0    0    0  501 -0.00000000000E+00 -0.00000000000E+00 -0.31956452169E+02  0.31956452271E+02  0.25500000000E-02 0. -1.
    5000001    1    1    2    0    0 -0.11508409009E+03  0.13481476940E+02  0.86846420479E+03  0.89695048527E+03  0.19200000000E+03 0.  0.
   -5000001    1    1    2    0    0  0.11508409009E+03 -0.13481476940E+02  0.69206498997E+03  0.72749161394E+03  0.19200000000E+03 0.  0.
<mgrwt>
<rscale>  0 0.45117709E+03</rscale>
<asrwt>0</asrwt>
<pdfrwt beam="1">  1        2 0.22749796E+00 0.45117709E+03</pdfrwt>
<pdfrwt beam="2">  1       -2 0.45652072E-02 0.45117709E+03</pdfrwt>
<totfact> 0.31509288E+03</totfact>
</mgrwt>
</event>
<event>
 4    1  0.5455400E-005  0.1021629E+04  0.7818608E-02  0.9285136E-01
         -2   -1    0    0    0  501 -0.00000000000E+00  0.00000000000E+00  0.14743650426E+03  0.14743650428E+03  0.25500000000E-02 0. -1.
          2   -1    0    0  501    0  0.00000000000E+00 -0.00000000000E+00 -0.17697880961E+04  0.17697880961E+04  0.25500000000E-02 0.  1.
    5000001    1    1    2    0    0 -0.44764817173E+03  0.14022608738E+03 -0.69226272400E+03  0.85798829845E+03  0.19200000000E+03 0.  0.
   -5000001    1    1    2    0    0  0.44764817173E+03 -0.14022608738E+03 -0.93008886781E+03  0.10592363019E+04  0.19200000000E+03 0.  0.
<mgrwt>
<rscale>  0 0.10216288E+04</rscale>
<asrwt>0</asrwt>
<pdfrwt beam="1">  1        2 0.25282686E+00 0.10216288E+04</pdfrwt>
<pdfrwt beam="2">  1       -2 0.21062359E-01 0.10216288E+04</pdfrwt>
<totfact> 0.20511019E+02</totfact>
</mgrwt>
</event>
<event>
 4    1  0.5455400E-005  0.9764729E+03  0.7818608E-02  0.9334732E-01
         -2   -1    0    0    0  501 -0.00000000000E+00  0.00000000000E+00  0.13480933844E+03  0.13480933847E+03  0.25500000000E-02 0. -1.
          2   -1    0    0  501    0  0.00000000000E+00 -0.00000000000E+00 -0.17682368699E+04  0.17682368699E+04  0.25500000000E-02 0.  1.
    5000001    1    1    2    0    0 -0.35309942958E+03 -0.21479556564E+03 -0.11581577090E+04  0.12445921505E+04  0.19200000000E+03 0.  0.
   -5000001    1    1    2    0    0  0.35309942958E+03  0.21479556564E+03 -0.47526982250E+03  0.65845405790E+03  0.19200000000E+03 0.  0.
<mgrwt>
<rscale>  0 0.97647292E+03</rscale>
<asrwt>0</asrwt>
<pdfrwt beam="1">  1        2 0.25260525E+00 0.97647292E+03</pdfrwt>
<pdfrwt beam="2">  1       -2 0.19258478E-01 0.97647292E+03</pdfrwt>
<totfact> 0.24119954E+02</totfact>
</mgrwt>
</event>
<event>
 4    1  0.5455400E-005  0.5850958E+03  0.7818608E-02  0.9936819E-01
          2   -1    0    0  501    0  0.00000000000E+00  0.00000000000E+00  0.45526286609E+03  0.45526286609E+03  0.25500000000E-02 0.  1.
         -2   -1    0    0    0  501 -0.00000000000E+00 -0.00000000000E+00 -0.18798872611E+03  0.18798872613E+03  0.25500000000E-02 0. -1.
    5000001    1    1    2    0    0 -0.33830096415E+02  0.62671561788E+02 -0.96049953977E+02  0.22618972952E+03  0.19200000000E+03 0.  0.
   -5000001    1    1    2    0    0  0.33830096415E+02 -0.62671561788E+02  0.36332409395E+03  0.41706186271E+03  0.19200000000E+03 0.  0.
<mgrwt>
<rscale>  0 0.58509584E+03</rscale>
<asrwt>0</asrwt>
<pdfrwt beam="1">  1        2 0.65037551E-01 0.58509584E+03</pdfrwt>
<pdfrwt beam="2">  1       -2 0.26855533E-01 0.58509584E+03</pdfrwt>
<totfact> 0.94239054E+02</totfact>
</mgrwt>
</event>
<event>
 4    1  0.5455400E-005  0.5144843E+03  0.7818608E-02  0.1010066E+00
          2   -1    0    0  501    0  0.00000000000E+00  0.00000000000E+00  0.20520467955E+03  0.20520467957E+03  0.25500000000E-02 0.  1.
         -2   -1    0    0    0  501 -0.00000000000E+00 -0.00000000000E+00 -0.32247576409E+03  0.32247576410E+03  0.25500000000E-02 0. -1.
    5000001    1    1    2    0    0 -0.35581276112E+01 -0.17106582533E+03 -0.64559407427E+02  0.26515673470E+03  0.19200000000E+03 0.  0.
   -5000001    1    1    2    0    0  0.35581276112E+01  0.17106582533E+03 -0.52711677110E+02  0.26252370897E+03  0.19200000000E+03 0.  0.
<mgrwt>
<rscale>  0 0.51448435E+03</rscale>
<asrwt>0</asrwt>
<pdfrwt beam="1">  1        2 0.29314954E-01 0.51448435E+03</pdfrwt>
<pdfrwt beam="2">  1       -2 0.46067966E-01 0.51448435E+03</pdfrwt>
<totfact> 0.81949241E+02</totfact>
</mgrwt>
</event>
<event>
 4    1  0.5455400E-005  0.4296232E+03  0.7818608E-02  0.1033979E+00
         -2   -1    0    0    0  501 -0.00000000000E+00  0.00000000000E+00  0.38324125790E+02  0.38324125875E+02  0.25500000000E-02 0. -1.
          2   -1    0    0  501    0  0.00000000000E+00 -0.00000000000E+00 -0.12040461983E+04  0.12040461983E+04  0.25500000000E-02 0.  1.
    5000001    1    1    2    0    0 -0.84986575902E+02 -0.40179147785E+02 -0.64372130498E+03  0.67829064603E+03  0.19200000000E+03 0.  0.
   -5000001    1    1    2    0    0  0.84986575902E+02  0.40179147785E+02 -0.52200076749E+03  0.56407967811E+03  0.19200000000E+03 0.  0.
<mgrwt>
<rscale>  0 0.42962317E+03</rscale>
<asrwt>0</asrwt>
<pdfrwt beam="1">  1        2 0.17200658E+00 0.42962317E+03</pdfrwt>
<pdfrwt beam="2">  1       -2 0.54748759E-02 0.42962317E+03</pdfrwt>
<totfact> 0.38157677E+03</totfact>
</mgrwt>
</event>
<event>
 4    1  0.5455400E-005  0.5302600E+03  0.7818608E-02  0.1006169E+00
         -2   -1    0    0    0  501 -0.00000000000E+00  0.00000000000E+00  0.92812154767E+02  0.92812154802E+02  0.25500000000E-02 0. -1.
          2   -1    0    0  501    0  0.00000000000E+00 -0.00000000000E+00 -0.75737825375E+03  0.75737825375E+03  0.25500000000E-02 0.  1.
    5000001    1    1    2    0    0  0.62472173491E+02 -0.13373653449E+03 -0.15928743646E+03  0.28987017876E+03  0.19200000000E+03 0.  0.
   -5000001    1    1    2    0    0 -0.62472173491E+02  0.13373653449E+03 -0.50527866253E+03  0.56032022980E+03  0.19200000000E+03 0.  0.
<mgrwt>
<rscale>  0 0.53025997E+03</rscale>
<asrwt>0</asrwt>
<pdfrwt beam="1">  1        2 0.10819689E+00 0.53025997E+03</pdfrwt>
<pdfrwt beam="2">  1       -2 0.13258880E-01 0.53025997E+03</pdfrwt>
<totfact> 0.17573987E+03</totfact>
</mgrwt>
</event>
<event>
 4    1  0.5455400E-005  0.5319368E+03  0.7818608E-02  0.1005764E+00
          2   -1    0    0  501    0  0.00000000000E+00  0.00000000000E+00  0.27439551159E+04  0.27439551159E+04  0.25500000000E-02 0. -1.
         -2   -1    0    0    0  501 -0.00000000000E+00 -0.00000000000E+00 -0.25780009733E+02  0.25780009859E+02  0.25500000000E-02 0.  1.
    5000001    1    1    2    0    0  0.15547178602E+03 -0.32357744982E+02  0.87463178422E+03  0.90943018307E+03  0.19200000000E+03 0.  0.
   -5000001    1    1    2    0    0 -0.15547178602E+03  0.32357744982E+02  0.18435433220E+04  0.18603049427E+04  0.19200000000E+03 0.  0.
<mgrwt>
<rscale>  0 0.53193680E+03</rscale>
<asrwt>0</asrwt>
<pdfrwt beam="1">  1        2 0.39199360E+00 0.53193680E+03</pdfrwt>
<pdfrwt beam="2">  1       -2 0.36828584E-02 0.53193680E+03</pdfrwt>
<totfact> 0.11423151E+03</totfact>
</mgrwt>
</event>
<event>
 4    1  0.5455400E-005  0.5410880E+03  0.7818608E-02  0.1003578E+00
         -2   -1    0    0    0  501 -0.00000000000E+00  0.00000000000E+00  0.16851155548E+03  0.16851155550E+03  0.25500000000E-02 0. -1.
          2   -1    0    0  501    0  0.00000000000E+00 -0.00000000000E+00 -0.43435625794E+03  0.43435625794E+03  0.25500000000E-02 0.  1.
    5000001    1    1    2    0    0 -0.62463287978E+02  0.10359262347E+03 -0.29703936572E+03  0.37380406468E+03  0.19200000000E+03 0.  0.
   -5000001    1    1    2    0    0  0.62463287978E+02 -0.10359262347E+03  0.31194663268E+02  0.22906374877E+03  0.19200000000E+03 0.  0.
<mgrwt>
<rscale>  0 0.54108797E+03</rscale>
<asrwt>0</asrwt>
<pdfrwt beam="1">  1        2 0.62050894E-01 0.54108797E+03</pdfrwt>
<pdfrwt beam="2">  1       -2 0.24073080E-01 0.54108797E+03</pdfrwt>
<totfact> 0.12094248E+03</totfact>
</mgrwt>
</event>
<event>
 4    1  0.5455400E-005  0.6866926E+03  0.7818608E-02  0.9740264E-01
          2   -1    0    0  501    0  0.00000000000E+00  0.00000000000E+00  0.22183831553E+04  0.22183831553E+04  0.25500000000E-02 0.  1.
         -2   -1    0    0    0  501 -0.00000000000E+00 -0.00000000000E+00 -0.53140809191E+02  0.53140809253E+02  0.25500000000E-02 0. -1.
    5000001    1    1    2    0    0 -0.26841274874E+02  0.26400330232E+03  0.14232642926E+04  0.14604668583E+04  0.19200000000E+03 0.  0.
   -5000001    1    1    2    0    0  0.26841274874E+02 -0.26400330232E+03  0.74197805350E+03  0.81105710622E+03  0.19200000000E+03 0.  0.
<mgrwt>
<rscale>  0 0.68669258E+03</rscale>
<asrwt>0</asrwt>
<pdfrwt beam="1">  1        2 0.31691189E+00 0.68669258E+03</pdfrwt>
<pdfrwt beam="2">  1       -2 0.75915440E-02 0.68669258E+03</pdfrwt>
<totfact> 0.68144989E+02</totfact>
</mgrwt>
</event>
<event>
 4    1  0.5455400E-005  0.6927098E+03  0.7818608E-02  0.9729781E-01
          2   -1    0    0  501    0  0.00000000000E+00  0.00000000000E+00  0.61671839248E+03  0.61671839249E+03  0.25500000000E-02 0.  1.
         -2   -1    0    0    0  501 -0.00000000000E+00 -0.00000000000E+00 -0.19451619668E+03  0.19451619670E+03  0.25500000000E-02 0. -1.
    5000001    1    1    2    0    0  0.52463720872E+02 -0.28342861802E+03  0.20679936722E+03  0.40337848456E+03  0.19200000000E+03 0.  0.
   -5000001    1    1    2    0    0 -0.52463720872E+02  0.28342861802E+03  0.21540282858E+03  0.40785610463E+03  0.19200000000E+03 0.  0.
<mgrwt>
<rscale>  0 0.69270980E+03</rscale>
<asrwt>0</asrwt>
<pdfrwt beam="1">  1        2 0.88102626E-01 0.69270980E+03</pdfrwt>
<pdfrwt beam="2">  1       -2 0.27788028E-01 0.69270980E+03</pdfrwt>
<totfact> 0.62292088E+02</totfact>
</mgrwt>
</event>
<event>
 4    1  0.5455400E-005  0.7640421E+03  0.7818608E-02  0.9613574E-01
          2   -1    0    0  501    0  0.00000000000E+00  0.00000000000E+00  0.19343428987E+04  0.19343428987E+04  0.25500000000E-02 0.  1.
         -2   -1    0    0    0  501 -0.00000000000E+00 -0.00000000000E+00 -0.75446860508E+02  0.75446860551E+02  0.25500000000E-02 0. -1.
    5000001    1    1    2    0    0  0.87451660936E+02 -0.29378655932E+03  0.60602041162E+03  0.70575000867E+03  0.19200000000E+03 0.  0.
   -5000001    1    1    2    0    0 -0.87451660936E+02  0.29378655932E+03  0.12528756265E+04  0.13040397506E+04  0.19200000000E+03 0.  0.
<mgrwt>
<rscale>  0 0.76404214E+03</rscale>
<asrwt>0</asrwt>
<pdfrwt beam="1">  1        2 0.27633467E+00 0.76404214E+03</pdfrwt>
<pdfrwt beam="2">  1       -2 0.10778124E-01 0.76404214E+03</pdfrwt>
<totfact> 0.53599096E+02</totfact>
</mgrwt>
</event>
<event>
 4    1  0.5455400E-005  0.4190389E+03  0.7818608E-02  0.1037380E+00
         -2   -1    0    0    0  501 -0.00000000000E+00  0.00000000000E+00  0.10327693258E+04  0.10327693258E+04  0.25500000000E-02 0. -1.
          2   -1    0    0  501    0  0.00000000000E+00 -0.00000000000E+00 -0.42505520629E+02  0.42505520706E+02  0.25500000000E-02 0.  1.
    5000001    1    1    2    0    0 -0.78115630586E+02 -0.28713420535E+02  0.52178495927E+03  0.56218329394E+03  0.19200000000E+03 0.  0.
   -5000001    1    1    2    0    0  0.78115630586E+02  0.28713420535E+02  0.46847884585E+03  0.51309155252E+03  0.19200000000E+03 0.  0.
<mgrwt>
<rscale>  0 0.41903889E+03</rscale>
<asrwt>0</asrwt>
<pdfrwt beam="1">  1        2 0.60722182E-02 0.41903889E+03</pdfrwt>
<pdfrwt beam="2">  1       -2 0.14753845E+00 0.41903889E+03</pdfrwt>
<totfact> 0.40430249E+02</totfact>
</mgrwt>
</event>
<event>
 4    1  0.5455400E-005  0.5085015E+03  0.7818608E-02  0.1011583E+00
          2   -1    0    0  501    0  0.00000000000E+00  0.00000000000E+00  0.27257080194E+03  0.27257080195E+03  0.25500000000E-02 0.  1.
         -2   -1    0    0    0  501 -0.00000000000E+00 -0.00000000000E+00 -0.23716205287E+03  0.23716205288E+03  0.25500000000E-02 0. -1.
    5000001    1    1    2    0    0  0.54922250212E+01 -0.16549632559E+03  0.36730657158E+02  0.25618809398E+03  0.19200000000E+03 0.  0.
   -5000001    1    1    2    0    0 -0.54922250212E+01  0.16549632559E+03 -0.13219080877E+01  0.25354476086E+03  0.19200000000E+03 0.  0.
<mgrwt>
<rscale>  0 0.50850153E+03</rscale>
<asrwt>0</asrwt>
<pdfrwt beam="1">  1        2 0.38938686E-01 0.50850153E+03</pdfrwt>
<pdfrwt beam="2">  1       -2 0.33880293E-01 0.50850153E+03</pdfrwt>
<totfact> 0.10824196E+03</totfact>
</mgrwt>
</event>
<event>
 4    1  0.5455400E-005  0.4970419E+03  0.7818608E-02  0.1014554E+00
         -2   -1    0    0    0  501 -0.00000000000E+00  0.00000000000E+00  0.65894534301E+02  0.65894534350E+02  0.25500000000E-02 0. -1.
          2   -1    0    0  501    0  0.00000000000E+00 -0.00000000000E+00 -0.93729584069E+03  0.93729584069E+03  0.25500000000E-02 0.  1.
    5000001    1    1    2    0    0 -0.64711563595E+02 -0.12417538074E+03 -0.58251964437E+03  0.62912657528E+03  0.19200000000E+03 0.  0.
   -5000001    1    1    2    0    0  0.64711563595E+02  0.12417538074E+03 -0.28888166202E+03  0.37406379976E+03  0.19200000000E+03 0.  0.
<mgrwt>
<rscale>  0 0.49704194E+03</rscale>
<asrwt>0</asrwt>
<pdfrwt beam="1">  1        2 0.13389940E+00 0.49704194E+03</pdfrwt>
<pdfrwt beam="2">  1       -2 0.94135055E-02 0.49704194E+03</pdfrwt>
<totfact> 0.23303912E+03</totfact>
</mgrwt>
</event>
<event>
 4    1  0.5455400E-005  0.6372028E+03  0.7818608E-02  0.9831093E-01
          2   -1    0    0  501    0  0.00000000000E+00  0.00000000000E+00  0.70069557330E+03  0.70069557331E+03  0.25500000000E-02 0.  1.
         -2   -1    0    0    0  501 -0.00000000000E+00 -0.00000000000E+00 -0.14486582356E+03  0.14486582358E+03  0.25500000000E-02 0. -1.
    5000001    1    1    2    0    0  0.43725950611E+02 -0.19009382212E+03  0.49432087583E+03  0.56503517435E+03  0.19200000000E+03 0.  0.
   -5000001    1    1    2    0    0 -0.43725950611E+02  0.19009382212E+03  0.61508873914E+02  0.28052622254E+03  0.19200000000E+03 0.  0.
<mgrwt>
<rscale>  0 0.63720277E+03</rscale>
<asrwt>0</asrwt>
<pdfrwt beam="1">  1        2 0.10009937E+00 0.63720277E+03</pdfrwt>
<pdfrwt beam="2">  1       -2 0.20695117E-01 0.63720277E+03</pdfrwt>
<totfact> 0.90575877E+02</totfact>
</mgrwt>
</event>
<event>
 4    1  0.5455400E-005  0.7206974E+03  0.7818608E-02  0.9682477E-01
         -2   -1    0    0    0  501 -0.00000000000E+00  0.00000000000E+00  0.70955791734E+02  0.70955791779E+02  0.25500000000E-02 0. -1.
          2   -1    0    0  501    0  0.00000000000E+00 -0.00000000000E+00 -0.18300293925E+04  0.18300293925E+04  0.25500000000E-02 0.  1.
    5000001    1    1    2    0    0  0.76728017796E+02  0.17249017364E+03 -0.24787931868E+03  0.36598935141E+03  0.19200000000E+03 0.  0.
   -5000001    1    1    2    0    0 -0.76728017796E+02 -0.17249017364E+03 -0.15111942821E+04  0.15349958329E+04  0.19200000000E+03 0.  0.
<mgrwt>
<rscale>  0 0.72069740E+03</rscale>
<asrwt>0</asrwt>
<pdfrwt beam="1">  1        2 0.26143274E+00 0.72069740E+03</pdfrwt>
<pdfrwt beam="2">  1       -2 0.10136543E-01 0.72069740E+03</pdfrwt>
<totfact> 0.67093510E+02</totfact>
</mgrwt>
</event>
<event>
 4    1  0.5455400E-005  0.4828174E+03  0.7818608E-02  0.1018364E+00
         -2   -1    0    0    0  501 -0.00000000000E+00  0.00000000000E+00  0.64786022513E+03  0.64786022514E+03  0.25500000000E-02 0. -1.
          2   -1    0    0  501    0  0.00000000000E+00 -0.00000000000E+00 -0.89954839052E+02  0.89954839088E+02  0.25500000000E-02 0.  1.
    5000001    1    1    2    0    0 -0.93570775183E+02 -0.65116416056E+02  0.41916385650E+03  0.47492944340E+03  0.19200000000E+03 0.  0.
   -5000001    1    1    2    0    0  0.93570775183E+02  0.65116416056E+02  0.13874152958E+03  0.26288562083E+03  0.19200000000E+03 0.  0.
<mgrwt>
<rscale>  0 0.48281741E+03</rscale>
<asrwt>0</asrwt>
<pdfrwt beam="1">  1        2 0.12850691E-01 0.48281741E+03</pdfrwt>
<pdfrwt beam="2">  1       -2 0.92551463E-01 0.48281741E+03</pdfrwt>
<totfact> 0.48465804E+02</totfact>
</mgrwt>
</event>
<event>
 4    1  0.5455400E-005  0.7041079E+03  0.7818608E-02  0.9710233E-01
          2   -1    0    0  501    0  0.00000000000E+00  0.00000000000E+00  0.73435212756E+03  0.73435212756E+03  0.25500000000E-02 0.  1.
         -2   -1    0    0    0  501 -0.00000000000E+00 -0.00000000000E+00 -0.16877731251E+03  0.16877731253E+03  0.25500000000E-02 0. -1.
    5000001    1    1    2    0    0  0.17088066537E+03  0.39978119618E+02  0.58707623713E+03  0.64212223139E+03  0.19200000000E+03 0.  0.
   -5000001    1    1    2    0    0 -0.17088066537E+03 -0.39978119618E+02 -0.21501422082E+02  0.26100720870E+03  0.19200000000E+03 0.  0.
<mgrwt>
<rscale>  0 0.70410789E+03</rscale>
<asrwt>0</asrwt>
<pdfrwt beam="1">  1        2 0.10490745E+00 0.70410789E+03</pdfrwt>
<pdfrwt beam="2">  1       -2 0.24111044E-01 0.70410789E+03</pdfrwt>
<totfact> 0.65102874E+02</totfact>
</mgrwt>
</event>
<event>
 4    1  0.5455400E-005  0.6685504E+03  0.7818608E-02  0.9772580E-01
         -2   -1    0    0    0  501 -0.00000000000E+00  0.00000000000E+00  0.78411824034E+02  0.78411824075E+02  0.25500000000E-02 0. -1.
          2   -1    0    0  501    0  0.00000000000E+00 -0.00000000000E+00 -0.14250392282E+04  0.14250392282E+04  0.25500000000E-02 0.  1.
    5000001    1    1    2    0    0 -0.16486747254E+03  0.21474211021E+03 -0.76271584727E+03  0.83180221272E+03  0.19200000000E+03 0.  0.
   -5000001    1    1    2    0    0  0.16486747254E+03 -0.21474211021E+03 -0.58391155686E+03  0.67164883953E+03  0.19200000000E+03 0.  0.
<mgrwt>
<rscale>  0 0.66855045E+03</rscale>
<asrwt>0</asrwt>
<pdfrwt beam="1">  1        2 0.20357702E+00 0.66855045E+03</pdfrwt>
<pdfrwt beam="2">  1       -2 0.11201690E-01 0.66855045E+03</pdfrwt>
<totfact> 0.92459578E+02</totfact>
</mgrwt>
</event>
<event>
 4    1  0.5455400E-005  0.5403305E+03  0.7818608E-02  0.1003757E+00
          2   -1    0    0  501    0  0.00000000000E+00  0.00000000000E+00  0.44483301146E+03  0.44483301147E+03  0.25500000000E-02 0.  1.
         -2   -1    0    0    0  501 -0.00000000000E+00 -0.00000000000E+00 -0.16408239007E+03  0.16408239009E+03  0.25500000000E-02 0. -1.
    5000001    1    1    2    0    0  0.13611716174E+03 -0.11147917752E+03  0.22140296970E+03  0.34181685701E+03  0.19200000000E+03 0.  0.
   -5000001    1    1    2    0    0 -0.13611716174E+03  0.11147917752E+03  0.59347651686E+02  0.26709854455E+03  0.19200000000E+03 0.  0.
<mgrwt>
<rscale>  0 0.54033051E+03</rscale>
<asrwt>0</asrwt>
<pdfrwt beam="1">  1        2 0.63547574E-01 0.54033051E+03</pdfrwt>
<pdfrwt beam="2">  1       -2 0.23440341E-01 0.54033051E+03</pdfrwt>
<totfact> 0.12348082E+03</totfact>
</mgrwt>
</event>
<event>
 4    1  0.5455400E-005  0.4896095E+03  0.7818608E-02  0.1016527E+00
         -2   -1    0    0    0  501 -0.00000000000E+00  0.00000000000E+00  0.10694620798E+03  0.10694620801E+03  0.25500000000E-02 0. -1.
          2   -1    0    0  501    0  0.00000000000E+00 -0.00000000000E+00 -0.56036930597E+03  0.56036930598E+03  0.25500000000E-02 0.  1.
    5000001    1    1    2    0    0  0.20807970805E+01 -0.10253735458E+03 -0.37938151948E+03  0.43739293104E+03  0.19200000000E+03 0.  0.
   -5000001    1    1    2    0    0 -0.20807970805E+01  0.10253735458E+03 -0.74041578517E+02  0.22992258295E+03  0.19200000000E+03 0.  0.
<mgrwt>
<rscale>  0 0.48960953E+03</rscale>
<asrwt>0</asrwt>
<pdfrwt beam="1">  1        2 0.80052756E-01 0.48960953E+03</pdfrwt>
<pdfrwt beam="2">  1       -2 0.15278030E-01 0.48960953E+03</pdfrwt>
<totfact> 0.19885022E+03</totfact>
</mgrwt>
</event>
<event>
 4    1  0.5455400E-005  0.1137745E+04  0.7818608E-02  0.9169165E-01
          2   -1    0    0  501    0  0.00000000000E+00  0.00000000000E+00  0.25023103944E+04  0.25023103944E+04  0.25500000000E-02 0.  1.
         -2   -1    0    0    0  501 -0.00000000000E+00 -0.00000000000E+00 -0.12932675417E+03  0.12932675419E+03  0.25500000000E-02 0. -1.
    5000001    1    1    2    0    0 -0.30739015181E+03 -0.43828539108E+03  0.12165515813E+04  0.13429238770E+04  0.19200000000E+03 0.  0.
   -5000001    1    1    2    0    0  0.30739015181E+03  0.43828539108E+03  0.11564320590E+04  0.12887132717E+04  0.19200000000E+03 0.  0.
<mgrwt>
<rscale>  0 0.11377446E+04</rscale>
<asrwt>0</asrwt>
<pdfrwt beam="1">  1        2 0.35747291E+00 0.11377446E+04</pdfrwt>
<pdfrwt beam="2">  1       -2 0.18475251E-01 0.11377446E+04</pdfrwt>
<totfact> 0.10755440E+02</totfact>
</mgrwt>
</event>
<event>
 4    1  0.5455400E-005  0.8137620E+03  0.7818608E-02  0.9540308E-01
         -2   -1    0    0    0  501 -0.00000000000E+00  0.00000000000E+00  0.14957828670E+03  0.14957828672E+03  0.25500000000E-02 0. -1.
          2   -1    0    0  501    0  0.00000000000E+00 -0.00000000000E+00 -0.11067926460E+04  0.11067926460E+04  0.25500000000E-02 0.  1.
    5000001    1    1    2    0    0 -0.10130148983E+03  0.33790879904E+03 -0.57918399959E+03  0.70481377235E+03  0.19200000000E+03 0.  0.
   -5000001    1    1    2    0    0  0.10130148983E+03 -0.33790879904E+03 -0.37803035974E+03  0.55155716041E+03  0.19200000000E+03 0.  0.
<mgrwt>
<rscale>  0 0.81376200E+03</rscale>
<asrwt>0</asrwt>
<pdfrwt beam="1">  1        2 0.15811323E+00 0.81376200E+03</pdfrwt>
<pdfrwt beam="2">  1       -2 0.21368327E-01 0.81376200E+03</pdfrwt>
<totfact> 0.46084462E+02</totfact>
</mgrwt>
</event>
<event>
 4    1  0.5455400E-005  0.4921953E+03  0.7818608E-02  0.1015836E+00
          2   -1    0    0  501    0  0.00000000000E+00  0.00000000000E+00  0.20583775661E+04  0.20583775661E+04  0.25500000000E-02 0.  1.
         -2   -1    0    0    0  501 -0.00000000000E+00 -0.00000000000E+00 -0.29423200870E+02  0.29423200980E+02  0.25500000000E-02 0. -1.
    5000001    1    1    2    0    0 -0.13071373716E+03  0.45493214021E+02  0.72852913517E+03  0.76601201975E+03  0.19200000000E+03 0.  0.
   -5000001    1    1    2    0    0  0.13071373716E+03 -0.45493214021E+02  0.13004252300E+04  0.13217887473E+04  0.19200000000E+03 0.  0.
<mgrwt>
<rscale>  0 0.49219531E+03</rscale>
<asrwt>0</asrwt>
<pdfrwt beam="1">  1        2 0.29405396E+00 0.49219531E+03</pdfrwt>
<pdfrwt beam="2">  1       -2 0.42033141E-02 0.49219531E+03</pdfrwt>
<totfact> 0.20864554E+03</totfact>
</mgrwt>
</event>
<event>
 4    1  0.5455400E-005  0.5270763E+03  0.7818608E-02  0.1006944E+00
          2   -1    0    0  501    0  0.00000000000E+00  0.00000000000E+00  0.73176381115E+03  0.73176381116E+03  0.25500000000E-02 0.  1.
         -2   -1    0    0    0  501 -0.00000000000E+00 -0.00000000000E+00 -0.94910902102E+02  0.94910902136E+02  0.25500000000E-02 0. -1.
    5000001    1    1    2    0    0  0.14910671196E+03  0.79416075085E+02  0.21862987272E+03  0.33645615729E+03  0.19200000000E+03 0.  0.
   -5000001    1    1    2    0    0 -0.14910671196E+03 -0.79416075085E+02  0.41822303633E+03  0.49021855600E+03  0.19200000000E+03 0.  0.
<mgrwt>
<rscale>  0 0.52707633E+03</rscale>
<asrwt>0</asrwt>
<pdfrwt beam="1">  1        2 0.10453769E+00 0.52707633E+03</pdfrwt>
<pdfrwt beam="2">  1       -2 0.13558700E-01 0.52707633E+03</pdfrwt>
<totfact> 0.17672789E+03</totfact>
</mgrwt>
</event>
<event>
 4    1  0.5455400E-005  0.5095010E+03  0.7818608E-02  0.1011328E+00
          2   -1    0    0  501    0  0.00000000000E+00  0.00000000000E+00  0.82228160703E+02  0.82228160742E+02  0.25500000000E-02 0.  1.
         -2   -1    0    0    0  501 -0.00000000000E+00 -0.00000000000E+00 -0.78924064189E+03  0.78924064190E+03  0.25500000000E-02 0. -1.
    5000001    1    1    2    0    0 -0.63908143671E+02 -0.13009971795E+03 -0.49685281213E+03  0.55202980387E+03  0.19200000000E+03 0.  0.
   -5000001    1    1    2    0    0  0.63908143671E+02  0.13009971795E+03 -0.21015966906E+03  0.31943899877E+03  0.19200000000E+03 0.  0.
<mgrwt>
<rscale>  0 0.50950096E+03</rscale>
<asrwt>0</asrwt>
<pdfrwt beam="1">  1        2 0.11746881E-01 0.50950096E+03</pdfrwt>
<pdfrwt beam="2">  1       -2 0.11274866E+00 0.50950096E+03</pdfrwt>
<totfact> 0.33961227E+02</totfact>
</mgrwt>
</event>
<event>
 4    1  0.5455400E-005  0.4738803E+03  0.7818608E-02  0.1020831E+00
         -2   -1    0    0    0  501 -0.00000000000E+00  0.00000000000E+00  0.26835152355E+03  0.26835152356E+03  0.25500000000E-02 0. -1.
          2   -1    0    0  501    0  0.00000000000E+00 -0.00000000000E+00 -0.20920553613E+03  0.20920553614E+03  0.25500000000E-02 0.  1.
    5000001    1    1    2    0    0  0.58173638383E+02 -0.12005798674E+03 -0.91770338832E+01  0.23397929467E+03  0.19200000000E+03 0.  0.
   -5000001    1    1    2    0    0 -0.58173638383E+02  0.12005798674E+03  0.68323021307E+02  0.24357776504E+03  0.19200000000E+03 0.  0.
<mgrwt>
<rscale>  0 0.47388026E+03</rscale>
<asrwt>0</asrwt>
<pdfrwt beam="1">  1        2 0.29886505E-01 0.47388026E+03</pdfrwt>
<pdfrwt beam="2">  1       -2 0.38335932E-01 0.47388026E+03</pdfrwt>
<totfact> 0.11478170E+03</totfact>
</mgrwt>
</event>
<event>
 4    1  0.5455400E-005  0.2514490E+04  0.7818608E-02  0.8397842E-01
          2   -1    0    0  501    0  0.00000000000E+00  0.00000000000E+00  0.22033726004E+04  0.22033726004E+04  0.25500000000E-02 0.  1.
         -2   -1    0    0    0  501 -0.00000000000E+00 -0.00000000000E+00 -0.71738432270E+03  0.71738432271E+03  0.25500000000E-02 0. -1.
    5000001    1    1    2    0    0  0.79814992454E+03 -0.94249009945E+03  0.58513134358E+03  0.13800628895E+04  0.19200000000E+03 0.  0.
   -5000001    1    1    2    0    0 -0.79814992454E+03  0.94249009945E+03  0.90085693412E+03  0.15406940337E+04  0.19200000000E+03 0.  0.
<mgrwt>
<rscale>  0 0.25144900E+04</rscale>
<asrwt>0</asrwt>
<pdfrwt beam="1">  1        2 0.31476752E+00 0.25144900E+04</pdfrwt>
<pdfrwt beam="2">  1       -2 0.10248347E+00 0.25144900E+04</pdfrwt>
<totfact> 0.43974716E+00</totfact>
</mgrwt>
</event>
<event>
 4    1  0.5455400E-005  0.5932636E+03  0.7818608E-02  0.9919481E-01
          2   -1    0    0  501    0  0.00000000000E+00  0.00000000000E+00  0.15796131011E+03  0.15796131013E+03  0.25500000000E-02 0.  1.
         -2   -1    0    0    0  501 -0.00000000000E+00 -0.00000000000E+00 -0.55703778115E+03  0.55703778115E+03  0.25500000000E-02 0. -1.
    5000001    1    1    2    0    0 -0.12216746146E+03  0.18113300622E+03 -0.26973368687E+03  0.39667911014E+03  0.19200000000E+03 0.  0.
   -5000001    1    1    2    0    0  0.12216746146E+03 -0.18113300622E+03 -0.12934278416E+03  0.31831998115E+03  0.19200000000E+03 0.  0.
<mgrwt>
<rscale>  0 0.59326358E+03</rscale>
<asrwt>0</asrwt>
<pdfrwt beam="1">  1        2 0.22565902E-01 0.59326358E+03</pdfrwt>
<pdfrwt beam="2">  1       -2 0.79576825E-01 0.59326358E+03</pdfrwt>
<totfact> 0.34866001E+02</totfact>
</mgrwt>
</event>
<event>
 4    1  0.5455400E-005  0.6064971E+03  0.7818608E-02  0.9892018E-01
          2   -1    0    0  501    0  0.00000000000E+00  0.00000000000E+00  0.93441938266E+03  0.93441938266E+03  0.25500000000E-02 0.  1.
         -2   -1    0    0    0  501 -0.00000000000E+00 -0.00000000000E+00 -0.98413722053E+02  0.98413722086E+02  0.25500000000E-02 0. -1.
    5000001    1    1    2    0    0  0.70452300140E+02 -0.19566566008E+03  0.23264639934E+03  0.36638357531E+03  0.19200000000E+03 0.  0.
   -5000001    1    1    2    0    0 -0.70452300140E+02  0.19566566008E+03  0.60335926127E+03  0.66644952944E+03  0.19200000000E+03 0.  0.
<mgrwt>
<rscale>  0 0.60649712E+03</rscale>
<asrwt>0</asrwt>
<pdfrwt beam="1">  1        2 0.13348848E+00 0.60649712E+03</pdfrwt>
<pdfrwt beam="2">  1       -2 0.14059103E-01 0.60649712E+03</pdfrwt>
<totfact> 0.12117979E+03</totfact>
</mgrwt>
</event>
<event>
 4    1  0.5455400E-005  0.5952309E+03  0.7818608E-02  0.9915350E-01
         -2   -1    0    0    0  501 -0.00000000000E+00  0.00000000000E+00  0.27635703431E+03  0.27635703432E+03  0.25500000000E-02 0. -1.
          2   -1    0    0  501    0  0.00000000000E+00 -0.00000000000E+00 -0.32050913791E+03  0.32050913792E+03  0.25500000000E-02 0.  1.
    5000001    1    1    2    0    0  0.12300693230E+03  0.10241616932E+03 -0.18404745386E+03  0.31041462982E+03  0.19200000000E+03 0.  0.
   -5000001    1    1    2    0    0 -0.12300693230E+03 -0.10241616932E+03  0.13989535026E+03  0.28645154243E+03  0.19200000000E+03 0.  0.
<mgrwt>
<rscale>  0 0.59523090E+03</rscale>
<asrwt>0</asrwt>
<pdfrwt beam="1">  1        2 0.45787019E-01 0.59523090E+03</pdfrwt>
<pdfrwt beam="2">  1       -2 0.39479577E-01 0.59523090E+03</pdfrwt>
<totfact> 0.67606728E+02</totfact>
</mgrwt>
</event>
<event>
 4    1  0.5455400E-005  0.5501137E+03  0.7818608E-02  0.1001468E+00
         -2   -1    0    0    0  501 -0.00000000000E+00  0.00000000000E+00  0.58435714965E+02  0.58435715020E+02  0.25500000000E-02 0. -1.
          2   -1    0    0  501    0  0.00000000000E+00 -0.00000000000E+00 -0.12946925168E+04  0.12946925168E+04  0.25500000000E-02 0.  1.
    5000001    1    1    2    0    0  0.23767206352E+01 -0.16339295809E+03 -0.34767752600E+03  0.42947243175E+03  0.19200000000E+03 0.  0.
   -5000001    1    1    2    0    0 -0.23767206352E+01  0.16339295809E+03 -0.88857927585E+03  0.92365580008E+03  0.19200000000E+03 0.  0.
<mgrwt>
<rscale>  0 0.55011374E+03</rscale>
<asrwt>0</asrwt>
<pdfrwt beam="1">  1        2 0.18495606E+00 0.55011374E+03</pdfrwt>
<pdfrwt beam="2">  1       -2 0.83479601E-02 0.55011374E+03</pdfrwt>
<totfact> 0.17539599E+03</totfact>
</mgrwt>
</event>
<event>
 4    1  0.5455400E-005  0.8276278E+03  0.7818608E-02  0.9520866E-01
         -2   -1    0    0    0  501 -0.00000000000E+00  0.00000000000E+00  0.40626643078E+03  0.40626643079E+03  0.25500000000E-02 0. -1.
          2   -1    0    0  501    0  0.00000000000E+00 -0.00000000000E+00 -0.42150155764E+03  0.42150155764E+03  0.25500000000E-02 0.  1.
    5000001    1    1    2    0    0 -0.35524641683E+02  0.34351062732E+03  0.11535196331E+03  0.41162073160E+03  0.19200000000E+03 0.  0.
   -5000001    1    1    2    0    0  0.35524641683E+02 -0.34351062732E+03 -0.13058709017E+03  0.41614725683E+03  0.19200000000E+03 0.  0.
<mgrwt>
<rscale>  0 0.82762777E+03</rscale>
<asrwt>0</asrwt>
<pdfrwt beam="1">  1        2 0.60214508E-01 0.82762777E+03</pdfrwt>
<pdfrwt beam="2">  1       -2 0.58038062E-01 0.82762777E+03</pdfrwt>
<totfact> 0.22790031E+02</totfact>
</mgrwt>
</event>
<event>
 4    1  0.5455400E-005  0.1417918E+04  0.7818608E-02  0.8940950E-01
         -2   -1    0    0    0  501 -0.00000000000E+00  0.00000000000E+00  0.34019713507E+03  0.34019713508E+03  0.25500000000E-02 0. -1.
          2   -1    0    0  501    0  0.00000000000E+00 -0.00000000000E+00 -0.14774451915E+04  0.14774451915E+04  0.25500000000E-02 0.  1.
    5000001    1    1    2    0    0 -0.98427083749E+01  0.57267873040E+03 -0.10443158341E+04  0.12064482452E+04  0.19200000000E+03 0.  0.
   -5000001    1    1    2    0    0  0.98427083749E+01 -0.57267873040E+03 -0.92932222415E+02  0.61119408139E+03  0.19200000000E+03 0.  0.
<mgrwt>
<rscale>  0 0.14179177E+04</rscale>
<asrwt>0</asrwt>
<pdfrwt beam="1">  1        2 0.21106359E+00 0.14179177E+04</pdfrwt>
<pdfrwt beam="2">  1       -2 0.48599592E-01 0.14179177E+04</pdfrwt>
<totfact> 0.58629352E+01</totfact>
</mgrwt>
</event>
<event>
 4    1  0.5455400E-005  0.8100071E+03  0.7818608E-02  0.9545644E-01
          2   -1    0    0  501    0  0.00000000000E+00  0.00000000000E+00  0.21277662704E+04  0.21277662704E+04  0.25500000000E-02 0.  1.
         -2   -1    0    0    0  501 -0.00000000000E+00 -0.00000000000E+00 -0.77089245113E+02  0.77089245155E+02  0.25500000000E-02 0. -1.
    5000001    1    1    2    0    0 -0.35185347594E+03  0.51315339839E+02  0.10988714977E+04  0.11708188165E+04  0.19200000000E+03 0.  0.
   -5000001    1    1    2    0    0  0.35185347594E+03 -0.51315339839E+02  0.95180552762E+03  0.10340366991E+04  0.19200000000E+03 0.  0.
<mgrwt>
<rscale>  0 0.81000715E+03</rscale>
<asrwt>0</asrwt>
<pdfrwt beam="1">  1        2 0.30396660E+00 0.81000715E+03</pdfrwt>
<pdfrwt beam="2">  1       -2 0.11012750E-01 0.81000715E+03</pdfrwt>
<totfact> 0.41161291E+02</totfact>
</mgrwt>
</event>
<event>
 4    1  0.5455400E-005  0.5933789E+03  0.7818608E-02  0.9919239E-01
          2   -1    0    0  501    0  0.00000000000E+00  0.00000000000E+00  0.37225749804E+04  0.37225749804E+04  0.25500000000E-02 0. -1.
         -2   -1    0    0    0  501 -0.00000000000E+00 -0.00000000000E+00 -0.23646166166E+02  0.23646166304E+02  0.25500000000E-02 0.  1.
    5000001    1    1    2    0    0 -0.22287419399E+03 -0.13319613976E+02  0.16209318528E+04  0.16474630162E+04  0.19200000000E+03 0.  0.
   -5000001    1    1    2    0    0  0.22287419399E+03  0.13319613976E+02  0.20779969615E+04  0.20987581305E+04  0.19200000000E+03 0.  0.
<mgrwt>
<rscale>  0 0.59337889E+03</rscale>
<asrwt>0</asrwt>
<pdfrwt beam="1">  1        2 0.53179683E+00 0.59337889E+03</pdfrwt>
<pdfrwt beam="2">  1       -2 0.33780212E-02 0.59337889E+03</pdfrwt>
<totfact> 0.36094051E+02</totfact>
</mgrwt>
</event>
<event>
 4    1  0.5455400E-005  0.5959347E+03  0.7818608E-02  0.9913876E-01
         -2   -1    0    0    0  501 -0.00000000000E+00  0.00000000000E+00  0.37523478961E+03  0.37523478962E+03  0.25500000000E-02 0. -1.
          2   -1    0    0  501    0  0.00000000000E+00 -0.00000000000E+00 -0.23661062694E+03  0.23661062696E+03  0.25500000000E-02 0.  1.
    5000001    1    1    2    0    0  0.19390833783E+03  0.79681083136E+02  0.16097633409E+03  0.32669083034E+03  0.19200000000E+03 0.  0.
   -5000001    1    1    2    0    0 -0.19390833783E+03 -0.79681083136E+02 -0.22352171417E+02  0.28515458624E+03  0.19200000000E+03 0.  0.
<mgrwt>
<rscale>  0 0.59593469E+03</rscale>
<asrwt>0</asrwt>
<pdfrwt beam="1">  1        2 0.33801518E-01 0.59593469E+03</pdfrwt>
<pdfrwt beam="2">  1       -2 0.53604970E-01 0.59593469E+03</pdfrwt>
<totfact> 0.51414549E+02</totfact>
</mgrwt>
</event>
<event>
 4    1  0.5455400E-005  0.6924426E+03  0.7818608E-02  0.9730244E-01
         -2   -1    0    0    0  501 -0.00000000000E+00  0.00000000000E+00  0.62671058528E+02  0.62671058580E+02  0.25500000000E-02 0. -1.
          2   -1    0    0  501    0  0.00000000000E+00 -0.00000000000E+00 -0.19126721892E+04  0.19126721892E+04  0.25500000000E-02 0.  1.
    5000001    1    1    2    0    0 -0.26537290829E+03  0.75280957324E+02 -0.68777538879E+03  0.76549917598E+03  0.19200000000E+03 0.  0.
   -5000001    1    1    2    0    0  0.26537290829E+03 -0.75280957324E+02 -0.11622257418E+04  0.12098440718E+04  0.19200000000E+03 0.  0.
<mgrwt>
<rscale>  0 0.69244261E+03</rscale>
<asrwt>0</asrwt>
<pdfrwt beam="1">  1        2 0.27323885E+00 0.69244261E+03</pdfrwt>
<pdfrwt beam="2">  1       -2 0.89530096E-02 0.69244261E+03</pdfrwt>
<totfact> 0.74628307E+02</totfact>
</mgrwt>
</event>
<event>
 4    1  0.5455400E-005  0.7464817E+03  0.7818608E-02  0.9640886E-01
         -2   -1    0    0    0  501 -0.00000000000E+00  0.00000000000E+00  0.11411492300E+03  0.11411492303E+03  0.25500000000E-02 0. -1.
          2   -1    0    0  501    0  0.00000000000E+00 -0.00000000000E+00 -0.12207758931E+04  0.12207758931E+04  0.25500000000E-02 0.  1.
    5000001    1    1    2    0    0  0.17489233218E+03  0.22300592854E+03 -0.28733405829E+03  0.44692710041E+03  0.19200000000E+03 0.  0.
   -5000001    1    1    2    0    0 -0.17489233218E+03 -0.22300592854E+03 -0.81932691177E+03  0.88796371568E+03  0.19200000000E+03 0.  0.
<mgrwt>
<rscale>  0 0.74648174E+03</rscale>
<asrwt>0</asrwt>
<pdfrwt beam="1">  1        2 0.17439655E+00 0.74648174E+03</pdfrwt>
<pdfrwt beam="2">  1       -2 0.16302133E-01 0.74648174E+03</pdfrwt>
<totfact> 0.63590420E+02</totfact>
</mgrwt>
</event>
<event>
 4    1  0.5455400E-005  0.4863913E+03  0.7818608E-02  0.1017393E+00
          2   -1    0    0  501    0  0.00000000000E+00  0.00000000000E+00  0.17905884452E+04  0.17905884452E+04  0.25500000000E-02 0.  1.
         -2   -1    0    0    0  501 -0.00000000000E+00 -0.00000000000E+00 -0.33030548273E+02  0.33030548371E+02  0.25500000000E-02 0. -1.
    5000001    1    1    2    0    0  0.11130555756E+03  0.99333680228E+02  0.86040707569E+03  0.89410315012E+03  0.19200000000E+03 0.  0.
   -5000001    1    1    2    0    0 -0.11130555756E+03 -0.99333680228E+02  0.89715082127E+03  0.92951584348E+03  0.19200000000E+03 0.  0.
<mgrwt>
<rscale>  0 0.48639128E+03</rscale>
<asrwt>0</asrwt>
<pdfrwt beam="1">  1        2 0.25579834E+00 0.48639128E+03</pdfrwt>
<pdfrwt beam="2">  1       -2 0.47186499E-02 0.48639128E+03</pdfrwt>
<totfact> 0.23772614E+03</totfact>
</mgrwt>
</event>
<event>
 4    1  0.5455400E-005  0.4618076E+03  0.7818608E-02  0.1024258E+00
          2   -1    0    0  501    0  0.00000000000E+00  0.00000000000E+00  0.24682169809E+04  0.24682169809E+04  0.25500000000E-02 0.  1.
         -2   -1    0    0    0  501 -0.00000000000E+00 -0.00000000000E+00 -0.21601251283E+02  0.21601251433E+02  0.25500000000E-02 0. -1.
    5000001    1    1    2    0    0  0.54933860006E+02  0.11511118193E+03  0.12964933052E+04  0.13168246670E+04  0.19200000000E+03 0.  0.
   -5000001    1    1    2    0    0 -0.54933860006E+02 -0.11511118193E+03  0.11501224245E+04  0.11729935654E+04  0.19200000000E+03 0.  0.
<mgrwt>
<rscale>  0 0.46180765E+03</rscale>
<asrwt>0</asrwt>
<pdfrwt beam="1">  1        2 0.35260233E+00 0.46180765E+03</pdfrwt>
<pdfrwt beam="2">  1       -2 0.30858939E-02 0.46180765E+03</pdfrwt>
<totfact> 0.20830102E+03</totfact>
</mgrwt>
</event>
<event>
 4    1  0.5455400E-005  0.1349442E+04  0.7818608E-02  0.8991251E-01
         -2   -1    0    0    0  501 -0.00000000000E+00  0.00000000000E+00  0.85025718477E+03  0.85025718477E+03  0.25500000000E-02 0. -1.
          2   -1    0    0  501    0  0.00000000000E+00 -0.00000000000E+00 -0.53542426115E+03  0.53542426115E+03  0.25500000000E-02 0.  1.
    5000001    1    1    2    0    0 -0.30772018465E+03 -0.48936361065E+03  0.45540955372E+03  0.76054606507E+03  0.19200000000E+03 0.  0.
   -5000001    1    1    2    0    0  0.30772018465E+03  0.48936361065E+03 -0.14057663010E+03  0.62513538086E+03  0.19200000000E+03 0.  0.
<mgrwt>
<rscale>  0 0.13494418E+04</rscale>
<asrwt>0</asrwt>
<pdfrwt beam="1">  1        2 0.76489180E-01 0.13494418E+04</pdfrwt>
<pdfrwt beam="2">  1       -2 0.12146531E+00 0.13494418E+04</pdfrwt>
<totfact> 0.31257835E+01</totfact>
</mgrwt>
</event>
<event>
 4    1  0.5455400E-005  0.4157938E+03  0.7818608E-02  0.1038444E+00
         -2   -1    0    0    0  501 -0.00000000000E+00  0.00000000000E+00  0.17936132403E+02  0.17936132584E+02  0.25500000000E-02 0. -1.
          2   -1    0    0  501    0  0.00000000000E+00 -0.00000000000E+00 -0.24097239501E+04  0.24097239501E+04  0.25500000000E-02 0.  1.
    5000001    1    1    2    0    0  0.21603811521E+02 -0.74301491677E+02 -0.10836327071E+04  0.11032276647E+04  0.19200000000E+03 0.  0.
   -5000001    1    1    2    0    0 -0.21603811521E+02  0.74301491677E+02 -0.13081551106E+04  0.13244324180E+04  0.19200000000E+03 0.  0.
<mgrwt>
<rscale>  0 0.41579383E+03</rscale>
<asrwt>0</asrwt>
<pdfrwt beam="1">  1        2 0.34424607E+00 0.41579383E+03</pdfrwt>
<pdfrwt beam="2">  1       -2 0.25623062E-02 0.41579383E+03</pdfrwt>
<totfact> 0.29570261E+03</totfact>
</mgrwt>
</event>
<event>
 4    1  0.5455400E-005  0.1870847E+04  0.7818608E-02  0.8669505E-01
          2   -1    0    0  501    0  0.00000000000E+00  0.00000000000E+00  0.16666948369E+04  0.16666948369E+04  0.25500000000E-02 0.  1.
         -2   -1    0    0    0  501 -0.00000000000E+00 -0.00000000000E+00 -0.52500120618E+03  0.52500120618E+03  0.25500000000E-02 0. -1.
    5000001    1    1    2    0    0 -0.86878110816E+03  0.13878878111E+02  0.23297618018E+03  0.91984517050E+03  0.19200000000E+03 0.  0.
   -5000001    1    1    2    0    0  0.86878110816E+03 -0.13878878111E+02  0.90871745051E+03  0.12718508726E+04  0.19200000000E+03 0.  0.
<mgrwt>
<rscale>  0 0.18708467E+04</rscale>
<asrwt>0</asrwt>
<pdfrwt beam="1">  1        2 0.23809926E+00 0.18708467E+04</pdfrwt>
<pdfrwt beam="2">  1       -2 0.75000173E-01 0.18708467E+04</pdfrwt>
<totfact> 0.17955656E+01</totfact>
</mgrwt>
</event>
<event>
 4    1  0.5455400E-005  0.5539405E+03  0.7818608E-02  0.1000586E+00
          2   -1    0    0  501    0  0.00000000000E+00  0.00000000000E+00  0.13324123839E+04  0.13324123839E+04  0.25500000000E-02 0.  1.
         -2   -1    0    0    0  501 -0.00000000000E+00 -0.00000000000E+00 -0.57574165132E+02  0.57574165189E+02  0.25500000000E-02 0. -1.
    5000001    1    1    2    0    0  0.52990034947E+02  0.19169488528E+03  0.68041908669E+03  0.73443107667E+03  0.19200000000E+03 0.  0.
   -5000001    1    1    2    0    0 -0.52990034947E+02 -0.19169488528E+03  0.59441913213E+03  0.65555547247E+03  0.19200000000E+03 0.  0.
<mgrwt>
<rscale>  0 0.55394054E+03</rscale>
<asrwt>0</asrwt>
<pdfrwt beam="1">  1        2 0.19034465E+00 0.55394054E+03</pdfrwt>
<pdfrwt beam="2">  1       -2 0.82248799E-02 0.55394054E+03</pdfrwt>
<totfact> 0.17135204E+03</totfact>
</mgrwt>
</event>
<event>
 4    1  0.5455400E-005  0.6830840E+03  0.7818608E-02  0.9746606E-01
         -2   -1    0    0    0  501 -0.00000000000E+00  0.00000000000E+00  0.41392221556E+02  0.41392221634E+02  0.25500000000E-02 0.  1.
          2   -1    0    0  501    0  0.00000000000E+00 -0.00000000000E+00 -0.28181850898E+04  0.28181850898E+04  0.25500000000E-02 0. -1.
    5000001    1    1    2    0    0 -0.23677431800E+03  0.14814178680E+03 -0.12118331299E+04  0.12583368394E+04  0.19200000000E+03 0.  0.
   -5000001    1    1    2    0    0  0.23677431800E+03 -0.14814178680E+03 -0.15649597383E+04  0.16012404720E+04  0.19200000000E+03 0.  0.
<mgrwt>
<rscale>  0 0.68308401E+03</rscale>
<asrwt>0</asrwt>
<pdfrwt beam="1">  1        2 0.40259775E+00 0.68308401E+03</pdfrwt>
<pdfrwt beam="2">  1       -2 0.59131763E-02 0.68308401E+03</pdfrwt>
<totfact> 0.49523300E+02</totfact>
</mgrwt>
</event>
<event>
 4    1  0.5455400E-005  0.8484820E+03  0.7818608E-02  0.9492377E-01
         -2   -1    0    0    0  501 -0.00000000000E+00  0.00000000000E+00  0.16462513373E+04  0.16462513373E+04  0.25500000000E-02 0. -1.
          2   -1    0    0  501    0  0.00000000000E+00 -0.00000000000E+00 -0.10932744031E+03  0.10932744034E+03  0.25500000000E-02 0.  1.
    5000001    1    1    2    0    0  0.29095889194E+03  0.22391632211E+03  0.95720087472E+03  0.10430211458E+04  0.19200000000E+03 0.  0.
   -5000001    1    1    2    0    0 -0.29095889194E+03 -0.22391632211E+03  0.57972302229E+03  0.71255763183E+03  0.19200000000E+03 0.  0.
<mgrwt>
<rscale>  0 0.84848204E+03</rscale>
<asrwt>0</asrwt>
<pdfrwt beam="1">  1        2 0.15618205E-01 0.84848204E+03</pdfrwt>
<pdfrwt beam="2">  1       -2 0.23517877E+00 0.84848204E+03</pdfrwt>
<totfact> 0.30824858E+01</totfact>
</mgrwt>
</event>
<event>
 4    1  0.5455400E-005  0.6591696E+03  0.7818608E-02  0.9789724E-01
         -2   -1    0    0    0  501 -0.00000000000E+00  0.00000000000E+00  0.11595065937E+03  0.11595065940E+03  0.25500000000E-02 0. -1.
          2   -1    0    0  501    0  0.00000000000E+00 -0.00000000000E+00 -0.93683059397E+03  0.93683059398E+03  0.25500000000E-02 0.  1.
    5000001    1    1    2    0    0 -0.17024832977E+03  0.20433986139E+03 -0.46151956630E+03  0.56621867050E+03  0.19200000000E+03 0.  0.
   -5000001    1    1    2    0    0  0.17024832977E+03 -0.20433986139E+03 -0.35936036830E+03  0.48656258287E+03  0.19200000000E+03 0.  0.
<mgrwt>
<rscale>  0 0.65916955E+03</rscale>
<asrwt>0</asrwt>
<pdfrwt beam="1">  1        2 0.13383294E+00 0.65916955E+03</pdfrwt>
<pdfrwt beam="2">  1       -2 0.16564380E-01 0.65916955E+03</pdfrwt>
<totfact> 0.91435025E+02</totfact>
</mgrwt>
</event>
<event>
 4    1  0.5455400E-005  0.6509836E+03  0.7818608E-02  0.9804935E-01
          2   -1    0    0  501    0  0.00000000000E+00  0.00000000000E+00  0.96350677920E+03  0.96350677920E+03  0.25500000000E-02 0.  1.
         -2   -1    0    0    0  501 -0.00000000000E+00 -0.00000000000E+00 -0.10995760370E+03  0.10995760373E+03  0.25500000000E-02 0. -1.
    5000001    1    1    2    0    0  0.19852319510E+03 -0.13537025234E+03  0.25114119351E+03  0.39707992053E+03  0.19200000000E+03 0.  0.
   -5000001    1    1    2    0    0 -0.19852319510E+03  0.13537025234E+03  0.60240798199E+03  0.67638446240E+03  0.19200000000E+03 0.  0.
<mgrwt>
<rscale>  0 0.65098355E+03</rscale>
<asrwt>0</asrwt>
<pdfrwt beam="1">  1        2 0.13764382E+00 0.65098355E+03</pdfrwt>
<pdfrwt beam="2">  1       -2 0.15708230E-01 0.65098355E+03</pdfrwt>
<totfact> 0.96299942E+02</totfact>
</mgrwt>
</event>
<event>
 4    1  0.5455400E-005  0.1326361E+04  0.7818608E-02  0.9008918E-01
          2   -1    0    0  501    0  0.00000000000E+00  0.00000000000E+00  0.27858369370E+04  0.27858369370E+04  0.25500000000E-02 0.  1.
         -2   -1    0    0    0  501 -0.00000000000E+00 -0.00000000000E+00 -0.15787306139E+03  0.15787306141E+03  0.25500000000E-02 0. -1.
    5000001    1    1    2    0    0 -0.28285822055E+03 -0.55116779470E+03  0.10068560930E+04  0.11976718678E+04  0.19200000000E+03 0.  0.
   -5000001    1    1    2    0    0  0.28285822055E+03  0.55116779470E+03  0.16211077826E+04  0.17460381306E+04  0.19200000000E+03 0.  0.
<mgrwt>
<rscale>  0 0.13263613E+04</rscale>
<asrwt>0</asrwt>
<pdfrwt beam="1">  1        2 0.39797672E+00 0.13263613E+04</pdfrwt>
<pdfrwt beam="2">  1       -2 0.22553294E-01 0.13263613E+04</pdfrwt>
<totfact> 0.52672413E+01</totfact>
</mgrwt>
</event>
<event>
 4    1  0.5455400E-005  0.5116987E+03  0.7818608E-02  0.1010770E+00
          2   -1    0    0  501    0  0.00000000000E+00  0.00000000000E+00  0.20973026964E+04  0.20973026964E+04  0.25500000000E-02 0.  1.
         -2   -1    0    0    0  501 -0.00000000000E+00 -0.00000000000E+00 -0.31210993317E+02  0.31210993422E+02  0.25500000000E-02 0. -1.
    5000001    1    1    2    0    0  0.10075986455E+03 -0.12281489681E+03  0.79196790022E+03  0.83024888086E+03  0.19200000000E+03 0.  0.
   -5000001    1    1    2    0    0 -0.10075986455E+03  0.12281489681E+03  0.12741238028E+04  0.12982648090E+04  0.19200000000E+03 0.  0.
<mgrwt>
<rscale>  0 0.51169874E+03</rscale>
<asrwt>0</asrwt>
<pdfrwt beam="1">  1        2 0.29961469E+00 0.51169874E+03</pdfrwt>
<pdfrwt beam="2">  1       -2 0.44587130E-02 0.51169874E+03</pdfrwt>
<totfact> 0.18208442E+03</totfact>
</mgrwt>
</event>
<event>
 4    1  0.5455400E-005  0.4568477E+03  0.7818608E-02  0.1025699E+00
         -2   -1    0    0    0  501 -0.00000000000E+00  0.00000000000E+00  0.26308172087E+02  0.26308172210E+02  0.25500000000E-02 0. -1.
          2   -1    0    0  501    0  0.00000000000E+00 -0.00000000000E+00 -0.19833173018E+04  0.19833173018E+04  0.25500000000E-02 0.  1.
    5000001    1    1    2    0    0  0.68286484527E+02 -0.97378547109E+02 -0.11288302047E+04  0.11512025262E+04  0.19200000000E+03 0.  0.
   -5000001    1    1    2    0    0 -0.68286484527E+02  0.97378547109E+02 -0.82817892505E+03  0.85842294780E+03  0.19200000000E+03 0.  0.
<mgrwt>
<rscale>  0 0.45684769E+03</rscale>
<asrwt>0</asrwt>
<pdfrwt beam="1">  1        2 0.28333095E+00 0.45684769E+03</pdfrwt>
<pdfrwt beam="2">  1       -2 0.37583116E-02 0.45684769E+03</pdfrwt>
<totfact> 0.27014228E+03</totfact>
</mgrwt>
</event>
<event>
 4    1  0.5455400E-005  0.7407989E+03  0.7818608E-02  0.9649897E-01
          2   -1    0    0  501    0  0.00000000000E+00  0.00000000000E+00  0.69385498472E+03  0.69385498473E+03  0.25500000000E-02 0.  1.
         -2   -1    0    0    0  501 -0.00000000000E+00 -0.00000000000E+00 -0.19772974069E+03  0.19772974071E+03  0.25500000000E-02 0. -1.
    5000001    1    1    2    0    0  0.63046873688E+02  0.31024375275E+03  0.23569056662E+03  0.43890789193E+03  0.19200000000E+03 0.  0.
   -5000001    1    1    2    0    0 -0.63046873688E+02 -0.31024375275E+03  0.26043467741E+03  0.45267683351E+03  0.19200000000E+03 0.  0.
<mgrwt>
<rscale>  0 0.74079894E+03</rscale>
<asrwt>0</asrwt>
<pdfrwt beam="1">  1        2 0.99122139E-01 0.74079894E+03</pdfrwt>
<pdfrwt beam="2">  1       -2 0.28247106E-01 0.74079894E+03</pdfrwt>
<totfact> 0.52355252E+02</totfact>
</mgrwt>
</event>
<event>
 4    1  0.5455400E-005  0.5783478E+03  0.7818608E-02  0.9951375E-01
         -2   -1    0    0    0  501 -0.00000000000E+00  0.00000000000E+00  0.69415772778E+02  0.69415772825E+02  0.25500000000E-02 0. -1.
          2   -1    0    0  501    0  0.00000000000E+00 -0.00000000000E+00 -0.12046474193E+04  0.12046474193E+04  0.25500000000E-02 0.  1.
    5000001    1    1    2    0    0 -0.21389273468E+03 -0.13792643247E+02 -0.50464140998E+03  0.58091935036E+03  0.19200000000E+03 0.  0.
   -5000001    1    1    2    0    0  0.21389273468E+03  0.13792643247E+02 -0.63059023654E+03  0.69314384177E+03  0.19200000000E+03 0.  0.
<mgrwt>
<rscale>  0 0.57834776E+03</rscale>
<asrwt>0</asrwt>
<pdfrwt beam="1">  1        2 0.17209248E+00 0.57834776E+03</pdfrwt>
<pdfrwt beam="2">  1       -2 0.99165397E-02 0.57834776E+03</pdfrwt>
<totfact> 0.14899137E+03</totfact>
</mgrwt>
</event>
<event>
 4    1  0.5455400E-005  0.5558986E+03  0.7818608E-02  0.1000138E+00
         -2   -1    0    0    0  501 -0.00000000000E+00  0.00000000000E+00  0.91811533860E+02  0.91811533896E+02  0.25500000000E-02 0. -1.
          2   -1    0    0  501    0  0.00000000000E+00 -0.00000000000E+00 -0.84146087372E+03  0.84146087372E+03  0.25500000000E-02 0.  1.
    5000001    1    1    2    0    0  0.17977471934E+03  0.88143702276E+02 -0.40407488567E+03  0.49013138565E+03  0.19200000000E+03 0.  0.
   -5000001    1    1    2    0    0 -0.17977471934E+03 -0.88143702276E+02 -0.34557445419E+03  0.44314102197E+03  0.19200000000E+03 0.  0.
<mgrwt>
<rscale>  0 0.55589860E+03</rscale>
<asrwt>0</asrwt>
<pdfrwt beam="1">  1        2 0.12020869E+00 0.55589860E+03</pdfrwt>
<pdfrwt beam="2">  1       -2 0.13115934E-01 0.55589860E+03</pdfrwt>
<totfact> 0.15646878E+03</totfact>
</mgrwt>
</event>
<event>
 4    1  0.5455400E-005  0.6456793E+03  0.7818608E-02  0.9814921E-01
          2   -1    0    0  501    0  0.00000000000E+00  0.00000000000E+00  0.51782407911E+03  0.51782407912E+03  0.25500000000E-02 0.  1.
         -2   -1    0    0    0  501 -0.00000000000E+00 -0.00000000000E+00 -0.20127576304E+03  0.20127576305E+03  0.25500000000E-02 0. -1.
    5000001    1    1    2    0    0 -0.14161566401E+03 -0.67357062964E+02 -0.72049872716E+02  0.25816110160E+03  0.19200000000E+03 0.  0.
   -5000001    1    1    2    0    0  0.14161566401E+03  0.67357062964E+02  0.38859818879E+03  0.46093874057E+03  0.19200000000E+03 0.  0.
<mgrwt>
<rscale>  0 0.64567929E+03</rscale>
<asrwt>0</asrwt>
<pdfrwt beam="1">  1        2 0.73974870E-01 0.64567929E+03</pdfrwt>
<pdfrwt beam="2">  1       -2 0.28753680E-01 0.64567929E+03</pdfrwt>
<totfact> 0.71819571E+02</totfact>
</mgrwt>
</event>
<event>
 4    1  0.5455400E-005  0.4854495E+03  0.7818608E-02  0.1017648E+00
          2   -1    0    0  501    0  0.00000000000E+00  0.00000000000E+00  0.25069248914E+04  0.25069248914E+04  0.25500000000E-02 0.  1.
         -2   -1    0    0    0  501 -0.00000000000E+00 -0.00000000000E+00 -0.23501024855E+02  0.23501024993E+02  0.25500000000E-02 0. -1.
    5000001    1    1    2    0    0  0.49197812866E+02  0.12511232140E+03  0.15704653755E+04  0.15878598847E+04  0.19200000000E+03 0.  0.
   -5000001    1    1    2    0    0 -0.49197812866E+02 -0.12511232140E+03  0.91295849106E+03  0.94256603172E+03  0.19200000000E+03 0.  0.
<mgrwt>
<rscale>  0 0.48544950E+03</rscale>
<asrwt>0</asrwt>
<pdfrwt beam="1">  1        2 0.35813176E+00 0.48544950E+03</pdfrwt>
<pdfrwt beam="2">  1       -2 0.33572927E-02 0.48544950E+03</pdfrwt>
<totfact> 0.17494012E+03</totfact>
</mgrwt>
</event>
<event>
 4    1  0.5455400E-005  0.5192645E+03  0.7818608E-02  0.1008869E+00
          2   -1    0    0  501    0  0.00000000000E+00  0.00000000000E+00  0.11012568111E+04  0.11012568111E+04  0.25500000000E-02 0.  1.
         -2   -1    0    0    0  501 -0.00000000000E+00 -0.00000000000E+00 -0.61210891343E+02  0.61210891396E+02  0.25500000000E-02 0. -1.
    5000001    1    1    2    0    0 -0.53016094233E+02 -0.12979568700E+03  0.28643415291E+03  0.37224474551E+03  0.19200000000E+03 0.  0.
   -5000001    1    1    2    0    0  0.53016094233E+02  0.12979568700E+03  0.75361176682E+03  0.79022295695E+03  0.19200000000E+03 0.  0.
<mgrwt>
<rscale>  0 0.51926452E+03</rscale>
<asrwt>0</asrwt>
<pdfrwt beam="1">  1        2 0.15732239E+00 0.51926452E+03</pdfrwt>
<pdfrwt beam="2">  1       -2 0.87444136E-02 0.51926452E+03</pdfrwt>
<totfact> 0.20903100E+03</totfact>
</mgrwt>
</event>
<event>
 4    1  0.5455400E-005  0.5805934E+03  0.7818608E-02  0.9946507E-01
          2   -1    0    0  501    0  0.00000000000E+00  0.00000000000E+00  0.11776757715E+04  0.11776757715E+04  0.25500000000E-02 0.  1.
         -2   -1    0    0    0  501 -0.00000000000E+00 -0.00000000000E+00 -0.71558033263E+02  0.71558033308E+02  0.25500000000E-02 0. -1.
    5000001    1    1    2    0    0  0.66354650874E+01  0.21627603427E+03  0.50084821578E+03  0.57838766208E+03  0.19200000000E+03 0.  0.
   -5000001    1    1    2    0    0 -0.66354650874E+01 -0.21627603427E+03  0.60526952244E+03  0.67084614271E+03  0.19200000000E+03 0.  0.
<mgrwt>
<rscale>  0 0.58059336E+03</rscale>
<asrwt>0</asrwt>
<pdfrwt beam="1">  1        2 0.16823939E+00 0.58059336E+03</pdfrwt>
<pdfrwt beam="2">  1       -2 0.10222576E-01 0.58059336E+03</pdfrwt>
<totfact> 0.14685534E+03</totfact>
</mgrwt>
</event>
<event>
 4    1  0.5455400E-005  0.7344321E+03  0.7818608E-02  0.9660095E-01
          2   -1    0    0  501    0  0.00000000000E+00  0.00000000000E+00  0.28650447218E+04  0.28650447218E+04  0.25500000000E-02 0.  1.
         -2   -1    0    0    0  501 -0.00000000000E+00 -0.00000000000E+00 -0.47066501065E+02  0.47066501134E+02  0.25500000000E-02 0. -1.
    5000001    1    1    2    0    0 -0.92629869110E+02 -0.22589161830E+03  0.63222717372E+03  0.70440223953E+03  0.19200000000E+03 0.  0.
   -5000001    1    1    2    0    0  0.92629869110E+02  0.22589161830E+03  0.21857510470E+04  0.22077089834E+04  0.19200000000E+03 0.  0.
<mgrwt>
<rscale>  0 0.73443211E+03</rscale>
<asrwt>0</asrwt>
<pdfrwt beam="1">  1        2 0.40929234E+00 0.73443211E+03</pdfrwt>
<pdfrwt beam="2">  1       -2 0.67237820E-02 0.73443211E+03</pdfrwt>
<totfact> 0.38001152E+02</totfact>
</mgrwt>
</event>
<event>
 4    1  0.5455400E-005  0.4616193E+03  0.7818608E-02  0.1024313E+00
          2   -1    0    0  501    0  0.00000000000E+00  0.00000000000E+00  0.14959813598E+03  0.14959813601E+03  0.25500000000E-02 0.  1.
         -2   -1    0    0    0  501 -0.00000000000E+00 -0.00000000000E+00 -0.35610807211E+03  0.35610807212E+03  0.25500000000E-02 0. -1.
    5000001    1    1    2    0    0 -0.10381485860E+03 -0.71990292710E+02 -0.12646769639E+03  0.26233224228E+03  0.19200000000E+03 0.  0.
   -5000001    1    1    2    0    0  0.10381485860E+03  0.71990292710E+02 -0.80042239735E+02  0.24337396585E+03  0.19200000000E+03 0.  0.
<mgrwt>
<rscale>  0 0.46161934E+03</rscale>
<asrwt>0</asrwt>
<pdfrwt beam="1">  1        2 0.21371162E-01 0.46161934E+03</pdfrwt>
<pdfrwt beam="2">  1       -2 0.50872581E-01 0.46161934E+03</pdfrwt>
<totfact> 0.96200693E+02</totfact>
</mgrwt>
</event>
<event>
 4    1  0.5455400E-005  0.5075869E+03  0.7818608E-02  0.1011817E+00
         -2   -1    0    0    0  501 -0.00000000000E+00  0.00000000000E+00  0.32746904044E+03  0.32746904045E+03  0.25500000000E-02 0. -1.
          2   -1    0    0  501    0  0.00000000000E+00 -0.00000000000E+00 -0.19669372840E+03  0.19669372841E+03  0.25500000000E-02 0.  1.
    5000001    1    1    2    0    0 -0.14057219750E+03 -0.77002608321E+02  0.10988977608E+03  0.27318438331E+03  0.19200000000E+03 0.  0.
   -5000001    1    1    2    0    0  0.14057219750E+03  0.77002608321E+02  0.20885535959E+02  0.25097838555E+03  0.19200000000E+03 0.  0.
<mgrwt>
<rscale>  0 0.50758687E+03</rscale>
<asrwt>0</asrwt>
<pdfrwt beam="1">  1        2 0.28099105E-01 0.50758687E+03</pdfrwt>
<pdfrwt beam="2">  1       -2 0.46781291E-01 0.50758687E+03</pdfrwt>
<totfact> 0.83354884E+02</totfact>
</mgrwt>
</event>
<event>
 4    1  0.5455400E-005  0.7532044E+03  0.7818608E-02  0.9630336E-01
         -2   -1    0    0    0  501 -0.00000000000E+00  0.00000000000E+00  0.11101859966E+03  0.11101859969E+03  0.25500000000E-02 0. -1.
          2   -1    0    0  501    0  0.00000000000E+00 -0.00000000000E+00 -0.12775267704E+04  0.12775267704E+04  0.25500000000E-02 0.  1.
    5000001    1    1    2    0    0 -0.49945053683E+02 -0.31790367348E+03 -0.51407970045E+03  0.63615972241E+03  0.19200000000E+03 0.  0.
   -5000001    1    1    2    0    0  0.49945053683E+02  0.31790367348E+03 -0.65242847030E+03  0.75238564769E+03  0.19200000000E+03 0.  0.
<mgrwt>
<rscale>  0 0.75320444E+03</rscale>
<asrwt>0</asrwt>
<pdfrwt beam="1">  1        2 0.18250382E+00 0.75320444E+03</pdfrwt>
<pdfrwt beam="2">  1       -2 0.15859801E-01 0.75320444E+03</pdfrwt>
<totfact> 0.61952523E+02</totfact>
</mgrwt>
</event>
<event>
 4    1  0.5455400E-005  0.4888168E+03  0.7818608E-02  0.1016740E+00
         -2   -1    0    0    0  501 -0.00000000000E+00  0.00000000000E+00  0.31493211986E+03  0.31493211987E+03  0.25500000000E-02 0. -1.
          2   -1    0    0  501    0  0.00000000000E+00 -0.00000000000E+00 -0.18967726851E+03  0.18967726853E+03  0.25500000000E-02 0.  1.
    5000001    1    1    2    0    0  0.13662781812E+03  0.30084975256E+02  0.12192178614E+03  0.26702282366E+03  0.19200000000E+03 0.  0.
   -5000001    1    1    2    0    0 -0.13662781812E+03 -0.30084975256E+02  0.33330652178E+01  0.23758656474E+03  0.19200000000E+03 0.  0.
<mgrwt>
<rscale>  0 0.48881679E+03</rscale>
<asrwt>0</asrwt>
<pdfrwt beam="1">  1        2 0.27096753E-01 0.48881679E+03</pdfrwt>
<pdfrwt beam="2">  1       -2 0.44990303E-01 0.48881679E+03</pdfrwt>
<totfact> 0.93832465E+02</totfact>
</mgrwt>
</event>
<event>
 4    1  0.5455400E-005  0.4942782E+03  0.7818608E-02  0.1015283E+00
         -2   -1    0    0    0  501 -0.00000000000E+00  0.00000000000E+00  0.83128456118E+02  0.83128456157E+02  0.25500000000E-02 0. -1.
          2   -1    0    0  501    0  0.00000000000E+00 -0.00000000000E+00 -0.73473932213E+03  0.73473932214E+03  0.25500000000E-02 0.  1.
    5000001    1    1    2    0    0  0.74861547011E+02  0.36747130912E+02 -0.10842461777E+03  0.23574244546E+03  0.19200000000E+03 0.  0.
   -5000001    1    1    2    0    0 -0.74861547011E+02 -0.36747130912E+02 -0.54318624824E+03  0.58212533283E+03  0.19200000000E+03 0.  0.
<mgrwt>
<rscale>  0 0.49427824E+03</rscale>
<asrwt>0</asrwt>
<pdfrwt beam="1">  1        2 0.10496276E+00 0.49427824E+03</pdfrwt>
<pdfrwt beam="2">  1       -2 0.11875494E-01 0.49427824E+03</pdfrwt>
<totfact> 0.21879763E+03</totfact>
</mgrwt>
</event>
<event>
 4    1  0.5455400E-005  0.9073383E+03  0.7818608E-02  0.9416454E-01
         -2   -1    0    0    0  501 -0.00000000000E+00  0.00000000000E+00  0.24526948247E+03  0.24526948248E+03  0.25500000000E-02 0. -1.
          2   -1    0    0  501    0  0.00000000000E+00 -0.00000000000E+00 -0.83914098575E+03  0.83914098575E+03  0.25500000000E-02 0.  1.
    5000001    1    1    2    0    0 -0.18610572609E+03 -0.35233730293E+03 -0.17638038542E+03  0.47618374256E+03  0.19200000000E+03 0.  0.
   -5000001    1    1    2    0    0  0.18610572609E+03  0.35233730293E+03 -0.41749111786E+03  0.60822672567E+03  0.19200000000E+03 0.  0.
<mgrwt>
<rscale>  0 0.90733825E+03</rscale>
<asrwt>0</asrwt>
<pdfrwt beam="1">  1        2 0.11987728E+00 0.90733825E+03</pdfrwt>
<pdfrwt beam="2">  1       -2 0.35038498E-01 0.90733825E+03</pdfrwt>
<totfact> 0.27304094E+02</totfact>
</mgrwt>
</event>
<event>
 4    1  0.5455400E-005  0.7261560E+03  0.7818608E-02  0.9673519E-01
          2   -1    0    0  501    0  0.00000000000E+00  0.00000000000E+00  0.32453099764E+04  0.32453099764E+04  0.25500000000E-02 0.  1.
         -2   -1    0    0    0  501 -0.00000000000E+00 -0.00000000000E+00 -0.40620353622E+02  0.40620353702E+02  0.25500000000E-02 0. -1.
    5000001    1    1    2    0    0 -0.63573415079E+02 -0.25967984815E+03  0.90885996517E+03  0.96662590433E+03  0.19200000000E+03 0.  0.
   -5000001    1    1    2    0    0  0.63573415079E+02  0.25967984815E+03  0.22958296576E+04  0.23193044257E+04  0.19200000000E+03 0.  0.
<mgrwt>
<rscale>  0 0.72615601E+03</rscale>
<asrwt>0</asrwt>
<pdfrwt beam="1">  1        2 0.46361603E+00 0.72615601E+03</pdfrwt>
<pdfrwt beam="2">  1       -2 0.58029036E-02 0.72615601E+03</pdfrwt>
<totfact> 0.29578006E+02</totfact>
</mgrwt>
</event>
<event>
 4    1  0.5455400E-005  0.8363983E+03  0.7818608E-02  0.9508777E-01
          2   -1    0    0  501    0  0.00000000000E+00  0.00000000000E+00  0.25518388013E+04  0.25518388013E+04  0.25500000000E-02 0.  1.
         -2   -1    0    0    0  501 -0.00000000000E+00 -0.00000000000E+00 -0.68535098030E+02  0.68535098077E+02  0.25500000000E-02 0. -1.
    5000001    1    1    2    0    0  0.37563115934E+02 -0.36900204942E+03  0.11749696502E+04  0.12469928545E+04  0.19200000000E+03 0.  0.
   -5000001    1    1    2    0    0 -0.37563115934E+02  0.36900204942E+03  0.13083340531E+04  0.13733810449E+04  0.19200000000E+03 0.  0.
<mgrwt>
<rscale>  0 0.83639828E+03</rscale>
<asrwt>0</asrwt>
<pdfrwt beam="1">  1        2 0.36454837E+00 0.83639828E+03</pdfrwt>
<pdfrwt beam="2">  1       -2 0.97907291E-02 0.83639828E+03</pdfrwt>
<totfact> 0.30175560E+02</totfact>
</mgrwt>
</event>
<event>
 4    1  0.5455400E-005  0.6185200E+03  0.7818608E-02  0.9867711E-01
         -2   -1    0    0    0  501 -0.00000000000E+00  0.00000000000E+00  0.32166582104E+02  0.32166582205E+02  0.25500000000E-02 0. -1.
          2   -1    0    0  501    0  0.00000000000E+00 -0.00000000000E+00 -0.29733260787E+04  0.29733260787E+04  0.25500000000E-02 0.  1.
    5000001    1    1    2    0    0  0.16590239016E+03 -0.96939794421E+02 -0.21889615855E+04  0.22057510625E+04  0.19200000000E+03 0.  0.
   -5000001    1    1    2    0    0 -0.16590239016E+03  0.96939794421E+02 -0.75219791106E+03  0.79974159840E+03  0.19200000000E+03 0.  0.
<mgrwt>
<rscale>  0 0.61851997E+03</rscale>
<asrwt>0</asrwt>
<pdfrwt beam="1">  1        2 0.42476069E+00 0.61851997E+03</pdfrwt>
<pdfrwt beam="2">  1       -2 0.45952279E-02 0.61851997E+03</pdfrwt>
<totfact> 0.60889405E+02</totfact>
</mgrwt>
</event>
<event>
 4    1  0.5455400E-005  0.8238175E+03  0.7818608E-02  0.9526168E-01
          2   -1    0    0  501    0  0.00000000000E+00  0.00000000000E+00  0.48867682111E+03  0.48867682112E+03  0.25500000000E-02 0.  1.
         -2   -1    0    0    0  501 -0.00000000000E+00 -0.00000000000E+00 -0.34720047352E+03  0.34720047353E+03  0.25500000000E-02 0. -1.
    5000001    1    1    2    0    0 -0.35673161269E+03 -0.68698398892E+02  0.99932813657E+02  0.42287998386E+03  0.19200000000E+03 0.  0.
   -5000001    1    1    2    0    0  0.35673161269E+03  0.68698398892E+02  0.41543533933E+02  0.41299731078E+03  0.19200000000E+03 0.  0.
<mgrwt>
<rscale>  0 0.82381751E+03</rscale>
<asrwt>0</asrwt>
<pdfrwt beam="1">  1        2 0.69810974E-01 0.82381751E+03</pdfrwt>
<pdfrwt beam="2">  1       -2 0.49600068E-01 0.82381751E+03</pdfrwt>
<totfact> 0.26663064E+02</totfact>
</mgrwt>
</event>
<event>
 4    1  0.5455400E-005  0.1195356E+04  0.7818608E-02  0.9116932E-01
          2   -1    0    0  501    0  0.00000000000E+00  0.00000000000E+00  0.12349838442E+04  0.12349838442E+04  0.25500000000E-02 0.  1.
         -2   -1    0    0    0  501 -0.00000000000E+00 -0.00000000000E+00 -0.28924971632E+03  0.28924971633E+03  0.25500000000E-02 0. -1.
    5000001    1    1    2    0    0  0.28377753631E+03 -0.46583318948E+03  0.66551076955E+03  0.88164552680E+03  0.19200000000E+03 0.  0.
   -5000001    1    1    2    0    0 -0.28377753631E+03  0.46583318948E+03  0.28022335834E+03  0.64258803374E+03  0.19200000000E+03 0.  0.
<mgrwt>
<rscale>  0 0.11953556E+04</rscale>
<asrwt>0</asrwt>
<pdfrwt beam="1">  1        2 0.17642626E+00 0.11953556E+04</pdfrwt>
<pdfrwt beam="2">  1       -2 0.41321388E-01 0.11953556E+04</pdfrwt>
<totfact> 0.11172319E+02</totfact>
</mgrwt>
</event>
<event>
 4    1  0.5455400E-005  0.1007713E+04  0.7818608E-02  0.9300126E-01
          2   -1    0    0  501    0  0.00000000000E+00  0.00000000000E+00  0.13149924831E+04  0.13149924831E+04  0.25500000000E-02 0.  1.
         -2   -1    0    0    0  501 -0.00000000000E+00 -0.00000000000E+00 -0.19305902730E+03  0.19305902732E+03  0.25500000000E-02 0. -1.
    5000001    1    1    2    0    0  0.27220619342E+03  0.23506079167E+03  0.11789530836E+03  0.42439732710E+03  0.19200000000E+03 0.  0.
   -5000001    1    1    2    0    0 -0.27220619342E+03 -0.23506079167E+03  0.10040381474E+04  0.10836541833E+04  0.19200000000E+03 0.  0.
<mgrwt>
<rscale>  0 0.10077126E+04</rscale>
<asrwt>0</asrwt>
<pdfrwt beam="1">  1        2 0.18785607E+00 0.10077126E+04</pdfrwt>
<pdfrwt beam="2">  1       -2 0.27579861E-01 0.10077126E+04</pdfrwt>
<totfact> 0.21971112E+02</totfact>
</mgrwt>
</event>
<event>
 4    1  0.5455400E-005  0.5479835E+03  0.7818608E-02  0.1001962E+00
         -2   -1    0    0    0  501 -0.00000000000E+00  0.00000000000E+00  0.87005591977E+02  0.87005592014E+02  0.25500000000E-02 0. -1.
          2   -1    0    0  501    0  0.00000000000E+00 -0.00000000000E+00 -0.86283500044E+03  0.86283500045E+03  0.25500000000E-02 0.  1.
    5000001    1    1    2    0    0 -0.69039202092E+02  0.18280389806E+03 -0.37945973773E+03  0.46801428304E+03  0.19200000000E+03 0.  0.
   -5000001    1    1    2    0    0  0.69039202092E+02 -0.18280389806E+03 -0.39636967074E+03  0.48182630942E+03  0.19200000000E+03 0.  0.
<mgrwt>
<rscale>  0 0.54798347E+03</rscale>
<asrwt>0</asrwt>
<pdfrwt beam="1">  1        2 0.12326214E+00 0.54798347E+03</pdfrwt>
<pdfrwt beam="2">  1       -2 0.12429371E-01 0.54798347E+03</pdfrwt>
<totfact> 0.16551693E+03</totfact>
</mgrwt>
</event>
<event>
 4    1  0.5455400E-005  0.1194814E+04  0.7818608E-02  0.9117408E-01
          2   -1    0    0  501    0  0.00000000000E+00  0.00000000000E+00  0.91528637064E+03  0.91528637064E+03  0.25500000000E-02 0.  1.
         -2   -1    0    0    0  501 -0.00000000000E+00 -0.00000000000E+00 -0.38992757546E+03  0.38992757547E+03  0.25500000000E-02 0. -1.
    5000001    1    1    2    0    0  0.54939013034E+03  0.13472319981E+03  0.25483695646E+03  0.64945032932E+03  0.19200000000E+03 0.  0.
   -5000001    1    1    2    0    0 -0.54939013034E+03 -0.13472319981E+03  0.27052183872E+03  0.65576361679E+03  0.19200000000E+03 0.  0.
<mgrwt>
<rscale>  0 0.11948145E+04</rscale>
<asrwt>0</asrwt>
<pdfrwt beam="1">  1        2 0.13075520E+00 0.11948145E+04</pdfrwt>
<pdfrwt beam="2">  1       -2 0.55703939E-01 0.11948145E+04</pdfrwt>
<totfact> 0.95019325E+01</totfact>
</mgrwt>
</event>
<event>
 4    1  0.5455400E-005  0.6800013E+03  0.7818608E-02  0.9752057E-01
         -2   -1    0    0    0  501 -0.00000000000E+00  0.00000000000E+00  0.35662175756E+03  0.35662175757E+03  0.25500000000E-02 0. -1.
          2   -1    0    0  501    0  0.00000000000E+00 -0.00000000000E+00 -0.32415421798E+03  0.32415421799E+03  0.25500000000E-02 0.  1.
    5000001    1    1    2    0    0 -0.14194167294E+03 -0.23015119360E+03  0.91282068809E+02  0.34396718814E+03  0.19200000000E+03 0.  0.
   -5000001    1    1    2    0    0  0.14194167294E+03  0.23015119360E+03 -0.58814529224E+02  0.33680878742E+03  0.19200000000E+03 0.  0.
<mgrwt>
<rscale>  0 0.68000131E+03</rscale>
<asrwt>0</asrwt>
<pdfrwt beam="1">  1        2 0.46307745E-01 0.68000131E+03</pdfrwt>
<pdfrwt beam="2">  1       -2 0.50945966E-01 0.68000131E+03</pdfrwt>
<totfact> 0.40171356E+02</totfact>
</mgrwt>
</event>
<event>
 4    1  0.5455400E-005  0.4815353E+03  0.7818608E-02  0.1018714E+00
         -2   -1    0    0    0  501 -0.00000000000E+00  0.00000000000E+00  0.18677487355E+02  0.18677487529E+02  0.25500000000E-02 0. -1.
          2   -1    0    0  501    0  0.00000000000E+00 -0.00000000000E+00 -0.31036864908E+04  0.31036864908E+04  0.25500000000E-02 0.  1.
    5000001    1    1    2    0    0 -0.86677433641E+02  0.96945592036E+02 -0.19624094216E+04  0.19760632994E+04  0.19200000000E+03 0.  0.
   -5000001    1    1    2    0    0  0.86677433641E+02 -0.96945592036E+02 -0.11225995818E+04  0.11463006789E+04  0.19200000000E+03 0.  0.
<mgrwt>
<rscale>  0 0.48153532E+03</rscale>
<asrwt>0</asrwt>
<pdfrwt beam="1">  1        2 0.44338346E+00 0.48153532E+03</pdfrwt>
<pdfrwt beam="2">  1       -2 0.26682145E-02 0.48153532E+03</pdfrwt>
<totfact> 0.12002489E+03</totfact>
</mgrwt>
</event>
<event>
 4    1  0.5455400E-005  0.4248430E+03  0.7818608E-02  0.1035502E+00
         -2   -1    0    0    0  501 -0.00000000000E+00  0.00000000000E+00  0.94564241903E+03  0.94564241904E+03  0.25500000000E-02 0. -1.
          2   -1    0    0  501    0  0.00000000000E+00 -0.00000000000E+00 -0.47716659254E+02  0.47716659322E+02  0.25500000000E-02 0.  1.
    5000001    1    1    2    0    0 -0.80006362772E+02 -0.42709592642E+02  0.46255044369E+03  0.50896172778E+03  0.19200000000E+03 0.  0.
   -5000001    1    1    2    0    0  0.80006362772E+02  0.42709592642E+02  0.43537531609E+03  0.48439735058E+03  0.19200000000E+03 0.  0.
<mgrwt>
<rscale>  0 0.42484302E+03</rscale>
<asrwt>0</asrwt>
<pdfrwt beam="1">  1        2 0.68166659E-02 0.42484302E+03</pdfrwt>
<pdfrwt beam="2">  1       -2 0.13509177E+00 0.42484302E+03</pdfrwt>
<totfact> 0.43541271E+02</totfact>
</mgrwt>
</event>
<event>
 4    1  0.5455400E-005  0.5018438E+03  0.7818608E-02  0.1013299E+00
         -2   -1    0    0    0  501 -0.00000000000E+00  0.00000000000E+00  0.27296186963E+03  0.27296186965E+03  0.25500000000E-02 0. -1.
          2   -1    0    0  501    0  0.00000000000E+00 -0.00000000000E+00 -0.23066154277E+03  0.23066154279E+03  0.25500000000E-02 0.  1.
    5000001    1    1    2    0    0  0.52362877211E+02  0.14927666296E+03 -0.11713680120E+02  0.24905140697E+03  0.19200000000E+03 0.  0.
   -5000001    1    1    2    0    0 -0.52362877211E+02 -0.14927666296E+03  0.54014006980E+02  0.25457200546E+03  0.19200000000E+03 0.  0.
<mgrwt>
<rscale>  0 0.50184382E+03</rscale>
<asrwt>0</asrwt>
<pdfrwt beam="1">  1        2 0.32951649E-01 0.50184382E+03</pdfrwt>
<pdfrwt beam="2">  1       -2 0.38994553E-01 0.50184382E+03</pdfrwt>
<totfact> 0.99654833E+02</totfact>
</mgrwt>
</event>
<event>
 4    1  0.5455400E-005  0.4611612E+03  0.7818608E-02  0.1024445E+00
         -2   -1    0    0    0  501 -0.00000000000E+00  0.00000000000E+00  0.45411991330E+02  0.45411991402E+02  0.25500000000E-02 0. -1.
          2   -1    0    0  501    0  0.00000000000E+00 -0.00000000000E+00 -0.11707792761E+04  0.11707792761E+04  0.25500000000E-02 0.  1.
    5000001    1    1    2    0    0  0.71233303648E+02  0.10596397890E+03 -0.56022378172E+03  0.60581947309E+03  0.19200000000E+03 0.  0.
   -5000001    1    1    2    0    0 -0.71233303648E+02 -0.10596397890E+03 -0.56514350302E+03  0.61037179438E+03  0.19200000000E+03 0.  0.
<mgrwt>
<rscale>  0 0.46116122E+03</rscale>
<asrwt>0</asrwt>
<pdfrwt beam="1">  1        2 0.16725416E+00 0.46116122E+03</pdfrwt>
<pdfrwt beam="2">  1       -2 0.64874281E-02 0.46116122E+03</pdfrwt>
<totfact> 0.30594460E+03</totfact>
</mgrwt>
</event>
<event>
 4    1  0.5455400E-005  0.1450420E+04  0.7818608E-02  0.8918109E-01
          2   -1    0    0  501    0  0.00000000000E+00  0.00000000000E+00  0.53935873376E+03  0.53935873376E+03  0.25500000000E-02 0.  1.
         -2   -1    0    0    0  501 -0.00000000000E+00 -0.00000000000E+00 -0.97510186036E+03  0.97510186036E+03  0.25500000000E-02 0. -1.
    5000001    1    1    2    0    0  0.33939057284E+03 -0.60334717278E+03 -0.11423217207E+03  0.72741099866E+03  0.19200000000E+03 0.  0.
   -5000001    1    1    2    0    0 -0.33939057284E+03  0.60334717278E+03 -0.32151095453E+03  0.78704959546E+03  0.19200000000E+03 0.  0.
<mgrwt>
<rscale>  0 0.14504202E+04</rscale>
<asrwt>0</asrwt>
<pdfrwt beam="1">  1        2 0.77051248E-01 0.14504202E+04</pdfrwt>
<pdfrwt beam="2">  1       -2 0.13930027E+00 0.14504202E+04</pdfrwt>
<totfact> 0.21731346E+01</totfact>
</mgrwt>
</event>
<event>
 4    1  0.5455400E-005  0.5726271E+03  0.7818608E-02  0.9963882E-01
         -2   -1    0    0    0  501 -0.00000000000E+00  0.00000000000E+00  0.16599292447E+03  0.16599292449E+03  0.25500000000E-02 0. -1.
          2   -1    0    0  501    0  0.00000000000E+00 -0.00000000000E+00 -0.49384909987E+03  0.49384909988E+03  0.25500000000E-02 0.  1.
    5000001    1    1    2    0    0  0.20759106308E+03 -0.44238018513E+02 -0.17288385983E+03  0.33437087305E+03  0.19200000000E+03 0.  0.
   -5000001    1    1    2    0    0 -0.20759106308E+03  0.44238018513E+02 -0.15497231557E+03  0.32547115132E+03  0.19200000000E+03 0.  0.
<mgrwt>
<rscale>  0 0.57262713E+03</rscale>
<asrwt>0</asrwt>
<pdfrwt beam="1">  1        2 0.70549871E-01 0.57262713E+03</pdfrwt>
<pdfrwt beam="2">  1       -2 0.23713275E-01 0.57262713E+03</pdfrwt>
<totfact> 0.10752270E+03</totfact>
</mgrwt>
</event>
<event>
 4    1  0.5455400E-005  0.5247566E+03  0.7818608E-02  0.1007512E+00
          2   -1    0    0  501    0  0.00000000000E+00  0.00000000000E+00  0.46749100943E+03  0.46749100943E+03  0.25500000000E-02 0.  1.
         -2   -1    0    0    0  501 -0.00000000000E+00 -0.00000000000E+00 -0.14725923579E+03  0.14725923581E+03  0.25500000000E-02 0. -1.
    5000001    1    1    2    0    0 -0.36871609311E+02  0.16808508465E+03  0.10312940868E+03  0.27769009019E+03  0.19200000000E+03 0.  0.
   -5000001    1    1    2    0    0  0.36871609311E+02 -0.16808508465E+03  0.21710236496E+03  0.33706015506E+03  0.19200000000E+03 0.  0.
<mgrwt>
<rscale>  0 0.52475659E+03</rscale>
<asrwt>0</asrwt>
<pdfrwt beam="1">  1        2 0.66784429E-01 0.52475659E+03</pdfrwt>
<pdfrwt beam="2">  1       -2 0.21037034E-01 0.52475659E+03</pdfrwt>
<totfact> 0.14131598E+03</totfact>
</mgrwt>
</event>
<event>
 4    1  0.5455400E-005  0.9585878E+03  0.7818608E-02  0.9355169E-01
         -2   -1    0    0    0  501 -0.00000000000E+00  0.00000000000E+00  0.15103051218E+03  0.15103051220E+03  0.25500000000E-02 0. -1.
          2   -1    0    0  501    0  0.00000000000E+00 -0.00000000000E+00 -0.15210345203E+04  0.15210345203E+04  0.25500000000E-02 0.  1.
    5000001    1    1    2    0    0 -0.38391328230E+03 -0.32050981557E+02 -0.31728151079E+03  0.53474127467E+03  0.19200000000E+03 0.  0.
   -5000001    1    1    2    0    0  0.38391328230E+03  0.32050981557E+02 -0.10527224973E+04  0.11373237578E+04  0.19200000000E+03 0.  0.
<mgrwt>
<rscale>  0 0.95858776E+03</rscale>
<asrwt>0</asrwt>
<pdfrwt beam="1">  1        2 0.21729064E+00 0.95858776E+03</pdfrwt>
<pdfrwt beam="2">  1       -2 0.21575788E-01 0.95858776E+03</pdfrwt>
<totfact> 0.26576257E+02</totfact>
</mgrwt>
</event>
<event>
 4    1  0.5455400E-005  0.4159866E+03  0.7818608E-02  0.1038380E+00
          2   -1    0    0  501    0  0.00000000000E+00  0.00000000000E+00  0.80482702940E+03  0.80482702940E+03  0.25500000000E-02 0.  1.
         -2   -1    0    0    0  501 -0.00000000000E+00 -0.00000000000E+00 -0.53752189109E+02  0.53752189169E+02  0.25500000000E-02 0. -1.
    5000001    1    1    2    0    0  0.14819784212E+02  0.72959021004E+02  0.31520165375E+03  0.37650860186E+03  0.19200000000E+03 0.  0.
   -5000001    1    1    2    0    0 -0.14819784212E+02 -0.72959021004E+02  0.43587318654E+03  0.48207061671E+03  0.19200000000E+03 0.  0.
<mgrwt>
<rscale>  0 0.41598661E+03</rscale>
<asrwt>0</asrwt>
<pdfrwt beam="1">  1        2 0.11497528E+00 0.41598661E+03</pdfrwt>
<pdfrwt beam="2">  1       -2 0.76788848E-02 0.41598661E+03</pdfrwt>
<totfact> 0.39262321E+03</totfact>
</mgrwt>
</event>
<event>
 4    1  0.5455400E-005  0.5189703E+03  0.7818608E-02  0.1008943E+00
         -2   -1    0    0    0  501 -0.00000000000E+00  0.00000000000E+00  0.58460559269E+03  0.58460559270E+03  0.25500000000E-02 0. -1.
          2   -1    0    0  501    0  0.00000000000E+00 -0.00000000000E+00 -0.11517600829E+03  0.11517600831E+03  0.25500000000E-02 0.  1.
    5000001    1    1    2    0    0  0.13573361810E+03  0.10953253303E+03  0.22541689149E+03  0.34365355497E+03  0.19200000000E+03 0.  0.
   -5000001    1    1    2    0    0 -0.13573361810E+03 -0.10953253303E+03  0.24401269292E+03  0.35612804604E+03  0.19200000000E+03 0.  0.
<mgrwt>
<rscale>  0 0.51897028E+03</rscale>
<asrwt>0</asrwt>
<pdfrwt beam="1">  1        2 0.16453715E-01 0.51897028E+03</pdfrwt>
<pdfrwt beam="2">  1       -2 0.83515087E-01 0.51897028E+03</pdfrwt>
<totfact> 0.45387126E+02</totfact>
</mgrwt>
</event>
<event>
 4    1  0.5455400E-005  0.4534457E+03  0.7818608E-02  0.1026699E+00
         -2   -1    0    0    0  501 -0.00000000000E+00  0.00000000000E+00  0.21681970259E+03  0.21681970260E+03  0.25500000000E-02 0. -1.
          2   -1    0    0  501    0  0.00000000000E+00 -0.00000000000E+00 -0.23707832115E+03  0.23707832116E+03  0.25500000000E-02 0.  1.
    5000001    1    1    2    0    0 -0.39661377318E+02 -0.91101573138E+02  0.58252300708E+02  0.22389696741E+03  0.19200000000E+03 0.  0.
   -5000001    1    1    2    0    0  0.39661377318E+02  0.91101573138E+02 -0.78510919264E+02  0.23000105635E+03  0.19200000000E+03 0.  0.
<mgrwt>
<rscale>  0 0.45344570E+03</rscale>
<asrwt>0</asrwt>
<pdfrwt beam="1">  1        2 0.33868332E-01 0.45344570E+03</pdfrwt>
<pdfrwt beam="2">  1       -2 0.30974243E-01 0.45344570E+03</pdfrwt>
<totfact> 0.14913574E+03</totfact>
</mgrwt>
</event>
<event>
 4    1  0.5455400E-005  0.4827720E+03  0.7818608E-02  0.1018376E+00
         -2   -1    0    0    0  501 -0.00000000000E+00  0.00000000000E+00  0.10285954880E+03  0.10285954883E+03  0.25500000000E-02 0. -1.
          2   -1    0    0  501    0  0.00000000000E+00 -0.00000000000E+00 -0.56647340959E+03  0.56647340959E+03  0.25500000000E-02 0.  1.
    5000001    1    1    2    0    0 -0.82511498901E+02  0.10966355829E+03 -0.30207830744E+03  0.38333998916E+03  0.19200000000E+03 0.  0.
   -5000001    1    1    2    0    0  0.82511498901E+02 -0.10966355829E+03 -0.16153555335E+03  0.28599296926E+03  0.19200000000E+03 0.  0.
<mgrwt>
<rscale>  0 0.48277199E+03</rscale>
<asrwt>0</asrwt>
<pdfrwt beam="1">  1        2 0.80924771E-01 0.48277199E+03</pdfrwt>
<pdfrwt beam="2">  1       -2 0.14694222E-01 0.48277199E+03</pdfrwt>
<totfact> 0.20960907E+03</totfact>
</mgrwt>
</event>
<event>
 4    1  0.5455400E-005  0.7940117E+03  0.7818608E-02  0.9568726E-01
          2   -1    0    0  501    0  0.00000000000E+00  0.00000000000E+00  0.48094924031E+03  0.48094924032E+03  0.25500000000E-02 0. -1.
         -2   -1    0    0    0  501 -0.00000000000E+00 -0.00000000000E+00 -0.32771363767E+03  0.32771363768E+03  0.25500000000E-02 0.  1.
    5000001    1    1    2    0    0  0.14750142159E+03 -0.31433529560E+03  0.62717602434E+02  0.40169745467E+03  0.19200000000E+03 0.  0.
   -5000001    1    1    2    0    0 -0.14750142159E+03  0.31433529560E+03  0.90518000203E+02  0.40696542334E+03  0.19200000000E+03 0.  0.
<mgrwt>
<rscale>  0 0.79401165E+03</rscale>
<asrwt>0</asrwt>
<pdfrwt beam="1">  1        2 0.68707034E-01 0.79401165E+03</pdfrwt>
<pdfrwt beam="2">  1       -2 0.46816234E-01 0.79401165E+03</pdfrwt>
<totfact> 0.30546060E+02</totfact>
</mgrwt>
</event>
<event>
 4    1  0.5455400E-005  0.5159775E+03  0.7818608E-02  0.1009691E+00
         -2   -1    0    0    0  501 -0.00000000000E+00  0.00000000000E+00  0.15349330402E+02  0.15349330614E+02  0.25500000000E-02 0. -1.
          2   -1    0    0  501    0  0.00000000000E+00 -0.00000000000E+00 -0.43362273998E+04  0.43362273998E+04  0.25500000000E-02 0.  1.
    5000001    1    1    2    0    0 -0.13937795336E+03  0.97872802545E+02 -0.19390835606E+04  0.19559944669E+04  0.19200000000E+03 0.  0.
   -5000001    1    1    2    0    0  0.13937795336E+03 -0.97872802545E+02 -0.23817945088E+04  0.23955822635E+04  0.19200000000E+03 0.  0.
<mgrwt>
<rscale>  0 0.51597747E+03</rscale>
<asrwt>0</asrwt>
<pdfrwt beam="1">  1        2 0.61946028E+00 0.51597747E+03</pdfrwt>
<pdfrwt beam="2">  1       -2 0.21927643E-02 0.51597747E+03</pdfrwt>
<totfact> 0.27138751E+02</totfact>
</mgrwt>
</event>
<event>
 4    1  0.5455400E-005  0.7383514E+03  0.7818608E-02  0.9653804E-01
         -2   -1    0    0    0  501 -0.00000000000E+00  0.00000000000E+00  0.25229418852E+03  0.25229418853E+03  0.25500000000E-02 0. -1.
          2   -1    0    0  501    0  0.00000000000E+00 -0.00000000000E+00 -0.54020546197E+03  0.54020546198E+03  0.25500000000E-02 0.  1.
    5000001    1    1    2    0    0  0.29103826867E+03  0.10028215724E+03 -0.21728043274E+03  0.42288836747E+03  0.19200000000E+03 0.  0.
   -5000001    1    1    2    0    0 -0.29103826867E+03 -0.10028215724E+03 -0.70630840711E+02  0.36961128304E+03  0.19200000000E+03 0.  0.
<mgrwt>
<rscale>  0 0.73835140E+03</rscale>
<asrwt>0</asrwt>
<pdfrwt beam="1">  1        2 0.77172208E-01 0.73835140E+03</pdfrwt>
<pdfrwt beam="2">  1       -2 0.36042027E-01 0.73835140E+03</pdfrwt>
<totfact> 0.44692196E+02</totfact>
</mgrwt>
</event>
<event>
 4    1  0.5455400E-005  0.7798034E+03  0.7818608E-02  0.9589720E-01
         -2   -1    0    0    0  501 -0.00000000000E+00  0.00000000000E+00  0.61031965490E+03  0.61031965491E+03  0.25500000000E-02 0. -1.
          2   -1    0    0  501    0  0.00000000000E+00 -0.00000000000E+00 -0.24908808134E+03  0.24908808136E+03  0.25500000000E-02 0.  1.
    5000001    1    1    2    0    0 -0.17130682126E+03 -0.21946902397E+02 -0.14131996150E+03  0.29438584384E+03  0.19200000000E+03 0.  0.
   -5000001    1    1    2    0    0  0.17130682126E+03  0.21946902397E+02  0.50255153506E+03  0.56502189243E+03  0.19200000000E+03 0.  0.
<mgrwt>
<rscale>  0 0.77980344E+03</rscale>
<asrwt>0</asrwt>
<pdfrwt beam="1">  1        2 0.35584011E-01 0.77980344E+03</pdfrwt>
<pdfrwt beam="2">  1       -2 0.87188523E-01 0.77980344E+03</pdfrwt>
<totfact> 0.16822628E+02</totfact>
</mgrwt>
</event>
<event>
 4    1  0.5455400E-005  0.5028091E+03  0.7818608E-02  0.1013048E+00
          2   -1    0    0  501    0  0.00000000000E+00  0.00000000000E+00  0.30862346533E+03  0.30862346534E+03  0.25500000000E-02 0.  1.
         -2   -1    0    0    0  501 -0.00000000000E+00 -0.00000000000E+00 -0.20479406290E+03  0.20479406291E+03  0.25500000000E-02 0. -1.
    5000001    1    1    2    0    0  0.84052270275E+01 -0.14462228292E+03  0.12662952213E+03  0.27181848435E+03  0.19200000000E+03 0.  0.
   -5000001    1    1    2    0    0 -0.84052270275E+01  0.14462228292E+03 -0.22800119694E+02  0.24159904391E+03  0.19200000000E+03 0.  0.
<mgrwt>
<rscale>  0 0.50280912E+03</rscale>
<asrwt>0</asrwt>
<pdfrwt beam="1">  1        2 0.44089067E-01 0.50280912E+03</pdfrwt>
<pdfrwt beam="2">  1       -2 0.29256294E-01 0.50280912E+03</pdfrwt>
<totfact> 0.12397950E+03</totfact>
</mgrwt>
</event>
<event>
 4    1  0.5455400E-005  0.4298214E+03  0.7818608E-02  0.1033916E+00
          2   -1    0    0  501    0  0.00000000000E+00  0.00000000000E+00  0.13948539203E+04  0.13948539203E+04  0.25500000000E-02 0.  1.
         -2   -1    0    0    0  501 -0.00000000000E+00 -0.00000000000E+00 -0.33112146603E+02  0.33112146702E+02  0.25500000000E-02 0. -1.
    5000001    1    1    2    0    0  0.89231322661E+02 -0.30814167049E+02  0.61352984629E+03  0.64976504532E+03  0.19200000000E+03 0.  0.
   -5000001    1    1    2    0    0 -0.89231322661E+02  0.30814167049E+02  0.74821192745E+03  0.77820102172E+03  0.19200000000E+03 0.  0.
<mgrwt>
<rscale>  0 0.42982139E+03</rscale>
<asrwt>0</asrwt>
<pdfrwt beam="1">  1        2 0.19926491E+00 0.42982139E+03</pdfrwt>
<pdfrwt beam="2">  1       -2 0.47303053E-02 0.42982139E+03</pdfrwt>
<totfact> 0.37739523E+03</totfact>
</mgrwt>
</event>
<event>
 4    1  0.5455400E-005  0.8505658E+03  0.7818608E-02  0.9489578E-01
          2   -1    0    0  501    0  0.00000000000E+00  0.00000000000E+00  0.36884233341E+03  0.36884233342E+03  0.25500000000E-02 0.  1.
         -2   -1    0    0    0  501 -0.00000000000E+00 -0.00000000000E+00 -0.49036008047E+03  0.49036008048E+03  0.25500000000E-02 0. -1.
    5000001    1    1    2    0    0  0.36264996333E+03 -0.90290361116E+02  0.57443332809E+01  0.42019560038E+03  0.19200000000E+03 0.  0.
   -5000001    1    1    2    0    0 -0.36264996333E+03  0.90290361116E+02 -0.12726208034E+03  0.43900681351E+03  0.19200000000E+03 0.  0.
<mgrwt>
<rscale>  0 0.85056583E+03</rscale>
<asrwt>0</asrwt>
<pdfrwt beam="1">  1        2 0.52691762E-01 0.85056583E+03</pdfrwt>
<pdfrwt beam="2">  1       -2 0.70051440E-01 0.85056583E+03</pdfrwt>
<totfact> 0.17678534E+02</totfact>
</mgrwt>
</event>
<event>
 4    1  0.5455400E-005  0.6487623E+03  0.7818608E-02  0.9809104E-01
          2   -1    0    0  501    0  0.00000000000E+00  0.00000000000E+00  0.92999437564E+03  0.92999437565E+03  0.25500000000E-02 0.  1.
         -2   -1    0    0    0  501 -0.00000000000E+00 -0.00000000000E+00 -0.11314384742E+03  0.11314384744E+03  0.25500000000E-02 0. -1.
    5000001    1    1    2    0    0 -0.46740132464E+02 -0.24398496525E+03  0.27734686673E+03  0.41892551574E+03  0.19200000000E+03 0.  0.
   -5000001    1    1    2    0    0  0.46740132464E+02  0.24398496525E+03  0.53950366150E+03  0.62421270735E+03  0.19200000000E+03 0.  0.
<mgrwt>
<rscale>  0 0.64876233E+03</rscale>
<asrwt>0</asrwt>
<pdfrwt beam="1">  1        2 0.13285633E+00 0.64876233E+03</pdfrwt>
<pdfrwt beam="2">  1       -2 0.16163407E-01 0.64876233E+03</pdfrwt>
<totfact> 0.96312561E+02</totfact>
</mgrwt>
</event>
<event>
 4    1  0.5455400E-005  0.6259118E+03  0.7818608E-02  0.9853059E-01
         -2   -1    0    0    0  501 -0.00000000000E+00  0.00000000000E+00  0.35336575951E+03  0.35336575952E+03  0.25500000000E-02 0. -1.
          2   -1    0    0  501    0  0.00000000000E+00 -0.00000000000E+00 -0.27716721317E+03  0.27716721318E+03  0.25500000000E-02 0.  1.
    5000001    1    1    2    0    0 -0.19690002979E+03  0.14934440549E+03  0.40121484733E+02  0.31551086624E+03  0.19200000000E+03 0.  0.
   -5000001    1    1    2    0    0  0.19690002979E+03 -0.14934440549E+03  0.36077061609E+02  0.31502210645E+03  0.19200000000E+03 0.  0.
<mgrwt>
<rscale>  0 0.62591182E+03</rscale>
<asrwt>0</asrwt>
<pdfrwt beam="1">  1        2 0.39595316E-01 0.62591182E+03</pdfrwt>
<pdfrwt beam="2">  1       -2 0.50480823E-01 0.62591182E+03</pdfrwt>
<totfact> 0.48728997E+02</totfact>
</mgrwt>
</event>
<event>
 4    1  0.5455400E-005  0.4883796E+03  0.7818608E-02  0.1016857E+00
          2   -1    0    0  501    0  0.00000000000E+00  0.00000000000E+00  0.15263989445E+03  0.15263989447E+03  0.25500000000E-02 0. -1.
         -2   -1    0    0    0  501 -0.00000000000E+00 -0.00000000000E+00 -0.39064929564E+03  0.39064929565E+03  0.25500000000E-02 0.  1.
    5000001    1    1    2    0    0  0.45855532269E+02 -0.86049328817E+02 -0.24709124906E+03  0.32775799333E+03  0.19200000000E+03 0.  0.
   -5000001    1    1    2    0    0 -0.45855532269E+02  0.86049328817E+02  0.90818478755E+01  0.21553119679E+03  0.19200000000E+03 0.  0.
<mgrwt>
<rscale>  0 0.48837964E+03</rscale>
<asrwt>0</asrwt>
<pdfrwt beam="1">  1        2 0.21805699E-01 0.48837964E+03</pdfrwt>
<pdfrwt beam="2">  1       -2 0.55807042E-01 0.48837964E+03</pdfrwt>
<totfact> 0.77800061E+02</totfact>
</mgrwt>
</event>
<event>
 4    1  0.5455400E-005  0.7657190E+03  0.7818608E-02  0.9611007E-01
         -2   -1    0    0    0  501 -0.00000000000E+00  0.00000000000E+00  0.60335915148E+03  0.60335915148E+03  0.25500000000E-02 0. -1.
          2   -1    0    0  501    0  0.00000000000E+00 -0.00000000000E+00 -0.24294218024E+03  0.24294218025E+03  0.25500000000E-02 0.  1.
    5000001    1    1    2    0    0 -0.26136614835E+03  0.17712322210E+03  0.69505343478E+02  0.37600517560E+03  0.19200000000E+03 0.  0.
   -5000001    1    1    2    0    0  0.26136614835E+03 -0.17712322210E+03  0.29091162776E+03  0.47029615613E+03  0.19200000000E+03 0.  0.
<mgrwt>
<rscale>  0 0.76571898E+03</rscale>
<asrwt>0</asrwt>
<pdfrwt beam="1">  1        2 0.34706025E-01 0.76571898E+03</pdfrwt>
<pdfrwt beam="2">  1       -2 0.86194166E-01 0.76571898E+03</pdfrwt>
<totfact> 0.17768147E+02</totfact>
</mgrwt>
</event>
<event>
 4    1  0.5455400E-005  0.4712779E+03  0.7818608E-02  0.1021560E+00
          2   -1    0    0  501    0  0.00000000000E+00  0.00000000000E+00  0.97819702619E+03  0.97819702620E+03  0.25500000000E-02 0. -1.
         -2   -1    0    0    0  501 -0.00000000000E+00 -0.00000000000E+00 -0.56763332530E+02  0.56763332587E+02  0.25500000000E-02 0.  1.
    5000001    1    1    2    0    0 -0.29813508662E+01 -0.12947216169E+03  0.36524972230E+03  0.43248501563E+03  0.19200000000E+03 0.  0.
   -5000001    1    1    2    0    0  0.29813508662E+01  0.12947216169E+03  0.55618397136E+03  0.60247534315E+03  0.19200000000E+03 0.  0.
<mgrwt>
<rscale>  0 0.47127794E+03</rscale>
<asrwt>0</asrwt>
<pdfrwt beam="1">  1        2 0.13974242E+00 0.47127794E+03</pdfrwt>
<pdfrwt beam="2">  1       -2 0.81090483E-02 0.47127794E+03</pdfrwt>
<totfact> 0.27891944E+03</totfact>
</mgrwt>
</event>
<event>
 4    1  0.5455400E-005  0.4072301E+03  0.7818608E-02  0.1041305E+00
          2   -1    0    0  501    0  0.00000000000E+00  0.00000000000E+00  0.77644359232E+03  0.77644359232E+03  0.25500000000E-02 0. -1.
         -2   -1    0    0    0  501 -0.00000000000E+00 -0.00000000000E+00 -0.53396133865E+02  0.53396133926E+02  0.25500000000E-02 0.  1.
    5000001    1    1    2    0    0  0.53049655287E+02 -0.20071799881E+02  0.28588051374E+03  0.34901119067E+03  0.19200000000E+03 0.  0.
   -5000001    1    1    2    0    0 -0.53049655287E+02  0.20071799881E+02  0.43716694471E+03  0.48082853558E+03  0.19200000000E+03 0.  0.
<mgrwt>
<rscale>  0 0.40723009E+03</rscale>
<asrwt>0</asrwt>
<pdfrwt beam="1">  1        2 0.11092051E+00 0.40723009E+03</pdfrwt>
<pdfrwt beam="2">  1       -2 0.76280191E-02 0.40723009E+03</pdfrwt>
<totfact> 0.41490773E+03</totfact>
</mgrwt>
</event>
<event>
 4    1  0.5455400E-005  0.6885609E+03  0.7818608E-02  0.9736997E-01
          2   -1    0    0  501    0  0.00000000000E+00  0.00000000000E+00  0.31896509784E+04  0.31896509784E+04  0.25500000000E-02 0.  1.
         -2   -1    0    0    0  501 -0.00000000000E+00 -0.00000000000E+00 -0.37160497380E+02  0.37160497467E+02  0.25500000000E-02 0. -1.
    5000001    1    1    2    0    0  0.10287595960E+03 -0.26577355108E+03  0.16752111817E+04  0.17100922627E+04  0.19200000000E+03 0.  0.
   -5000001    1    1    2    0    0 -0.10287595960E+03  0.26577355108E+03  0.14772792993E+04  0.15167192132E+04  0.19200000000E+03 0.  0.
<mgrwt>
<rscale>  0 0.68856087E+03</rscale>
<asrwt>0</asrwt>
<pdfrwt beam="1">  1        2 0.45566451E+00 0.68856087E+03</pdfrwt>
<pdfrwt beam="2">  1       -2 0.53086416E-02 0.68856087E+03</pdfrwt>
<totfact> 0.36701504E+02</totfact>
</mgrwt>
</event>
<event>
 4    1  0.5455400E-005  0.7239221E+03  0.7818608E-02  0.9677175E-01
          2   -1    0    0  501    0  0.00000000000E+00  0.00000000000E+00  0.84689251116E+03  0.84689251116E+03  0.25500000000E-02 0.  1.
         -2   -1    0    0    0  501 -0.00000000000E+00 -0.00000000000E+00 -0.15470179988E+03  0.15470179990E+03  0.25500000000E-02 0. -1.
    5000001    1    1    2    0    0  0.81836995960E+02  0.23219613584E+03  0.59947868221E+03  0.67590756013E+03  0.19200000000E+03 0.  0.
   -5000001    1    1    2    0    0 -0.81836995960E+02 -0.23219613584E+03  0.92712029064E+02  0.32568675094E+03  0.19200000000E+03 0.  0.
<mgrwt>
<rscale>  0 0.72392208E+03</rscale>
<asrwt>0</asrwt>
<pdfrwt beam="1">  1        2 0.12098465E+00 0.72392208E+03</pdfrwt>
<pdfrwt beam="2">  1       -2 0.22100257E-01 0.72392208E+03</pdfrwt>
<totfact> 0.63312874E+02</totfact>
</mgrwt>
</event>
<event>
 4    1  0.5455400E-005  0.7763398E+03  0.7818608E-02  0.9594910E-01
         -2   -1    0    0    0  501 -0.00000000000E+00  0.00000000000E+00  0.64517393115E+02  0.64517393165E+02  0.25500000000E-02 0. -1.
          2   -1    0    0  501    0  0.00000000000E+00 -0.00000000000E+00 -0.23354303772E+04  0.23354303772E+04  0.25500000000E-02 0.  1.
    5000001    1    1    2    0    0 -0.26498685475E+03 -0.19211311254E+03 -0.88267454290E+03  0.96078292547E+03  0.19200000000E+03 0.  0.
   -5000001    1    1    2    0    0  0.26498685475E+03  0.19211311254E+03 -0.13882384412E+04  0.14391648449E+04  0.19200000000E+03 0.  0.
<mgrwt>
<rscale>  0 0.77633982E+03</rscale>
<asrwt>0</asrwt>
<pdfrwt beam="1">  1        2 0.33363286E+00 0.77633982E+03</pdfrwt>
<pdfrwt beam="2">  1       -2 0.92167719E-02 0.77633982E+03</pdfrwt>
<totfact> 0.43239765E+02</totfact>
</mgrwt>
</event>
<event>
 4    1  0.5455400E-005  0.4195719E+03  0.7818608E-02  0.1037206E+00
          2   -1    0    0  501    0  0.00000000000E+00  0.00000000000E+00  0.29456416983E+03  0.29456416984E+03  0.25500000000E-02 0.  1.
         -2   -1    0    0    0  501 -0.00000000000E+00 -0.00000000000E+00 -0.14940769570E+03  0.14940769572E+03  0.25500000000E-02 0. -1.
    5000001    1    1    2    0    0 -0.16966523704E+02 -0.29697570437E+02 -0.92243143823E+01  0.19524061205E+03  0.19200000000E+03 0.  0.
   -5000001    1    1    2    0    0  0.16966523704E+02  0.29697570437E+02  0.15438078851E+03  0.24873125352E+03  0.19200000000E+03 0.  0.
<mgrwt>
<rscale>  0 0.41957194E+03</rscale>
<asrwt>0</asrwt>
<pdfrwt beam="1">  1        2 0.42080596E-01 0.41957194E+03</pdfrwt>
<pdfrwt beam="2">  1       -2 0.21343957E-01 0.41957194E+03</pdfrwt>
<totfact> 0.22882636E+03</totfact>
</mgrwt>
</event>
<event>
 4    1  0.5455400E-005  0.9806746E+03  0.7818608E-02  0.9329998E-01
         -2   -1    0    0    0  501 -0.00000000000E+00  0.00000000000E+00  0.13845051070E+03  0.13845051072E+03  0.25500000000E-02 0. -1.
          2   -1    0    0  501    0  0.00000000000E+00 -0.00000000000E+00 -0.17365818933E+04  0.17365818933E+04  0.25500000000E-02 0.  1.
    5000001    1    1    2    0    0 -0.32438480196E+03 -0.30178630958E+03 -0.63608477601E+03  0.79860398112E+03  0.19200000000E+03 0.  0.
   -5000001    1    1    2    0    0  0.32438480196E+03  0.30178630958E+03 -0.96204660662E+03  0.10764284229E+04  0.19200000000E+03 0.  0.
<mgrwt>
<rscale>  0 0.98067456E+03</rscale>
<asrwt>0</asrwt>
<pdfrwt beam="1">  1        2 0.24808311E+00 0.98067456E+03</pdfrwt>
<pdfrwt beam="2">  1       -2 0.19778645E-01 0.98067456E+03</pdfrwt>
<totfact> 0.23894154E+02</totfact>
</mgrwt>
</event>
<event>
 4    1  0.5455400E-005  0.6188885E+03  0.7818608E-02  0.9866975E-01
          2   -1    0    0  501    0  0.00000000000E+00  0.00000000000E+00  0.30045988103E+03  0.30045988104E+03  0.25500000000E-02 0.  1.
         -2   -1    0    0    0  501 -0.00000000000E+00 -0.00000000000E+00 -0.31869724121E+03  0.31869724122E+03  0.25500000000E-02 0. -1.
    5000001    1    1    2    0    0  0.13035595376E+03  0.19470594039E+03 -0.72301912579E+02  0.31143963214E+03  0.19200000000E+03 0.  0.
   -5000001    1    1    2    0    0 -0.13035595376E+03 -0.19470594039E+03  0.54064552396E+02  0.30771749012E+03  0.19200000000E+03 0.  0.
<mgrwt>
<rscale>  0 0.61888847E+03</rscale>
<asrwt>0</asrwt>
<pdfrwt beam="1">  1        2 0.42922840E-01 0.61888847E+03</pdfrwt>
<pdfrwt beam="2">  1       -2 0.45528178E-01 0.61888847E+03</pdfrwt>
<totfact> 0.54862235E+02</totfact>
</mgrwt>
</event>
<event>
 4    1  0.5455400E-005  0.5448524E+03  0.7818608E-02  0.1002692E+00
         -2   -1    0    0    0  501 -0.00000000000E+00  0.00000000000E+00  0.89837442421E+02  0.89837442457E+02  0.25500000000E-02 0. -1.
          2   -1    0    0  501    0  0.00000000000E+00 -0.00000000000E+00 -0.82611473348E+03  0.82611473349E+03  0.25500000000E-02 0.  1.
    5000001    1    1    2    0    0  0.12940421649E+03  0.69310147875E+02 -0.15680949947E+03  0.28810166082E+03  0.19200000000E+03 0.  0.
   -5000001    1    1    2    0    0 -0.12940421649E+03 -0.69310147875E+02 -0.57946779159E+03  0.62785051512E+03  0.19200000000E+03 0.  0.
<mgrwt>
<rscale>  0 0.54485240E+03</rscale>
<asrwt>0</asrwt>
<pdfrwt beam="1">  1        2 0.11801639E+00 0.54485240E+03</pdfrwt>
<pdfrwt beam="2">  1       -2 0.12833921E-01 0.54485240E+03</pdfrwt>
<totfact> 0.16612488E+03</totfact>
</mgrwt>
</event>
<event>
 4    1  0.5455400E-005  0.3990601E+03  0.7818608E-02  0.1044106E+00
         -2   -1    0    0    0  501 -0.00000000000E+00  0.00000000000E+00  0.58732568012E+02  0.58732568068E+02  0.25500000000E-02 0. -1.
          2   -1    0    0  501    0  0.00000000000E+00 -0.00000000000E+00 -0.67785613155E+03  0.67785613156E+03  0.25500000000E-02 0.  1.
    5000001    1    1    2    0    0  0.31064772649E+02 -0.42022621890E+02 -0.33677169601E+03  0.39116504967E+03  0.19200000000E+03 0.  0.
   -5000001    1    1    2    0    0 -0.31064772649E+02  0.42022621890E+02 -0.28235186753E+03  0.34542364996E+03  0.19200000000E+03 0.  0.
<mgrwt>
<rscale>  0 0.39906005E+03</rscale>
<asrwt>0</asrwt>
<pdfrwt beam="1">  1        2 0.96836585E-01 0.39906005E+03</pdfrwt>
<pdfrwt beam="2">  1       -2 0.83903673E-02 0.39906005E+03</pdfrwt>
<totfact> 0.42111254E+03</totfact>
</mgrwt>
</event>
<event>
 4    1  0.5455400E-005  0.6778288E+03  0.7818608E-02  0.9755918E-01
          2   -1    0    0  501    0  0.00000000000E+00  0.00000000000E+00  0.20706222485E+04  0.20706222485E+04  0.25500000000E-02 0.  1.
         -2   -1    0    0    0  501 -0.00000000000E+00 -0.00000000000E+00 -0.55472675192E+02  0.55472675250E+02  0.25500000000E-02 0. -1.
    5000001    1    1    2    0    0 -0.50233574828E+02 -0.26261678243E+03  0.12606125853E+04  0.13028810678E+04  0.19200000000E+03 0.  0.
   -5000001    1    1    2    0    0  0.50233574828E+02  0.26261678243E+03  0.75453698797E+03  0.82321385597E+03  0.19200000000E+03 0.  0.
<mgrwt>
<rscale>  0 0.67782876E+03</rscale>
<asrwt>0</asrwt>
<pdfrwt beam="1">  1        2 0.29580320E+00 0.67782876E+03</pdfrwt>
<pdfrwt beam="2">  1       -2 0.79246673E-02 0.67782876E+03</pdfrwt>
<totfact> 0.75611007E+02</totfact>
</mgrwt>
</event>
<event>
 4    1  0.5455400E-005  0.7946757E+03  0.7818608E-02  0.9567756E-01
         -2   -1    0    0    0  501 -0.00000000000E+00  0.00000000000E+00  0.50152659966E+03  0.50152659966E+03  0.25500000000E-02 0. -1.
          2   -1    0    0  501    0  0.00000000000E+00 -0.00000000000E+00 -0.31479358556E+03  0.31479358557E+03  0.25500000000E-02 0.  1.
    5000001    1    1    2    0    0  0.41217996400E+00 -0.26527639188E+03  0.32453275438E+03  0.46103930705E+03  0.19200000000E+03 0.  0.
   -5000001    1    1    2    0    0 -0.41217996400E+00  0.26527639188E+03 -0.13779974029E+03  0.35528087818E+03  0.19200000000E+03 0.  0.
<mgrwt>
<rscale>  0 0.79467567E+03</rscale>
<asrwt>0</asrwt>
<pdfrwt beam="1">  1        2 0.44970513E-01 0.79467567E+03</pdfrwt>
<pdfrwt beam="2">  1       -2 0.71646657E-01 0.79467567E+03</pdfrwt>
<totfact> 0.20116154E+02</totfact>
</mgrwt>
</event>
<event>
 4    1  0.5455400E-005  0.5761173E+03  0.7818608E-02  0.9956232E-01
         -2   -1    0    0    0  501 -0.00000000000E+00  0.00000000000E+00  0.57721980994E+02  0.57721981051E+02  0.25500000000E-02 0. -1.
          2   -1    0    0  501    0  0.00000000000E+00 -0.00000000000E+00 -0.14375424620E+04  0.14375424620E+04  0.25500000000E-02 0.  1.
    5000001    1    1    2    0    0 -0.20778544080E+03  0.53550232234E+02 -0.66798213016E+03  0.72739710131E+03  0.19200000000E+03 0.  0.
   -5000001    1    1    2    0    0  0.20778544080E+03 -0.53550232234E+02 -0.71183835088E+03  0.76786734178E+03  0.19200000000E+03 0.  0.
<mgrwt>
<rscale>  0 0.57611734E+03</rscale>
<asrwt>0</asrwt>
<pdfrwt beam="1">  1        2 0.20536319E+00 0.57611734E+03</pdfrwt>
<pdfrwt beam="2">  1       -2 0.82459982E-02 0.57611734E+03</pdfrwt>
<totfact> 0.14995102E+03</totfact>
</mgrwt>
</event>
<event>
 4    1  0.5455400E-005  0.4318725E+03  0.7818608E-02  0.1033270E+00
          2   -1    0    0  501    0  0.00000000000E+00  0.00000000000E+00  0.27283017439E+03  0.27283017440E+03  0.25500000000E-02 0.  1.
         -2   -1    0    0    0  501 -0.00000000000E+00 -0.00000000000E+00 -0.17090652741E+03  0.17090652743E+03  0.25500000000E-02 0. -1.
    5000001    1    1    2    0    0  0.96118232272E+02 -0.22600050533E+02  0.46984987550E+02  0.22095489566E+03  0.19200000000E+03 0.  0.
   -5000001    1    1    2    0    0 -0.96118232272E+02  0.22600050533E+02  0.54938659428E+02  0.22278180617E+03  0.19200000000E+03 0.  0.
<mgrwt>
<rscale>  0 0.43187247E+03</rscale>
<asrwt>0</asrwt>
<pdfrwt beam="1">  1        2 0.38975739E-01 0.43187247E+03</pdfrwt>
<pdfrwt beam="2">  1       -2 0.24415218E-01 0.43187247E+03</pdfrwt>
<totfact> 0.19648556E+03</totfact>
</mgrwt>
</event>
<event>
 4    1  0.5455400E-005  0.7591563E+03  0.7818608E-02  0.9621094E-01
         -2   -1    0    0    0  501 -0.00000000000E+00  0.00000000000E+00  0.27624886763E+03  0.27624886764E+03  0.25500000000E-02 0. -1.
          2   -1    0    0  501    0  0.00000000000E+00 -0.00000000000E+00 -0.52155712812E+03  0.52155712813E+03  0.25500000000E-02 0.  1.
    5000001    1    1    2    0    0 -0.30087395457E+03  0.12755812742E+03 -0.14417482639E+03  0.40552015113E+03  0.19200000000E+03 0.  0.
   -5000001    1    1    2    0    0  0.30087395457E+03 -0.12755812742E+03 -0.10113343410E+03  0.39228584464E+03  0.19200000000E+03 0.  0.
<mgrwt>
<rscale>  0 0.75915628E+03</rscale>
<asrwt>0</asrwt>
<pdfrwt beam="1">  1        2 0.74508161E-01 0.75915628E+03</pdfrwt>
<pdfrwt beam="2">  1       -2 0.39464124E-01 0.75915628E+03</pdfrwt>
<totfact> 0.39054332E+02</totfact>
</mgrwt>
</event>
<event>
 4    1  0.5455400E-005  0.7352049E+03  0.7818608E-02  0.9658852E-01
         -2   -1    0    0    0  501 -0.00000000000E+00  0.00000000000E+00  0.28208477157E+02  0.28208477273E+02  0.25500000000E-02 0. -1.
          2   -1    0    0  501    0  0.00000000000E+00 -0.00000000000E+00 -0.47904586850E+04  0.47904586850E+04  0.25500000000E-02 0.  1.
    5000001    1    1    2    0    0  0.42945525032E+02  0.30842340316E+03 -0.21449715209E+04  0.21759448842E+04  0.19200000000E+03 0.  0.
   -5000001    1    1    2    0    0 -0.42945525032E+02 -0.30842340316E+03 -0.26172786870E+04  0.26427222781E+04  0.19200000000E+03 0.  0.
<mgrwt>
<rscale>  0 0.73520485E+03</rscale>
<asrwt>0</asrwt>
<pdfrwt beam="1">  1        2 0.68435072E+00 0.73520485E+03</pdfrwt>
<pdfrwt beam="2">  1       -2 0.40297855E-02 0.73520485E+03</pdfrwt>
<totfact> 0.45093304E+01</totfact>
</mgrwt>
</event>
<event>
 4    1  0.5455400E-005  0.8572026E+03  0.7818608E-02  0.9480721E-01
         -2   -1    0    0    0  501 -0.00000000000E+00  0.00000000000E+00  0.82543606871E+03  0.82543606872E+03  0.25500000000E-02 0. -1.
          2   -1    0    0  501    0  0.00000000000E+00 -0.00000000000E+00 -0.22254791652E+03  0.22254791654E+03  0.25500000000E-02 0.  1.
    5000001    1    1    2    0    0 -0.28939474461E+03 -0.14921764779E+03  0.54438430582E+02  0.38189365974E+03  0.19200000000E+03 0.  0.
   -5000001    1    1    2    0    0  0.28939474461E+03  0.14921764779E+03  0.54844972161E+03  0.66609032552E+03  0.19200000000E+03 0.  0.
<mgrwt>
<rscale>  0 0.85720261E+03</rscale>
<asrwt>0</asrwt>
<pdfrwt beam="1">  1        2 0.31792559E-01 0.85720261E+03</pdfrwt>
<pdfrwt beam="2">  1       -2 0.11791944E+00 0.85720261E+03</pdfrwt>
<totfact> 0.92888486E+01</totfact>
</mgrwt>
</event>
<event>
 4    1  0.5455400E-005  0.7450605E+03  0.7818608E-02  0.9643132E-01
          2   -1    0    0  501    0  0.00000000000E+00  0.00000000000E+00  0.30421801563E+03  0.30421801564E+03  0.25500000000E-02 0.  1.
         -2   -1    0    0    0  501 -0.00000000000E+00 -0.00000000000E+00 -0.45618195545E+03  0.45618195546E+03  0.25500000000E-02 0. -1.
    5000001    1    1    2    0    0  0.10095758088E+03 -0.29519207900E+03 -0.14508094209E+03  0.39400923390E+03  0.19200000000E+03 0.  0.
   -5000001    1    1    2    0    0 -0.10095758088E+03  0.29519207900E+03 -0.68829977345E+01  0.36639073719E+03  0.19200000000E+03 0.  0.
<mgrwt>
<rscale>  0 0.74506045E+03</rscale>
<asrwt>0</asrwt>
<pdfrwt beam="1">  1        2 0.43459716E-01 0.74506045E+03</pdfrwt>
<pdfrwt beam="2">  1       -2 0.65168851E-01 0.74506045E+03</pdfrwt>
<totfact> 0.25707143E+02</totfact>
</mgrwt>
</event>
<event>
 4    1  0.5455400E-005  0.6185195E+03  0.7818608E-02  0.9867712E-01
         -2   -1    0    0    0  501 -0.00000000000E+00  0.00000000000E+00  0.41756512114E+02  0.41756512192E+02  0.25500000000E-02 0. -1.
          2   -1    0    0  501    0  0.00000000000E+00 -0.00000000000E+00 -0.22904594896E+04  0.22904594896E+04  0.25500000000E-02 0.  1.
    5000001    1    1    2    0    0 -0.72443986281E+02 -0.82746311012E+02 -0.30966129478E+03  0.38059059450E+03  0.19200000000E+03 0.  0.
   -5000001    1    1    2    0    0  0.72443986281E+02  0.82746311012E+02 -0.19390416827E+04  0.19516254073E+04  0.19200000000E+03 0.  0.
<mgrwt>
<rscale>  0 0.61851952E+03</rscale>
<asrwt>0</asrwt>
<pdfrwt beam="1">  1        2 0.32720842E+00 0.61851952E+03</pdfrwt>
<pdfrwt beam="2">  1       -2 0.59652175E-02 0.61851952E+03</pdfrwt>
<totfact> 0.92108616E+02</totfact>
</mgrwt>
</event>
<event>
 4    1  0.5455400E-005  0.7955374E+03  0.7818608E-02  0.9566499E-01
          2   -1    0    0  501    0  0.00000000000E+00  0.00000000000E+00  0.40666626641E+03  0.40666626642E+03  0.25500000000E-02 0.  1.
         -2   -1    0    0    0  501 -0.00000000000E+00 -0.00000000000E+00 -0.38906583552E+03  0.38906583553E+03  0.25500000000E-02 0. -1.
    5000001    1    1    2    0    0  0.34393016744E+03 -0.39770907773E+02  0.47361763989E+02  0.39871897606E+03  0.19200000000E+03 0.  0.
   -5000001    1    1    2    0    0 -0.34393016744E+03  0.39770907773E+02 -0.29761333095E+02  0.39701312589E+03  0.19200000000E+03 0.  0.
<mgrwt>
<rscale>  0 0.79553743E+03</rscale>
<asrwt>0</asrwt>
<pdfrwt beam="1">  1        2 0.58095181E-01 0.79553743E+03</pdfrwt>
<pdfrwt beam="2">  1       -2 0.55580833E-01 0.79553743E+03</pdfrwt>
<totfact> 0.25998145E+02</totfact>
</mgrwt>
</event>
<event>
 4    1  0.5455400E-005  0.7514571E+03  0.7818608E-02  0.9633067E-01
         -2   -1    0    0    0  501 -0.00000000000E+00  0.00000000000E+00  0.10433706314E+03  0.10433706317E+03  0.25500000000E-02 0. -1.
          2   -1    0    0  501    0  0.00000000000E+00 -0.00000000000E+00 -0.13530374785E+04  0.13530374785E+04  0.25500000000E-02 0.  1.
    5000001    1    1    2    0    0 -0.13271595704E+03  0.27422504700E+03 -0.83228276569E+03  0.90684701230E+03  0.19200000000E+03 0.  0.
   -5000001    1    1    2    0    0  0.13271595704E+03 -0.27422504700E+03 -0.41641764971E+03  0.55052752941E+03  0.19200000000E+03 0.  0.
<mgrwt>
<rscale>  0 0.75145714E+03</rscale>
<asrwt>0</asrwt>
<pdfrwt beam="1">  1        2 0.19329106E+00 0.75145714E+03</pdfrwt>
<pdfrwt beam="2">  1       -2 0.14905296E-01 0.75145714E+03</pdfrwt>
<totfact> 0.62597430E+02</totfact>
</mgrwt>
</event>
<event>
 4    1  0.5455400E-005  0.1116517E+04  0.7818608E-02  0.9189241E-01
         -2   -1    0    0    0  501 -0.00000000000E+00  0.00000000000E+00  0.16462586330E+03  0.16462586332E+03  0.25500000000E-02 0. -1.
          2   -1    0    0  501    0  0.00000000000E+00 -0.00000000000E+00 -0.18930966730E+04  0.18930966730E+04  0.25500000000E-02 0.  1.
    5000001    1    1    2    0    0 -0.29501354885E+03  0.43186717408E+03 -0.79916937587E+03  0.97420631356E+03  0.19200000000E+03 0.  0.
   -5000001    1    1    2    0    0  0.29501354885E+03 -0.43186717408E+03 -0.92930143380E+03  0.10835162227E+04  0.19200000000E+03 0.  0.
<mgrwt>
<rscale>  0 0.11165172E+04</rscale>
<asrwt>0</asrwt>
<pdfrwt beam="1">  1        2 0.27044237E+00 0.11165172E+04</pdfrwt>
<pdfrwt beam="2">  1       -2 0.23517982E-01 0.11165172E+04</pdfrwt>
<totfact> 0.14475296E+02</totfact>
</mgrwt>
</event>
<event>
 4    1  0.5455400E-005  0.6455747E+03  0.7818608E-02  0.9815119E-01
         -2   -1    0    0    0  501 -0.00000000000E+00  0.00000000000E+00  0.54780309764E+02  0.54780309823E+02  0.25500000000E-02 0. -1.
          2   -1    0    0  501    0  0.00000000000E+00 -0.00000000000E+00 -0.19019914260E+04  0.19019914260E+04  0.25500000000E-02 0.  1.
    5000001    1    1    2    0    0  0.94249955067E+02 -0.22275949992E+03 -0.12083122170E+04  0.12471516598E+04  0.19200000000E+03 0.  0.
   -5000001    1    1    2    0    0 -0.94249955067E+02  0.22275949992E+03 -0.63889889927E+03  0.70962007604E+03  0.19200000000E+03 0.  0.
<mgrwt>
<rscale>  0 0.64557472E+03</rscale>
<asrwt>0</asrwt>
<pdfrwt beam="1">  1        2 0.27171302E+00 0.64557472E+03</pdfrwt>
<pdfrwt beam="2">  1       -2 0.78257597E-02 0.64557472E+03</pdfrwt>
<totfact> 0.93992293E+02</totfact>
</mgrwt>
</event>
<event>
 4    1  0.5455400E-005  0.5653526E+03  0.7818608E-02  0.9980016E-01
         -2   -1    0    0    0  501 -0.00000000000E+00  0.00000000000E+00  0.27671125871E+02  0.27671125988E+02  0.25500000000E-02 0. -1.
          2   -1    0    0  501    0  0.00000000000E+00 -0.00000000000E+00 -0.28876992308E+04  0.28876992308E+04  0.25500000000E-02 0.  1.
    5000001    1    1    2    0    0  0.18482987558E+02  0.18820754197E+03 -0.99008157960E+03  0.10261039099E+04  0.19200000000E+03 0.  0.
   -5000001    1    1    2    0    0 -0.18482987558E+02 -0.18820754197E+03 -0.18699465253E+04  0.18892664469E+04  0.19200000000E+03 0.  0.
<mgrwt>
<rscale>  0 0.56535259E+03</rscale>
<asrwt>0</asrwt>
<pdfrwt beam="1">  1        2 0.41252827E+00 0.56535259E+03</pdfrwt>
<pdfrwt beam="2">  1       -2 0.39530198E-02 0.56535259E+03</pdfrwt>
<totfact> 0.85792560E+02</totfact>
</mgrwt>
</event>
<event>
 4    1  0.5455400E-005  0.7893773E+03  0.7818608E-02  0.9575522E-01
          2   -1    0    0  501    0  0.00000000000E+00  0.00000000000E+00  0.16703840122E+04  0.16703840122E+04  0.25500000000E-02 0.  1.
         -2   -1    0    0    0  501 -0.00000000000E+00 -0.00000000000E+00 -0.93259470447E+02  0.93259470482E+02  0.25500000000E-02 0. -1.
    5000001    1    1    2    0    0  0.30488919846E+03 -0.39979594928E+02  0.43985668844E+03  0.56999447166E+03  0.19200000000E+03 0.  0.
   -5000001    1    1    2    0    0 -0.30488919846E+03  0.39979594928E+02  0.11372678533E+04  0.11936490110E+04  0.19200000000E+03 0.  0.
<mgrwt>
<rscale>  0 0.78937729E+03</rscale>
<asrwt>0</asrwt>
<pdfrwt beam="1">  1        2 0.23862630E+00 0.78937729E+03</pdfrwt>
<pdfrwt beam="2">  1       -2 0.13322781E-01 0.78937729E+03</pdfrwt>
<totfact> 0.51380465E+02</totfact>
</mgrwt>
</event>
<event>
 4    1  0.5455400E-005  0.8311526E+03  0.7818608E-02  0.9515988E-01
          2   -1    0    0  501    0  0.00000000000E+00  0.00000000000E+00  0.69528995787E+03  0.69528995787E+03  0.25500000000E-02 0.  1.
         -2   -1    0    0    0  501 -0.00000000000E+00 -0.00000000000E+00 -0.24839082380E+03  0.24839082381E+03  0.25500000000E-02 0. -1.
    5000001    1    1    2    0    0  0.34239079702E+03 -0.13329069032E+03  0.19050805633E+03  0.45624027172E+03  0.19200000000E+03 0.  0.
   -5000001    1    1    2    0    0 -0.34239079702E+03  0.13329069032E+03  0.25639107773E+03  0.48744050996E+03  0.19200000000E+03 0.  0.
<mgrwt>
<rscale>  0 0.83115256E+03</rscale>
<asrwt>0</asrwt>
<pdfrwt beam="1">  1        2 0.99327137E-01 0.83115256E+03</pdfrwt>
<pdfrwt beam="2">  1       -2 0.35484403E-01 0.83115256E+03</pdfrwt>
<totfact> 0.33964720E+02</totfact>
</mgrwt>
</event>
<event>
 4    1  0.5455400E-005  0.5203088E+03  0.7818608E-02  0.1008610E+00
         -2   -1    0    0    0  501 -0.00000000000E+00  0.00000000000E+00  0.12376029486E+03  0.12376029488E+03  0.25500000000E-02 0. -1.
          2   -1    0    0  501    0  0.00000000000E+00 -0.00000000000E+00 -0.54686608232E+03  0.54686608232E+03  0.25500000000E-02 0.  1.
    5000001    1    1    2    0    0 -0.13120447189E+03  0.45250195778E+02 -0.73008870016E+02  0.24790419271E+03  0.19200000000E+03 0.  0.
   -5000001    1    1    2    0    0  0.13120447189E+03 -0.45250195778E+02 -0.35009691745E+03  0.42272218450E+03  0.19200000000E+03 0.  0.
<mgrwt>
<rscale>  0 0.52030878E+03</rscale>
<asrwt>0</asrwt>
<pdfrwt beam="1">  1        2 0.78123725E-01 0.52030878E+03</pdfrwt>
<pdfrwt beam="2">  1       -2 0.17680042E-01 0.52030878E+03</pdfrwt>
<totfact> 0.15972382E+03</totfact>
</mgrwt>
</event>
<event>
 4    1  0.5455400E-005  0.4023723E+03  0.7818608E-02  0.1042961E+00
          2   -1    0    0  501    0  0.00000000000E+00  0.00000000000E+00  0.53753453348E+03  0.53753453349E+03  0.25500000000E-02 0.  1.
         -2   -1    0    0    0  501 -0.00000000000E+00 -0.00000000000E+00 -0.75299094690E+02  0.75299094733E+02  0.25500000000E-02 0. -1.
    5000001    1    1    2    0    0 -0.27271512712E+02 -0.20921616138E+02  0.15603245954E+03  0.24978306159E+03  0.19200000000E+03 0.  0.
   -5000001    1    1    2    0    0  0.27271512712E+02  0.20921616138E+02  0.30620297926E+03  0.36305056663E+03  0.19200000000E+03 0.  0.
<mgrwt>
<rscale>  0 0.40237228E+03</rscale>
<asrwt>0</asrwt>
<pdfrwt beam="1">  1        2 0.76790644E-01 0.40237228E+03</pdfrwt>
<pdfrwt beam="2">  1       -2 0.10757014E-01 0.40237228E+03</pdfrwt>
<totfact> 0.37069472E+03</totfact>
</mgrwt>
</event>
<event>
 4    1  0.5455400E-005  0.6482807E+03  0.7818608E-02  0.9810011E-01
         -2   -1    0    0    0  501 -0.00000000000E+00  0.00000000000E+00  0.16967535828E+03  0.16967535830E+03  0.25500000000E-02 0. -1.
          2   -1    0    0  501    0  0.00000000000E+00 -0.00000000000E+00 -0.61922344725E+03  0.61922344726E+03  0.25500000000E-02 0.  1.
    5000001    1    1    2    0    0  0.10978145974E+03 -0.23323239075E+03 -0.17381411169E+03  0.36541026589E+03  0.19200000000E+03 0.  0.
   -5000001    1    1    2    0    0 -0.10978145974E+03  0.23323239075E+03 -0.27573397728E+03  0.42348853966E+03  0.19200000000E+03 0.  0.
<mgrwt>
<rscale>  0 0.64828068E+03</rscale>
<asrwt>0</asrwt>
<pdfrwt beam="1">  1        2 0.88460491E-01 0.64828068E+03</pdfrwt>
<pdfrwt beam="2">  1       -2 0.24239337E-01 0.64828068E+03</pdfrwt>
<totfact> 0.79457917E+02</totfact>
</mgrwt>
</event>
<event>
 4    1  0.5455400E-005  0.4569433E+03  0.7818608E-02  0.1025671E+00
          2   -1    0    0  501    0  0.00000000000E+00  0.00000000000E+00  0.23235997511E+03  0.23235997512E+03  0.25500000000E-02 0.  1.
         -2   -1    0    0    0  501 -0.00000000000E+00 -0.00000000000E+00 -0.22464841781E+03  0.22464841783E+03  0.25500000000E-02 0. -1.
    5000001    1    1    2    0    0 -0.90681479994E+02  0.79118688126E+02 -0.25344322869E+02  0.22801147411E+03  0.19200000000E+03 0.  0.
   -5000001    1    1    2    0    0  0.90681479994E+02 -0.79118688126E+02  0.33055880167E+02  0.22899691884E+03  0.19200000000E+03 0.  0.
<mgrwt>
<rscale>  0 0.45694333E+03</rscale>
<asrwt>0</asrwt>
<pdfrwt beam="1">  1        2 0.33194282E-01 0.45694333E+03</pdfrwt>
<pdfrwt beam="2">  1       -2 0.32092631E-01 0.45694333E+03</pdfrwt>
<totfact> 0.14280439E+03</totfact>
</mgrwt>
</event>
<event>
 4    1  0.5455400E-005  0.1672558E+04  0.7818608E-02  0.8777172E-01
         -2   -1    0    0    0  501 -0.00000000000E+00  0.00000000000E+00  0.29749815683E+03  0.29749815684E+03  0.25500000000E-02 0. -1.
          2   -1    0    0  501    0  0.00000000000E+00 -0.00000000000E+00 -0.23508125804E+04  0.23508125804E+04  0.25500000000E-02 0.  1.
    5000001    1    1    2    0    0  0.77649054366E+03 -0.22180041070E+03 -0.86545116753E+03  0.11991675070E+04  0.19200000000E+03 0.  0.
   -5000001    1    1    2    0    0 -0.77649054366E+03  0.22180041070E+03 -0.11878632561E+04  0.14491432302E+04  0.19200000000E+03 0.  0.
<mgrwt>
<rscale>  0 0.16725578E+04</rscale>
<asrwt>0</asrwt>
<pdfrwt beam="1">  1        2 0.33583036E+00 0.16725578E+04</pdfrwt>
<pdfrwt beam="2">  1       -2 0.42499738E-01 0.16725578E+04</pdfrwt>
<totfact> 0.26492272E+01</totfact>
</mgrwt>
</event>
<event>
 4    1  0.5455400E-005  0.7264944E+03  0.7818608E-02  0.9672966E-01
          2   -1    0    0  501    0  0.00000000000E+00  0.00000000000E+00  0.15779505534E+04  0.15779505534E+04  0.25500000000E-02 0.  1.
         -2   -1    0    0    0  501 -0.00000000000E+00 -0.00000000000E+00 -0.83620185304E+02  0.83620185343E+02  0.25500000000E-02 0. -1.
    5000001    1    1    2    0    0 -0.27900262847E+03  0.81434255272E+02  0.98275405691E+03  0.10426617577E+04  0.19200000000E+03 0.  0.
   -5000001    1    1    2    0    0  0.27900262847E+03 -0.81434255272E+02  0.51157631115E+03  0.61890898099E+03  0.19200000000E+03 0.  0.
<mgrwt>
<rscale>  0 0.72649437E+03</rscale>
<asrwt>0</asrwt>
<pdfrwt beam="1">  1        2 0.22542150E+00 0.72649437E+03</pdfrwt>
<pdfrwt beam="2">  1       -2 0.11945741E-01 0.72649437E+03</pdfrwt>
<totfact> 0.68977136E+02</totfact>
</mgrwt>
</event>
<event>
 4    1  0.5455400E-005  0.7507419E+03  0.7818608E-02  0.9634187E-01
          2   -1    0    0  501    0  0.00000000000E+00  0.00000000000E+00  0.94639895382E+03  0.94639895382E+03  0.25500000000E-02 0.  1.
         -2   -1    0    0    0  501 -0.00000000000E+00 -0.00000000000E+00 -0.14888368982E+03  0.14888368985E+03  0.25500000000E-02 0. -1.
    5000001    1    1    2    0    0 -0.16849756999E+03 -0.24267524239E+03  0.20990227756E+03  0.41012884620E+03  0.19200000000E+03 0.  0.
   -5000001    1    1    2    0    0  0.16849756999E+03  0.24267524239E+03  0.58761298644E+03  0.68515379747E+03  0.19200000000E+03 0.  0.
<mgrwt>
<rscale>  0 0.75074195E+03</rscale>
<asrwt>0</asrwt>
<pdfrwt beam="1">  1        2 0.13519985E+00 0.75074195E+03</pdfrwt>
<pdfrwt beam="2">  1       -2 0.21269099E-01 0.75074195E+03</pdfrwt>
<totfact> 0.58296502E+02</totfact>
</mgrwt>
</event>
<event>
 4    1  0.5455400E-005  0.6407120E+03  0.7818608E-02  0.9824365E-01
          2   -1    0    0  501    0  0.00000000000E+00  0.00000000000E+00  0.12953575484E+04  0.12953575484E+04  0.25500000000E-02 0.  1.
         -2   -1    0    0    0  501 -0.00000000000E+00 -0.00000000000E+00 -0.79227511709E+02  0.79227511750E+02  0.25500000000E-02 0. -1.
    5000001    1    1    2    0    0 -0.13521366533E+03  0.43926615137E+02  0.15017523928E+03  0.28218590557E+03  0.19200000000E+03 0.  0.
   -5000001    1    1    2    0    0  0.13521366533E+03 -0.43926615137E+02  0.10659547974E+04  0.10923991546E+04  0.19200000000E+03 0.  0.
<mgrwt>
<rscale>  0 0.64071196E+03</rscale>
<asrwt>0</asrwt>
<pdfrwt beam="1">  1        2 0.18505109E+00 0.64071196E+03</pdfrwt>
<pdfrwt beam="2">  1       -2 0.11318215E-01 0.64071196E+03</pdfrwt>
<totfact> 0.10684607E+03</totfact>
</mgrwt>
</event>
<event>
 4    1  0.5455400E-005  0.5021396E+03  0.7818608E-02  0.1013222E+00
         -2   -1    0    0    0  501 -0.00000000000E+00  0.00000000000E+00  0.16100573191E+02  0.16100573393E+02  0.25500000000E-02 0. -1.
          2   -1    0    0  501    0  0.00000000000E+00 -0.00000000000E+00 -0.39151432568E+04  0.39151432568E+04  0.25500000000E-02 0.  1.
    5000001    1    1    2    0    0  0.11895376241E+03  0.25576769287E+01 -0.28076978483E+04  0.28167690262E+04  0.19200000000E+03 0.  0.
   -5000001    1    1    2    0    0 -0.11895376241E+03 -0.25576769287E+01 -0.10913448353E+04  0.11144748040E+04  0.19200000000E+03 0.  0.
<mgrwt>
<rscale>  0 0.50213963E+03</rscale>
<asrwt>0</asrwt>
<pdfrwt beam="1">  1        2 0.55930557E+00 0.50213963E+03</pdfrwt>
<pdfrwt beam="2">  1       -2 0.23000844E-02 0.50213963E+03</pdfrwt>
<totfact> 0.49332463E+02</totfact>
</mgrwt>
</event>
<event>
 4    1  0.5455400E-005  0.6755783E+03  0.7818608E-02  0.9759933E-01
         -2   -1    0    0    0  501 -0.00000000000E+00  0.00000000000E+00  0.71165454059E+03  0.71165454059E+03  0.25500000000E-02 0. -1.
          2   -1    0    0  501    0  0.00000000000E+00 -0.00000000000E+00 -0.16033271145E+03  0.16033271147E+03  0.25500000000E-02 0.  1.
    5000001    1    1    2    0    0  0.26375783589E+03 -0.82724102686E+02  0.31275734267E+03  0.45944817831E+03  0.19200000000E+03 0.  0.
   -5000001    1    1    2    0    0 -0.26375783589E+03  0.82724102686E+02  0.23856448647E+03  0.41253907374E+03  0.19200000000E+03 0.  0.
<mgrwt>
<rscale>  0 0.67557828E+03</rscale>
<asrwt>0</asrwt>
<pdfrwt beam="1">  1        2 0.22904673E-01 0.67557828E+03</pdfrwt>
<pdfrwt beam="2">  1       -2 0.10166493E+00 0.67557828E+03</pdfrwt>
<totfact> 0.19463184E+02</totfact>
</mgrwt>
</event>
<event>
 4    1  0.5455400E-005  0.1139987E+04  0.7818608E-02  0.9167071E-01
         -2   -1    0    0    0  501 -0.00000000000E+00  0.00000000000E+00  0.55189686210E+03  0.55189686210E+03  0.25500000000E-02 0. -1.
          2   -1    0    0  501    0  0.00000000000E+00 -0.00000000000E+00 -0.58868378033E+03  0.58868378033E+03  0.25500000000E-02 0.  1.
    5000001    1    1    2    0    0 -0.13383555445E+03 -0.51547530378E+03  0.47988545969E+02  0.56814931575E+03  0.19200000000E+03 0.  0.
   -5000001    1    1    2    0    0  0.13383555445E+03  0.51547530378E+03 -0.84775464201E+02  0.57243132669E+03  0.19200000000E+03 0.  0.
<mgrwt>
<rscale>  0 0.11399872E+04</rscale>
<asrwt>0</asrwt>
<pdfrwt beam="1">  1        2 0.84097683E-01 0.11399872E+04</pdfrwt>
<pdfrwt beam="2">  1       -2 0.78842409E-01 0.11399872E+04</pdfrwt>
<totfact> 0.78617710E+01</totfact>
</mgrwt>
</event>
<event>
 4    1  0.5455400E-005  0.9763727E+03  0.7818608E-02  0.9334845E-01
          2   -1    0    0  501    0  0.00000000000E+00  0.00000000000E+00  0.32564786964E+04  0.32564786964E+04  0.25500000000E-02 0.  1.
         -2   -1    0    0    0  501 -0.00000000000E+00 -0.00000000000E+00 -0.73185153608E+02  0.73185153652E+02  0.25500000000E-02 0. -1.
    5000001    1    1    2    0    0 -0.16017199329E+03  0.19131753910E+03  0.31928298054E+03  0.44840059084E+03  0.19200000000E+03 0.  0.
   -5000001    1    1    2    0    0  0.16017199329E+03 -0.19131753910E+03  0.28640105622E+04  0.28812632592E+04  0.19200000000E+03 0.  0.
<mgrwt>
<rscale>  0 0.97637266E+03</rscale>
<asrwt>0</asrwt>
<pdfrwt beam="1">  1        2 0.46521127E+00 0.97637266E+03</pdfrwt>
<pdfrwt beam="2">  1       -2 0.10455021E-01 0.97637266E+03</pdfrwt>
<totfact> 0.11060273E+02</totfact>
</mgrwt>
</event>
<event>
 4    1  0.5455400E-005  0.5720359E+03  0.7818608E-02  0.9965184E-01
         -2   -1    0    0    0  501 -0.00000000000E+00  0.00000000000E+00  0.85829377379E+02  0.85829377417E+02  0.25500000000E-02 0. -1.
          2   -1    0    0  501    0  0.00000000000E+00 -0.00000000000E+00 -0.95312663044E+03  0.95312663045E+03  0.25500000000E-02 0.  1.
    5000001    1    1    2    0    0 -0.11716074385E+03 -0.78832738035E+02 -0.14646955610E+03  0.27974733484E+03  0.19200000000E+03 0.  0.
   -5000001    1    1    2    0    0  0.11716074385E+03  0.78832738035E+02 -0.72082769697E+03  0.75920867303E+03  0.19200000000E+03 0.  0.
<mgrwt>
<rscale>  0 0.57203589E+03</rscale>
<asrwt>0</asrwt>
<pdfrwt beam="1">  1        2 0.13616094E+00 0.57203589E+03</pdfrwt>
<pdfrwt beam="2">  1       -2 0.12261340E-01 0.57203589E+03</pdfrwt>
<totfact> 0.14810831E+03</totfact>
</mgrwt>
</event>
<event>
 4    1  0.5455400E-005  0.8436984E+03  0.7818608E-02  0.9498834E-01
          2   -1    0    0  501    0  0.00000000000E+00  0.00000000000E+00  0.15658577009E+04  0.15658577009E+04  0.25500000000E-02 0.  1.
         -2   -1    0    0    0  501 -0.00000000000E+00 -0.00000000000E+00 -0.11364809214E+03  0.11364809217E+03  0.25500000000E-02 0. -1.
    5000001    1    1    2    0    0  0.71857692668E+02 -0.36510230358E+03  0.62402671169E+03  0.75148955880E+03  0.19200000000E+03 0.  0.
   -5000001    1    1    2    0    0 -0.71857692668E+02  0.36510230358E+03  0.82818289711E+03  0.92801623431E+03  0.19200000000E+03 0.  0.
<mgrwt>
<rscale>  0 0.84369838E+03</rscale>
<asrwt>0</asrwt>
<pdfrwt beam="1">  1        2 0.22369394E+00 0.84369838E+03</pdfrwt>
<pdfrwt beam="2">  1       -2 0.16235443E-01 0.84369838E+03</pdfrwt>
<totfact> 0.41550984E+02</totfact>
</mgrwt>
</event>
<event>
 4    1  0.5455400E-005  0.6712033E+03  0.7818608E-02  0.9767787E-01
         -2   -1    0    0    0  501 -0.00000000000E+00  0.00000000000E+00  0.30769306626E+02  0.30769306731E+02  0.25500000000E-02 0. -1.
          2   -1    0    0  501    0  0.00000000000E+00 -0.00000000000E+00 -0.36604158644E+04  0.36604158644E+04  0.25500000000E-02 0.  1.
    5000001    1    1    2    0    0  0.23640070482E+03 -0.10621267633E+03 -0.13048924051E+04  0.13441631652E+04  0.19200000000E+03 0.  0.
   -5000001    1    1    2    0    0 -0.23640070482E+03  0.10621267633E+03 -0.23247541527E+04  0.23470220059E+04  0.19200000000E+03 0.  0.
<mgrwt>
<rscale>  0 0.67120327E+03</rscale>
<asrwt>0</asrwt>
<pdfrwt beam="1">  1        2 0.52291627E+00 0.67120327E+03</pdfrwt>
<pdfrwt beam="2">  1       -2 0.43956176E-02 0.67120327E+03</pdfrwt>
<totfact> 0.26066471E+02</totfact>
</mgrwt>
</event>
<event>
 4    1  0.5455400E-005  0.5890821E+03  0.7818608E-02  0.9928320E-01
          2   -1    0    0  501    0  0.00000000000E+00  0.00000000000E+00  0.12126167539E+04  0.12126167539E+04  0.25500000000E-02 0. -1.
         -2   -1    0    0    0  501 -0.00000000000E+00 -0.00000000000E+00 -0.71543154960E+02  0.71543155005E+02  0.25500000000E-02 0.  1.
    5000001    1    1    2    0    0  0.87783435427E+02 -0.19561883122E+03  0.70698340532E+03  0.76332312559E+03  0.19200000000E+03 0.  0.
   -5000001    1    1    2    0    0 -0.87783435427E+02  0.19561883122E+03  0.43409019363E+03  0.52083678333E+03  0.19200000000E+03 0.  0.
<mgrwt>
<rscale>  0 0.58908209E+03</rscale>
<asrwt>0</asrwt>
<pdfrwt beam="1">  1        2 0.17323097E+00 0.58908209E+03</pdfrwt>
<pdfrwt beam="2">  1       -2 0.10220450E-01 0.58908209E+03</pdfrwt>
<totfact> 0.14039505E+03</totfact>
</mgrwt>
</event>
<event>
 4    1  0.5455400E-005  0.5233700E+03  0.7818608E-02  0.1007853E+00
         -2   -1    0    0    0  501 -0.00000000000E+00  0.00000000000E+00  0.68439945125E+02  0.68439945173E+02  0.25500000000E-02 0. -1.
          2   -1    0    0  501    0  0.00000000000E+00 -0.00000000000E+00 -0.10005713512E+04  0.10005713512E+04  0.25500000000E-02 0.  1.
    5000001    1    1    2    0    0  0.16765561082E+03  0.31727049870E+02 -0.56819417182E+03  0.62355723589E+03  0.19200000000E+03 0.  0.
   -5000001    1    1    2    0    0 -0.16765561082E+03 -0.31727049870E+02 -0.36393723426E+03  0.44545406049E+03  0.19200000000E+03 0.  0.
<mgrwt>
<rscale>  0 0.52337004E+03</rscale>
<asrwt>0</asrwt>
<pdfrwt beam="1">  1        2 0.14293876E+00 0.52337004E+03</pdfrwt>
<pdfrwt beam="2">  1       -2 0.97771356E-02 0.52337004E+03</pdfrwt>
<totfact> 0.20040449E+03</totfact>
</mgrwt>
</event>
<event>
 4    1  0.5455400E-005  0.4937830E+03  0.7818608E-02  0.1015415E+00
         -2   -1    0    0    0  501 -0.00000000000E+00  0.00000000000E+00  0.57213453082E+02  0.57213453139E+02  0.25500000000E-02 0. -1.
          2   -1    0    0  501    0  0.00000000000E+00 -0.00000000000E+00 -0.10654033765E+04  0.10654033765E+04  0.25500000000E-02 0.  1.
    5000001    1    1    2    0    0 -0.13902551043E+03  0.23505408761E+02 -0.35656568032E+03  0.42881660553E+03  0.19200000000E+03 0.  0.
   -5000001    1    1    2    0    0  0.13902551043E+03 -0.23505408761E+02 -0.65162424308E+03  0.69380022410E+03  0.19200000000E+03 0.  0.
<mgrwt>
<rscale>  0 0.49378297E+03</rscale>
<asrwt>0</asrwt>
<pdfrwt beam="1">  1        2 0.15220047E+00 0.49378297E+03</pdfrwt>
<pdfrwt beam="2">  1       -2 0.81733511E-02 0.49378297E+03</pdfrwt>
<totfact> 0.24429022E+03</totfact>
</mgrwt>
</event>
<event>
 4    1  0.5455400E-005  0.1439190E+04  0.7818608E-02  0.8925929E-01
          2   -1    0    0  501    0  0.00000000000E+00  0.00000000000E+00  0.87973161622E+03  0.87973161623E+03  0.25500000000E-02 0.  1.
         -2   -1    0    0    0  501 -0.00000000000E+00 -0.00000000000E+00 -0.58860820118E+03  0.58860820118E+03  0.25500000000E-02 0. -1.
    5000001    1    1    2    0    0  0.47246257807E+03  0.11857832877E+03  0.64919070376E+03  0.83402294787E+03  0.19200000000E+03 0.  0.
   -5000001    1    1    2    0    0 -0.47246257807E+03 -0.11857832877E+03 -0.35806728872E+03  0.63431686954E+03  0.19200000000E+03 0.  0.
<mgrwt>
<rscale>  0 0.14391904E+04</rscale>
<asrwt>0</asrwt>
<pdfrwt beam="1">  1        2 0.12567594E+00 0.14391904E+04</pdfrwt>
<pdfrwt beam="2">  1       -2 0.84086886E-01 0.14391904E+04</pdfrwt>
<totfact> 0.40270616E+01</totfact>
</mgrwt>
</event>
<event>
 4    1  0.5455400E-005  0.5287908E+03  0.7818608E-02  0.1006526E+00
          2   -1    0    0  501    0  0.00000000000E+00  0.00000000000E+00  0.13529387635E+04  0.13529387635E+04  0.25500000000E-02 0.  1.
         -2   -1    0    0    0  501 -0.00000000000E+00 -0.00000000000E+00 -0.51668943961E+02  0.51668944024E+02  0.25500000000E-02 0. -1.
    5000001    1    1    2    0    0  0.56769620472E+02  0.12845727452E+03  0.34410557637E+03  0.41832607960E+03  0.19200000000E+03 0.  0.
   -5000001    1    1    2    0    0 -0.56769620472E+02 -0.12845727452E+03  0.95716424317E+03  0.98628162793E+03  0.19200000000E+03 0.  0.
<mgrwt>
<rscale>  0 0.52879076E+03</rscale>
<asrwt>0</asrwt>
<pdfrwt beam="1">  1        2 0.19327698E+00 0.52879076E+03</pdfrwt>
<pdfrwt beam="2">  1       -2 0.73812771E-02 0.52879076E+03</pdfrwt>
<totfact> 0.19848898E+03</totfact>
</mgrwt>
</event>
<event>
 4    1  0.5455400E-005  0.5001307E+03  0.7818608E-02  0.1013745E+00
         -2   -1    0    0    0  501 -0.00000000000E+00  0.00000000000E+00  0.36063247710E+03  0.36063247711E+03  0.25500000000E-02 0. -1.
          2   -1    0    0  501    0  0.00000000000E+00 -0.00000000000E+00 -0.17339722831E+03  0.17339722833E+03  0.25500000000E-02 0.  1.
    5000001    1    1    2    0    0  0.15704228061E+03 -0.29928117655E+02  0.82382979081E+02  0.26307589279E+03  0.19200000000E+03 0.  0.
   -5000001    1    1    2    0    0 -0.15704228061E+03  0.29928117655E+02  0.10485226971E+03  0.27095381265E+03  0.19200000000E+03 0.  0.
<mgrwt>
<rscale>  0 0.50013067E+03</rscale>
<asrwt>0</asrwt>
<pdfrwt beam="1">  1        2 0.24771033E-01 0.50013067E+03</pdfrwt>
<pdfrwt beam="2">  1       -2 0.51518924E-01 0.50013067E+03</pdfrwt>
<totfact> 0.79179562E+02</totfact>
</mgrwt>
</event>
<event>
 4    1  0.5455400E-005  0.6654085E+03  0.7818608E-02  0.9778288E-01
          2   -1    0    0  501    0  0.00000000000E+00  0.00000000000E+00  0.38741382061E+03  0.38741382062E+03  0.25500000000E-02 0.  1.
         -2   -1    0    0    0  501 -0.00000000000E+00 -0.00000000000E+00 -0.28572063177E+03  0.28572063179E+03  0.25500000000E-02 0. -1.
    5000001    1    1    2    0    0  0.10411165834E+03  0.24282877573E+03  0.11501071632E+03  0.34626076387E+03  0.19200000000E+03 0.  0.
   -5000001    1    1    2    0    0 -0.10411165834E+03 -0.24282877573E+03 -0.13317527481E+02  0.32687368854E+03  0.19200000000E+03 0.  0.
<mgrwt>
<rscale>  0 0.66540851E+03</rscale>
<asrwt>0</asrwt>
<pdfrwt beam="1">  1        2 0.55344831E-01 0.66540851E+03</pdfrwt>
<pdfrwt beam="2">  1       -2 0.40817233E-01 0.66540851E+03</pdfrwt>
<totfact> 0.51298850E+02</totfact>
</mgrwt>
</event>
<event>
 4    1  0.5455400E-005  0.4606032E+03  0.7818608E-02  0.1024606E+00
         -2   -1    0    0    0  501 -0.00000000000E+00  0.00000000000E+00  0.82479342025E+03  0.82479342026E+03  0.25500000000E-02 0. -1.
          2   -1    0    0  501    0  0.00000000000E+00 -0.00000000000E+00 -0.64305594414E+02  0.64305594465E+02  0.25500000000E-02 0.  1.
    5000001    1    1    2    0    0 -0.32458090921E+02 -0.12045336836E+03  0.33247981381E+03  0.40369464724E+03  0.19200000000E+03 0.  0.
   -5000001    1    1    2    0    0  0.32458090921E+02  0.12045336836E+03  0.42800801202E+03  0.48540436748E+03  0.19200000000E+03 0.  0.
<mgrwt>
<rscale>  0 0.46060322E+03</rscale>
<asrwt>0</asrwt>
<pdfrwt beam="1">  1        2 0.91865142E-02 0.46060322E+03</pdfrwt>
<pdfrwt beam="2">  1       -2 0.11782762E+00 0.46060322E+03</pdfrwt>
<totfact> 0.41607540E+02</totfact>
</mgrwt>
</event>
<event>
 4    1  0.5455400E-005  0.4338043E+03  0.7818608E-02  0.1032665E+00
          2   -1    0    0  501    0  0.00000000000E+00  0.00000000000E+00  0.26517894122E+04  0.26517894122E+04  0.25500000000E-02 0.  1.
         -2   -1    0    0    0  501 -0.00000000000E+00 -0.00000000000E+00 -0.17741430204E+02  0.17741430387E+02  0.25500000000E-02 0. -1.
    5000001    1    1    2    0    0 -0.61827731225E+02  0.73129666023E+02  0.15127796558E+04  0.15279191417E+04  0.19200000000E+03 0.  0.
   -5000001    1    1    2    0    0  0.61827731225E+02 -0.73129666023E+02  0.11212683262E+04  0.11416117009E+04  0.19200000000E+03 0.  0.
<mgrwt>
<rscale>  0 0.43380427E+03</rscale>
<asrwt>0</asrwt>
<pdfrwt beam="1">  1        2 0.37882713E+00 0.43380427E+03</pdfrwt>
<pdfrwt beam="2">  1       -2 0.25344896E-02 0.43380427E+03</pdfrwt>
<totfact> 0.22615103E+03</totfact>
</mgrwt>
</event>
<event>
 4    1  0.5455400E-005  0.9629041E+03  0.7818608E-02  0.9350194E-01
          2   -1    0    0  501    0  0.00000000000E+00  0.00000000000E+00  0.25375076643E+04  0.25375076643E+04  0.25500000000E-02 0.  1.
         -2   -1    0    0    0  501 -0.00000000000E+00 -0.00000000000E+00 -0.91347925865E+02  0.91347925900E+02  0.25500000000E-02 0. -1.
    5000001    1    1    2    0    0  0.39618212700E+03 -0.17196753911E+03  0.97287474498E+03  0.10816110122E+04  0.19200000000E+03 0.  0.
   -5000001    1    1    2    0    0 -0.39618212700E+03  0.17196753911E+03  0.14732849934E+04  0.15472445780E+04  0.19200000000E+03 0.  0.
<mgrwt>
<rscale>  0 0.96290407E+03</rscale>
<asrwt>0</asrwt>
<pdfrwt beam="1">  1        2 0.36250110E+00 0.96290407E+03</pdfrwt>
<pdfrwt beam="2">  1       -2 0.13049704E-01 0.96290407E+03</pdfrwt>
<totfact> 0.18915973E+02</totfact>
</mgrwt>
</event>
<event>
 4    1  0.5455400E-005  0.5625672E+03  0.7818608E-02  0.9986262E-01
         -2   -1    0    0    0  501 -0.00000000000E+00  0.00000000000E+00  0.97617958596E+02  0.97617958630E+02  0.25500000000E-02 0. -1.
          2   -1    0    0  501    0  0.00000000000E+00 -0.00000000000E+00 -0.81051147435E+03  0.81051147435E+03  0.25500000000E-02 0.  1.
    5000001    1    1    2    0    0  0.19129902278E+03 -0.39334318865E+02 -0.45998574547E+03  0.53534417975E+03  0.19200000000E+03 0.  0.
   -5000001    1    1    2    0    0 -0.19129902278E+03  0.39334318865E+02 -0.25290777029E+03  0.37278525324E+03  0.19200000000E+03 0.  0.
<mgrwt>
<rscale>  0 0.56256724E+03</rscale>
<asrwt>0</asrwt>
<pdfrwt beam="1">  1        2 0.11578735E+00 0.56256724E+03</pdfrwt>
<pdfrwt beam="2">  1       -2 0.13945423E-01 0.56256724E+03</pdfrwt>
<totfact> 0.14828255E+03</totfact>
</mgrwt>
</event>
<event>
 4    1  0.5455400E-005  0.4886386E+03  0.7818608E-02  0.1016788E+00
         -2   -1    0    0    0  501 -0.00000000000E+00  0.00000000000E+00  0.95070669554E+03  0.95070669555E+03  0.25500000000E-02 0. -1.
          2   -1    0    0  501    0  0.00000000000E+00 -0.00000000000E+00 -0.62786893472E+02  0.62786893524E+02  0.25500000000E-02 0.  1.
    5000001    1    1    2    0    0  0.86733415378E+02 -0.12147587250E+03  0.39536855573E+03  0.46417600951E+03  0.19200000000E+03 0.  0.
   -5000001    1    1    2    0    0 -0.86733415378E+02  0.12147587250E+03  0.49255124634E+03  0.54931757956E+03  0.19200000000E+03 0.  0.
<mgrwt>
<rscale>  0 0.48863860E+03</rscale>
<asrwt>0</asrwt>
<pdfrwt beam="1">  1        2 0.89695556E-02 0.48863860E+03</pdfrwt>
<pdfrwt beam="2">  1       -2 0.13581525E+00 0.48863860E+03</pdfrwt>
<totfact> 0.30106110E+02</totfact>
</mgrwt>
</event>
<event>
 4    1  0.5455400E-005  0.6485447E+03  0.7818608E-02  0.9809514E-01
          2   -1    0    0  501    0  0.00000000000E+00  0.00000000000E+00  0.11065105581E+04  0.11065105581E+04  0.25500000000E-02 0.  1.
         -2   -1    0    0    0  501 -0.00000000000E+00 -0.00000000000E+00 -0.95030769247E+02  0.95030769282E+02  0.25500000000E-02 0. -1.
    5000001    1    1    2    0    0 -0.24923889442E+03 -0.30672175010E+01  0.36034204653E+03  0.47837205688E+03  0.19200000000E+03 0.  0.
   -5000001    1    1    2    0    0  0.24923889442E+03  0.30672175010E+01  0.65113774232E+03  0.72316927049E+03  0.19200000000E+03 0.  0.
<mgrwt>
<rscale>  0 0.64854468E+03</rscale>
<asrwt>0</asrwt>
<pdfrwt beam="1">  1        2 0.15807295E+00 0.64854468E+03</pdfrwt>
<pdfrwt beam="2">  1       -2 0.13575823E-01 0.64854468E+03</pdfrwt>
<totfact> 0.10097651E+03</totfact>
</mgrwt>
</event>
<event>
 4    1  0.5455400E-005  0.4582965E+03  0.7818608E-02  0.1025276E+00
         -2   -1    0    0    0  501 -0.00000000000E+00  0.00000000000E+00  0.65478116052E+02  0.65478116102E+02  0.25500000000E-02 0. -1.
          2   -1    0    0  501    0  0.00000000000E+00 -0.00000000000E+00 -0.80193070835E+03  0.80193070835E+03  0.25500000000E-02 0.  1.
    5000001    1    1    2    0    0 -0.34663928145E+02  0.11242699196E+03 -0.44860386589E+03  0.50194705391E+03  0.19200000000E+03 0.  0.
   -5000001    1    1    2    0    0  0.34663928145E+02 -0.11242699196E+03 -0.28784872640E+03  0.36546177054E+03  0.19200000000E+03 0.  0.
<mgrwt>
<rscale>  0 0.45829646E+03</rscale>
<asrwt>0</asrwt>
<pdfrwt beam="1">  1        2 0.11456152E+00 0.45829646E+03</pdfrwt>
<pdfrwt beam="2">  1       -2 0.93540171E-02 0.45829646E+03</pdfrwt>
<totfact> 0.28856426E+03</totfact>
</mgrwt>
</event>
<event>
 4    1  0.5455400E-005  0.8059145E+03  0.7818608E-02  0.9551495E-01
         -2   -1    0    0    0  501 -0.00000000000E+00  0.00000000000E+00  0.12592295617E+03  0.12592295619E+03  0.25500000000E-02 0. -1.
          2   -1    0    0  501    0  0.00000000000E+00 -0.00000000000E+00 -0.12894752043E+04  0.12894752043E+04  0.25500000000E-02 0.  1.
    5000001    1    1    2    0    0  0.24302955611E+03  0.23843098906E+03 -0.40971761367E+03  0.56625544115E+03  0.19200000000E+03 0.  0.
   -5000001    1    1    2    0    0 -0.24302955611E+03 -0.23843098906E+03 -0.75383463447E+03  0.84914271934E+03  0.19200000000E+03 0.  0.
<mgrwt>
<rscale>  0 0.80591446E+03</rscale>
<asrwt>0</asrwt>
<pdfrwt beam="1">  1        2 0.18421074E+00 0.80591446E+03</pdfrwt>
<pdfrwt beam="2">  1       -2 0.17988994E-01 0.80591446E+03</pdfrwt>
<totfact> 0.49054936E+02</totfact>
</mgrwt>
</event>
<event>
 4    1  0.5455400E-005  0.6999324E+03  0.7818608E-02  0.9717348E-01
          2   -1    0    0  501    0  0.00000000000E+00  0.00000000000E+00  0.16394001093E+04  0.16394001093E+04  0.25500000000E-02 0.  1.
         -2   -1    0    0    0  501 -0.00000000000E+00 -0.00000000000E+00 -0.74708019156E+02  0.74708019200E+02  0.25500000000E-02 0. -1.
    5000001    1    1    2    0    0 -0.24123148559E+03 -0.12192493252E+03  0.10567393225E+04  0.11075289227E+04  0.19200000000E+03 0.  0.
   -5000001    1    1    2    0    0  0.24123148559E+03  0.12192493252E+03  0.50795276767E+03  0.60657920587E+03  0.19200000000E+03 0.  0.
<mgrwt>
<rscale>  0 0.69993238E+03</rscale>
<asrwt>0</asrwt>
<pdfrwt beam="1">  1        2 0.23420003E+00 0.69993238E+03</pdfrwt>
<pdfrwt beam="2">  1       -2 0.10672573E-01 0.69993238E+03</pdfrwt>
<totfact> 0.77259298E+02</totfact>
</mgrwt>
</event>
<event>
 4    1  0.5455400E-005  0.7928744E+03  0.7818608E-02  0.9570389E-01
         -2   -1    0    0    0  501 -0.00000000000E+00  0.00000000000E+00  0.11809325238E+04  0.11809325238E+04  0.25500000000E-02 0. -1.
          2   -1    0    0  501    0  0.00000000000E+00 -0.00000000000E+00 -0.13308333488E+03  0.13308333490E+03  0.25500000000E-02 0.  1.
    5000001    1    1    2    0    0 -0.11920839325E+03  0.31194380100E+03  0.67920453499E+03  0.78083441033E+03  0.19200000000E+03 0.  0.
   -5000001    1    1    2    0    0  0.11920839325E+03 -0.31194380100E+03  0.36864465389E+03  0.53318144834E+03  0.19200000000E+03 0.  0.
<mgrwt>
<rscale>  0 0.79287436E+03</rscale>
<asrwt>0</asrwt>
<pdfrwt beam="1">  1        2 0.19011905E-01 0.79287436E+03</pdfrwt>
<pdfrwt beam="2">  1       -2 0.16870464E+00 0.79287436E+03</pdfrwt>
<totfact> 0.66390387E+01</totfact>
</mgrwt>
</event>
<event>
 4    1  0.5455400E-005  0.5074303E+03  0.7818608E-02  0.1011857E+00
         -2   -1    0    0    0  501 -0.00000000000E+00  0.00000000000E+00  0.89530088337E+02  0.89530088373E+02  0.25500000000E-02 0. -1.
          2   -1    0    0  501    0  0.00000000000E+00 -0.00000000000E+00 -0.71899152841E+03  0.71899152842E+03  0.25500000000E-02 0.  1.
    5000001    1    1    2    0    0  0.13117647354E+03 -0.27995032838E+02 -0.15929484175E+03  0.28324871700E+03  0.19200000000E+03 0.  0.
   -5000001    1    1    2    0    0 -0.13117647354E+03  0.27995032838E+02 -0.47016659833E+03  0.52527289979E+03  0.19200000000E+03 0.  0.
<mgrwt>
<rscale>  0 0.50743029E+03</rscale>
<asrwt>0</asrwt>
<pdfrwt beam="1">  1        2 0.10271307E+00 0.50743029E+03</pdfrwt>
<pdfrwt beam="2">  1       -2 0.12790013E-01 0.50743029E+03</pdfrwt>
<totfact> 0.19892116E+03</totfact>
</mgrwt>
</event>
<event>
 4    1  0.5455400E-005  0.4504844E+03  0.7818608E-02  0.1027578E+00
         -2   -1    0    0    0  501 -0.00000000000E+00  0.00000000000E+00  0.27323373655E+02  0.27323373774E+02  0.25500000000E-02 0. -1.
          2   -1    0    0  501    0  0.00000000000E+00 -0.00000000000E+00 -0.18568004424E+04  0.18568004424E+04  0.25500000000E-02 0.  1.
    5000001    1    1    2    0    0 -0.11574357264E+03  0.21134175373E+02 -0.93640035276E+03  0.96309545146E+03  0.19200000000E+03 0.  0.
   -5000001    1    1    2    0    0  0.11574357264E+03 -0.21134175373E+02 -0.89307671599E+03  0.92102836472E+03  0.19200000000E+03 0.  0.
<mgrwt>
<rscale>  0 0.45048442E+03</rscale>
<asrwt>0</asrwt>
<pdfrwt beam="1">  1        2 0.26525713E+00 0.45048442E+03</pdfrwt>
<pdfrwt beam="2">  1       -2 0.39033403E-02 0.45048442E+03</pdfrwt>
<totfact> 0.29484218E+03</totfact>
</mgrwt>
</event>
<event>
 4    1  0.5455400E-005  0.5710199E+03  0.7818608E-02  0.9967424E-01
         -2   -1    0    0    0  501 -0.00000000000E+00  0.00000000000E+00  0.88930355834E+02  0.88930355870E+02  0.25500000000E-02 0.  1.
          2   -1    0    0  501    0  0.00000000000E+00 -0.00000000000E+00 -0.91662662713E+03  0.91662662713E+03  0.25500000000E-02 0. -1.
    5000001    1    1    2    0    0 -0.10749856163E+01 -0.19702573459E+03 -0.54832595625E+03  0.61347017041E+03  0.19200000000E+03 0.  0.
   -5000001    1    1    2    0    0  0.10749856163E+01  0.19702573459E+03 -0.27937031505E+03  0.39208681260E+03  0.19200000000E+03 0.  0.
<mgrwt>
<rscale>  0 0.57101990E+03</rscale>
<asrwt>0</asrwt>
<pdfrwt beam="1">  1        2 0.13094666E+00 0.57101990E+03</pdfrwt>
<pdfrwt beam="2">  1       -2 0.12704337E-01 0.57101990E+03</pdfrwt>
<totfact> 0.14728825E+03</totfact>
</mgrwt>
</event>
<event>
 4    1  0.5455400E-005  0.4917617E+03  0.7818608E-02  0.1015952E+00
          2   -1    0    0  501    0  0.00000000000E+00  0.00000000000E+00  0.13062647071E+04  0.13062647071E+04  0.25500000000E-02 0.  1.
         -2   -1    0    0    0  501 -0.00000000000E+00 -0.00000000000E+00 -0.46282646993E+02  0.46282647063E+02  0.25500000000E-02 0. -1.
    5000001    1    1    2    0    0 -0.10563356290E+03  0.10563501784E+03  0.72824589426E+03  0.76780419972E+03  0.19200000000E+03 0.  0.
   -5000001    1    1    2    0    0  0.10563356290E+03 -0.10563501784E+03  0.53173616589E+03  0.58474315449E+03  0.19200000000E+03 0.  0.
<mgrwt>
<rscale>  0 0.49176168E+03</rscale>
<asrwt>0</asrwt>
<pdfrwt beam="1">  1        2 0.18660925E+00 0.49176168E+03</pdfrwt>
<pdfrwt beam="2">  1       -2 0.66118067E-02 0.49176168E+03</pdfrwt>
<totfact> 0.25020621E+03</totfact>
</mgrwt>
</event>
<event>
 4    1  0.5455400E-005  0.5572082E+03  0.7818608E-02  0.9998391E-01
          2   -1    0    0  501    0  0.00000000000E+00  0.00000000000E+00  0.13160616892E+03  0.13160616895E+03  0.25500000000E-02 0. -1.
         -2   -1    0    0    0  501 -0.00000000000E+00 -0.00000000000E+00 -0.58979189359E+03  0.58979189359E+03  0.25500000000E-02 0.  1.
    5000001    1    1    2    0    0 -0.16986315378E+03 -0.10854500737E+03 -0.24331898498E+03  0.36973455084E+03  0.19200000000E+03 0.  0.
   -5000001    1    1    2    0    0  0.16986315378E+03  0.10854500737E+03 -0.21486673968E+03  0.35166351170E+03  0.19200000000E+03 0.  0.
<mgrwt>
<rscale>  0 0.55720823E+03</rscale>
<asrwt>0</asrwt>
<pdfrwt beam="1">  1        2 0.18800882E-01 0.55720823E+03</pdfrwt>
<pdfrwt beam="2">  1       -2 0.84255983E-01 0.55720823E+03</pdfrwt>
<totfact> 0.37961586E+02</totfact>
</mgrwt>
</event>
<event>
 4    1  0.5455400E-005  0.9482391E+03  0.7818608E-02  0.9367211E-01
          2   -1    0    0  501    0  0.00000000000E+00  0.00000000000E+00  0.18424854856E+04  0.18424854856E+04  0.25500000000E-02 0.  1.
         -2   -1    0    0    0  501 -0.00000000000E+00 -0.00000000000E+00 -0.12200333306E+03  0.12200333308E+03  0.25500000000E-02 0. -1.
    5000001    1    1    2    0    0  0.39487192598E+03 -0.32301473645E+01  0.48969155432E+03  0.65772037384E+03  0.19200000000E+03 0.  0.
   -5000001    1    1    2    0    0 -0.39487192598E+03  0.32301473645E+01  0.12307905982E+04  0.13067684448E+04  0.19200000000E+03 0.  0.
<mgrwt>
<rscale>  0 0.94823915E+03</rscale>
<asrwt>0</asrwt>
<pdfrwt beam="1">  1        2 0.26321221E+00 0.94823915E+03</pdfrwt>
<pdfrwt beam="2">  1       -2 0.17429048E-01 0.94823915E+03</pdfrwt>
<totfact> 0.26322775E+02</totfact>
</mgrwt>
</event>
<event>
 4    1  0.5455400E-005  0.7661722E+03  0.7818608E-02  0.9610315E-01
         -2   -1    0    0    0  501 -0.00000000000E+00  0.00000000000E+00  0.57763595574E+02  0.57763595630E+02  0.25500000000E-02 0. -1.
          2   -1    0    0  501    0  0.00000000000E+00 -0.00000000000E+00 -0.25406134197E+04  0.25406134197E+04  0.25500000000E-02 0.  1.
    5000001    1    1    2    0    0 -0.10568447131E+03  0.29961845692E+03 -0.92057615552E+03  0.99260510039E+03  0.19200000000E+03 0.  0.
   -5000001    1    1    2    0    0  0.10568447131E+03 -0.29961845692E+03 -0.15622736686E+04  0.16057719150E+04  0.19200000000E+03 0.  0.
<mgrwt>
<rscale>  0 0.76617222E+03</rscale>
<asrwt>0</asrwt>
<pdfrwt beam="1">  1        2 0.36294470E+00 0.76617222E+03</pdfrwt>
<pdfrwt beam="2">  1       -2 0.82519438E-02 0.76617222E+03</pdfrwt>
<totfact> 0.40549844E+02</totfact>
</mgrwt>
</event>
<event>
 4    1  0.5455400E-005  0.6220339E+03  0.7818608E-02  0.9860719E-01
          2   -1    0    0  501    0  0.00000000000E+00  0.00000000000E+00  0.25457793631E+03  0.25457793633E+03  0.25500000000E-02 0.  1.
         -2   -1    0    0    0  501 -0.00000000000E+00 -0.00000000000E+00 -0.37996827112E+03  0.37996827113E+03  0.25500000000E-02 0. -1.
    5000001    1    1    2    0    0 -0.19637117121E+03 -0.57877775907E+02  0.74000512147E+02  0.29026117485E+03  0.19200000000E+03 0.  0.
   -5000001    1    1    2    0    0  0.19637117121E+03  0.57877775907E+02 -0.19939084696E+03  0.34428503261E+03  0.19200000000E+03 0.  0.
<mgrwt>
<rscale>  0 0.62203388E+03</rscale>
<asrwt>0</asrwt>
<pdfrwt beam="1">  1        2 0.36368277E-01 0.62203388E+03</pdfrwt>
<pdfrwt beam="2">  1       -2 0.54281182E-01 0.62203388E+03</pdfrwt>
<totfact> 0.46162350E+02</totfact>
</mgrwt>
</event>
<event>
 4    1  0.5455400E-005  0.5772387E+03  0.7818608E-02  0.9953787E-01
          2   -1    0    0  501    0  0.00000000000E+00  0.00000000000E+00  0.81665305911E+03  0.81665305912E+03  0.25500000000E-02 0.  1.
         -2   -1    0    0    0  501 -0.00000000000E+00 -0.00000000000E+00 -0.10200308797E+03  0.10200308800E+03  0.25500000000E-02 0. -1.
    5000001    1    1    2    0    0  0.80509339880E+02 -0.19875607778E+03  0.32351234617E+03  0.43302421455E+03  0.19200000000E+03 0.  0.
   -5000001    1    1    2    0    0 -0.80509339880E+02  0.19875607778E+03  0.39113762497E+03  0.48563193257E+03  0.19200000000E+03 0.  0.
<mgrwt>
<rscale>  0 0.57723872E+03</rscale>
<asrwt>0</asrwt>
<pdfrwt beam="1">  1        2 0.11666472E+00 0.57723872E+03</pdfrwt>
<pdfrwt beam="2">  1       -2 0.14571870E-01 0.57723872E+03</pdfrwt>
<totfact> 0.13642462E+03</totfact>
</mgrwt>
</event>
<event>
 4    1  0.5455400E-005  0.4857238E+03  0.7818608E-02  0.1017574E+00
         -2   -1    0    0    0  501 -0.00000000000E+00  0.00000000000E+00  0.38719739763E+03  0.38719739764E+03  0.25500000000E-02 0. -1.
          2   -1    0    0  501    0  0.00000000000E+00 -0.00000000000E+00 -0.15233034507E+03  0.15233034509E+03  0.25500000000E-02 0.  1.
    5000001    1    1    2    0    0  0.11035423001E+03 -0.96355352750E+02  0.88994695463E+02  0.25738388820E+03  0.19200000000E+03 0.  0.
   -5000001    1    1    2    0    0 -0.11035423001E+03  0.96355352750E+02  0.14587235710E+03  0.28214385453E+03  0.19200000000E+03 0.  0.
<mgrwt>
<rscale>  0 0.48572384E+03</rscale>
<asrwt>0</asrwt>
<pdfrwt beam="1">  1        2 0.21761478E-01 0.48572384E+03</pdfrwt>
<pdfrwt beam="2">  1       -2 0.55313914E-01 0.48572384E+03</pdfrwt>
<totfact> 0.79422603E+02</totfact>
</mgrwt>
</event>
<event>
 4    1  0.5455400E-005  0.5426831E+03  0.7818608E-02  0.1003202E+00
         -2   -1    0    0    0  501 -0.00000000000E+00  0.00000000000E+00  0.61911915768E+02  0.61911915820E+02  0.25500000000E-02 0. -1.
          2   -1    0    0  501    0  0.00000000000E+00 -0.00000000000E+00 -0.11892093535E+04  0.11892093535E+04  0.25500000000E-02 0.  1.
    5000001    1    1    2    0    0 -0.91887952772E+02 -0.11329607611E+03 -0.85051423255E+03  0.88403498602E+03  0.19200000000E+03 0.  0.
   -5000001    1    1    2    0    0  0.91887952772E+02  0.11329607611E+03 -0.27678320520E+03  0.36708628333E+03  0.19200000000E+03 0.  0.
<mgrwt>
<rscale>  0 0.54268307E+03</rscale>
<asrwt>0</asrwt>
<pdfrwt beam="1">  1        2 0.16988704E+00 0.54268307E+03</pdfrwt>
<pdfrwt beam="2">  1       -2 0.88445601E-02 0.54268307E+03</pdfrwt>
<totfact> 0.18285783E+03</totfact>
</mgrwt>
</event>
<event>
 4    1  0.5455400E-005  0.5526358E+03  0.7818608E-02  0.1000886E+00
          2   -1    0    0  501    0  0.00000000000E+00  0.00000000000E+00  0.10252317519E+04  0.10252317519E+04  0.25500000000E-02 0. -1.
         -2   -1    0    0    0  501 -0.00000000000E+00 -0.00000000000E+00 -0.74472522503E+02  0.74472522547E+02  0.25500000000E-02 0.  1.
    5000001    1    1    2    0    0 -0.17374664180E+03  0.20864302596E+02  0.28802644468E+03  0.38787426764E+03  0.19200000000E+03 0.  0.
   -5000001    1    1    2    0    0  0.17374664180E+03 -0.20864302596E+02  0.66273278473E+03  0.71183000683E+03  0.19200000000E+03 0.  0.
<mgrwt>
<rscale>  0 0.55263585E+03</rscale>
<asrwt>0</asrwt>
<pdfrwt beam="1">  1        2 0.14646168E+00 0.55263585E+03</pdfrwt>
<pdfrwt beam="2">  1       -2 0.10638931E-01 0.55263585E+03</pdfrwt>
<totfact> 0.16884438E+03</totfact>
</mgrwt>
</event>
<event>
 4    1  0.5455400E-005  0.8832286E+03  0.7818608E-02  0.9446793E-01
         -2   -1    0    0    0  501 -0.00000000000E+00  0.00000000000E+00  0.15983073499E+03  0.15983073501E+03  0.25500000000E-02 0. -1.
          2   -1    0    0  501    0  0.00000000000E+00 -0.00000000000E+00 -0.12201858027E+04  0.12201858027E+04  0.25500000000E-02 0.  1.
    5000001    1    1    2    0    0 -0.73824969309E+02 -0.34023341764E+03 -0.83052231058E+03  0.92078239175E+03  0.19200000000E+03 0.  0.
   -5000001    1    1    2    0    0  0.73824969309E+02  0.34023341764E+03 -0.22983275713E+03  0.45923414597E+03  0.19200000000E+03 0.  0.
<mgrwt>
<rscale>  0 0.88322861E+03</rscale>
<asrwt>0</asrwt>
<pdfrwt beam="1">  1        2 0.17431225E+00 0.88322861E+03</pdfrwt>
<pdfrwt beam="2">  1       -2 0.22832963E-01 0.88322861E+03</pdfrwt>
<totfact> 0.35149925E+02</totfact>
</mgrwt>
</event>
<event>
 4    1  0.5455400E-005  0.5785022E+03  0.7818608E-02  0.9951039E-01
          2   -1    0    0  501    0  0.00000000000E+00  0.00000000000E+00  0.81692439102E+03  0.81692439102E+03  0.25500000000E-02 0.  1.
         -2   -1    0    0    0  501 -0.00000000000E+00 -0.00000000000E+00 -0.10241608520E+03  0.10241608523E+03  0.25500000000E-02 0. -1.
    5000001    1    1    2    0    0 -0.90979062823E+02  0.19438830192E+03  0.31407667346E+03  0.42611284727E+03  0.19200000000E+03 0.  0.
   -5000001    1    1    2    0    0  0.90979062823E+02 -0.19438830192E+03  0.40043163237E+03  0.49322762899E+03  0.19200000000E+03 0.  0.
<mgrwt>
<rscale>  0 0.57850220E+03</rscale>
<asrwt>0</asrwt>
<pdfrwt beam="1">  1        2 0.11670347E+00 0.57850220E+03</pdfrwt>
<pdfrwt beam="2">  1       -2 0.14630871E-01 0.57850220E+03</pdfrwt>
<totfact> 0.13544315E+03</totfact>
</mgrwt>
</event>
<event>
 4    1  0.5455400E-005  0.4997595E+03  0.7818608E-02  0.1013842E+00
          2   -1    0    0  501    0  0.00000000000E+00  0.00000000000E+00  0.10496953525E+04  0.10496953525E+04  0.25500000000E-02 0.  1.
         -2   -1    0    0    0  501 -0.00000000000E+00 -0.00000000000E+00 -0.59483828921E+02  0.59483828975E+02  0.25500000000E-02 0. -1.
    5000001    1    1    2    0    0  0.54318656206E+02  0.68705556502E+02  0.19812595596E+03  0.28946306212E+03  0.19200000000E+03 0.  0.
   -5000001    1    1    2    0    0 -0.54318656206E+02 -0.68705556502E+02  0.79208556760E+03  0.81971611934E+03  0.19200000000E+03 0.  0.
<mgrwt>
<rscale>  0 0.49975954E+03</rscale>
<asrwt>0</asrwt>
<pdfrwt beam="1">  1        2 0.14995646E+00 0.49975954E+03</pdfrwt>
<pdfrwt beam="2">  1       -2 0.84976907E-02 0.49975954E+03</pdfrwt>
<totfact> 0.23455418E+03</totfact>
</mgrwt>
</event>
<event>
 4    1  0.5455400E-005  0.6420771E+03  0.7818608E-02  0.9821761E-01
         -2   -1    0    0    0  501 -0.00000000000E+00  0.00000000000E+00  0.27928406064E+02  0.27928406181E+02  0.25500000000E-02 0. -1.
          2   -1    0    0  501    0  0.00000000000E+00 -0.00000000000E+00 -0.36903556896E+04  0.36903556896E+04  0.25500000000E-02 0.  1.
    5000001    1    1    2    0    0 -0.20931829117E+03  0.14962482098E+03 -0.18319984377E+04  0.18599150545E+04  0.19200000000E+03 0.  0.
   -5000001    1    1    2    0    0  0.20931829117E+03 -0.14962482098E+03 -0.18304288459E+04  0.18583690413E+04  0.19200000000E+03 0.  0.
<mgrwt>
<rscale>  0 0.64207711E+03</rscale>
<asrwt>0</asrwt>
<pdfrwt beam="1">  1        2 0.52719336E+00 0.64207711E+03</pdfrwt>
<pdfrwt beam="2">  1       -2 0.39897746E-02 0.64207711E+03</pdfrwt>
<totfact> 0.29109929E+02</totfact>
</mgrwt>
</event>
<event>
 4    1  0.5455400E-005  0.4447358E+03  0.7818608E-02  0.1029304E+00
          2   -1    0    0  501    0  0.00000000000E+00  0.00000000000E+00  0.12141370732E+03  0.12141370735E+03  0.25500000000E-02 0.  1.
         -2   -1    0    0    0  501 -0.00000000000E+00 -0.00000000000E+00 -0.40726443397E+03  0.40726443398E+03  0.25500000000E-02 0. -1.
    5000001    1    1    2    0    0 -0.10192518663E+03  0.43748497421E+02 -0.12300507503E+03  0.25356837969E+03  0.19200000000E+03 0.  0.
   -5000001    1    1    2    0    0  0.10192518663E+03 -0.43748497421E+02 -0.16284565163E+03  0.27510976164E+03  0.19200000000E+03 0.  0.
<mgrwt>
<rscale>  0 0.44473581E+03</rscale>
<asrwt>0</asrwt>
<pdfrwt beam="1">  1        2 0.17344815E-01 0.44473581E+03</pdfrwt>
<pdfrwt beam="2">  1       -2 0.58180633E-01 0.44473581E+03</pdfrwt>
<totfact> 0.93207398E+02</totfact>
</mgrwt>
</event>
<event>
 4    1  0.5455400E-005  0.6604619E+03  0.7818608E-02  0.9787344E-01
          2   -1    0    0  501    0  0.00000000000E+00  0.00000000000E+00  0.42375704555E+03  0.42375704556E+03  0.25500000000E-02 0.  1.
         -2   -1    0    0    0  501 -0.00000000000E+00 -0.00000000000E+00 -0.25734668273E+03  0.25734668274E+03  0.25500000000E-02 0. -1.
    5000001    1    1    2    0    0 -0.15902405062E+03  0.21466804961E+03  0.11268983607E+03  0.34775568917E+03  0.19200000000E+03 0.  0.
   -5000001    1    1    2    0    0  0.15902405062E+03 -0.21466804961E+03  0.53720526754E+02  0.33334803913E+03  0.19200000000E+03 0.  0.
<mgrwt>
<rscale>  0 0.66046187E+03</rscale>
<asrwt>0</asrwt>
<pdfrwt beam="1">  1        2 0.60536720E-01 0.66046187E+03</pdfrwt>
<pdfrwt beam="2">  1       -2 0.36763812E-01 0.66046187E+03</pdfrwt>
<totfact> 0.56820807E+02</totfact>
</mgrwt>
</event>
<event>
 4    1  0.5455400E-005  0.7994871E+03  0.7818608E-02  0.9560760E-01
         -2   -1    0    0    0  501 -0.00000000000E+00  0.00000000000E+00  0.55543456940E+03  0.55543456941E+03  0.25500000000E-02 0. -1.
          2   -1    0    0  501    0  0.00000000000E+00 -0.00000000000E+00 -0.28769349975E+03  0.28769349976E+03  0.25500000000E-02 0.  1.
    5000001    1    1    2    0    0 -0.18224218563E+03 -0.28941557075E+03  0.52473638917E+02  0.39571589505E+03  0.19200000000E+03 0.  0.
   -5000001    1    1    2    0    0  0.18224218563E+03  0.28941557075E+03  0.21526743073E+03  0.44741217412E+03  0.19200000000E+03 0.  0.
<mgrwt>
<rscale>  0 0.79948712E+03</rscale>
<asrwt>0</asrwt>
<pdfrwt beam="1">  1        2 0.41099071E-01 0.79948712E+03</pdfrwt>
<pdfrwt beam="2">  1       -2 0.79347796E-01 0.79948712E+03</pdfrwt>
<totfact> 0.17723384E+02</totfact>
</mgrwt>
</event>
<event>
 4    1  0.5455400E-005  0.6472364E+03  0.7818608E-02  0.9811979E-01
          2   -1    0    0  501    0  0.00000000000E+00  0.00000000000E+00  0.24531294085E+04  0.24531294085E+04  0.25500000000E-02 0.  1.
         -2   -1    0    0    0  501 -0.00000000000E+00 -0.00000000000E+00 -0.42691888722E+02  0.42691888798E+02  0.25500000000E-02 0. -1.
    5000001    1    1    2    0    0  0.14670831523E+03 -0.20222325706E+03  0.92061846978E+03  0.97304673185E+03  0.19200000000E+03 0.  0.
   -5000001    1    1    2    0    0 -0.14670831523E+03  0.20222325706E+03  0.14898190500E+04  0.15227745654E+04  0.19200000000E+03 0.  0.
<mgrwt>
<rscale>  0 0.64723636E+03</rscale>
<asrwt>0</asrwt>
<pdfrwt beam="1">  1        2 0.35044703E+00 0.64723636E+03</pdfrwt>
<pdfrwt beam="2">  1       -2 0.60988418E-02 0.64723636E+03</pdfrwt>
<totfact> 0.73367849E+02</totfact>
</mgrwt>
</event>
<event>
 4    1  0.5455400E-005  0.5863629E+03  0.7818608E-02  0.9934110E-01
          2   -1    0    0  501    0  0.00000000000E+00  0.00000000000E+00  0.12153282992E+03  0.12153282995E+03  0.25500000000E-02 0.  1.
         -2   -1    0    0    0  501 -0.00000000000E+00 -0.00000000000E+00 -0.70726045894E+03  0.70726045894E+03  0.25500000000E-02 0. -1.
    5000001    1    1    2    0    0 -0.20704717092E+03  0.34220410159E+02 -0.39332601983E+03  0.48539563794E+03  0.19200000000E+03 0.  0.
   -5000001    1    1    2    0    0  0.20704717092E+03 -0.34220410159E+02 -0.19240160919E+03  0.34339765095E+03  0.19200000000E+03 0.  0.
<mgrwt>
<rscale>  0 0.58636291E+03</rscale>
<asrwt>0</asrwt>
<pdfrwt beam="1">  1        2 0.17361833E-01 0.58636291E+03</pdfrwt>
<pdfrwt beam="2">  1       -2 0.10103721E+00 0.58636291E+03</pdfrwt>
<totfact> 0.27407487E+02</totfact>
</mgrwt>
</event>
<event>
 4    1  0.5455400E-005  0.4756992E+03  0.7818608E-02  0.1020324E+00
         -2   -1    0    0    0  501 -0.00000000000E+00  0.00000000000E+00  0.38086749496E+02  0.38086749581E+02  0.25500000000E-02 0. -1.
          2   -1    0    0  501    0  0.00000000000E+00 -0.00000000000E+00 -0.14853570212E+04  0.14853570212E+04  0.25500000000E-02 0.  1.
    5000001    1    1    2    0    0  0.13857364952E+03  0.15428509405E+02 -0.77603606682E+03  0.81150272473E+03  0.19200000000E+03 0.  0.
   -5000001    1    1    2    0    0 -0.13857364952E+03 -0.15428509405E+02 -0.67123420485E+03  0.71194104602E+03  0.19200000000E+03 0.  0.
<mgrwt>
<rscale>  0 0.47569915E+03</rscale>
<asrwt>0</asrwt>
<pdfrwt beam="1">  1        2 0.21219382E+00 0.47569915E+03</pdfrwt>
<pdfrwt beam="2">  1       -2 0.54409652E-02 0.47569915E+03</pdfrwt>
<totfact> 0.27275818E+03</totfact>
</mgrwt>
</event>
<event>
 4    1  0.5455400E-005  0.8811126E+03  0.7818608E-02  0.9449505E-01
         -2   -1    0    0    0  501 -0.00000000000E+00  0.00000000000E+00  0.98003174778E+02  0.98003174811E+02  0.25500000000E-02 0. -1.
          2   -1    0    0  501    0  0.00000000000E+00 -0.00000000000E+00 -0.19804443602E+04  0.19804443602E+04  0.25500000000E-02 0.  1.
    5000001    1    1    2    0    0  0.27343358680E+03  0.27975370952E+03 -0.10940535502E+04  0.11776439340E+04  0.19200000000E+03 0.  0.
   -5000001    1    1    2    0    0 -0.27343358680E+03 -0.27975370952E+03 -0.78838763522E+03  0.90080360110E+03  0.19200000000E+03 0.  0.
<mgrwt>
<rscale>  0 0.88111256E+03</rscale>
<asrwt>0</asrwt>
<pdfrwt beam="1">  1        2 0.28292060E+00 0.88111256E+03</pdfrwt>
<pdfrwt beam="2">  1       -2 0.14000455E-01 0.88111256E+03</pdfrwt>
<totfact> 0.32654114E+02</totfact>
</mgrwt>
</event>
<event>
 4    1  0.5455400E-005  0.6230485E+03  0.7818608E-02  0.9858709E-01
         -2   -1    0    0    0  501 -0.00000000000E+00  0.00000000000E+00  0.79764726388E+03  0.79764726388E+03  0.25500000000E-02 0. -1.
          2   -1    0    0  501    0  0.00000000000E+00 -0.00000000000E+00 -0.12166702095E+03  0.12166702098E+03  0.25500000000E-02 0.  1.
    5000001    1    1    2    0    0  0.27013784899E+02 -0.13239671984E+03  0.64010859023E+03  0.68180762924E+03  0.19200000000E+03 0.  0.
   -5000001    1    1    2    0    0 -0.27013784899E+02  0.13239671984E+03  0.35871652693E+02  0.23750665562E+03  0.19200000000E+03 0.  0.
<mgrwt>
<rscale>  0 0.62304853E+03</rscale>
<asrwt>0</asrwt>
<pdfrwt beam="1">  1        2 0.17381003E-01 0.62304853E+03</pdfrwt>
<pdfrwt beam="2">  1       -2 0.11394961E+00 0.62304853E+03</pdfrwt>
<totfact> 0.20491048E+02</totfact>
</mgrwt>
</event>
<event>
 4    1  0.5455400E-005  0.9568089E+03  0.7818608E-02  0.9357227E-01
          2   -1    0    0  501    0  0.00000000000E+00  0.00000000000E+00  0.40439634843E+03  0.40439634844E+03  0.25500000000E-02 0.  1.
         -2   -1    0    0    0  501 -0.00000000000E+00 -0.00000000000E+00 -0.56595668711E+03  0.56595668712E+03  0.25500000000E-02 0. -1.
    5000001    1    1    2    0    0  0.37385352123E+03  0.22147243749E+03 -0.23497690391E+02  0.47563918821E+03  0.19200000000E+03 0.  0.
   -5000001    1    1    2    0    0 -0.37385352123E+03 -0.22147243749E+03 -0.13806264830E+03  0.49471384735E+03  0.19200000000E+03 0.  0.
<mgrwt>
<rscale>  0 0.95680890E+03</rscale>
<asrwt>0</asrwt>
<pdfrwt beam="1">  1        2 0.57770907E-01 0.95680890E+03</pdfrwt>
<pdfrwt beam="2">  1       -2 0.80850955E-01 0.95680890E+03</pdfrwt>
<totfact> 0.11546437E+02</totfact>
</mgrwt>
</event>
<event>
 4    1  0.5455400E-005  0.4279330E+03  0.7818608E-02  0.1034515E+00
         -2   -1    0    0    0  501 -0.00000000000E+00  0.00000000000E+00  0.31244668899E+03  0.31244668900E+03  0.25500000000E-02 0.  1.
          2   -1    0    0  501    0  0.00000000000E+00 -0.00000000000E+00 -0.14652631189E+03  0.14652631192E+03  0.25500000000E-02 0. -1.
    5000001    1    1    2    0    0 -0.68851789626E+01  0.90692615655E+02  0.11020140534E+03  0.23933429750E+03  0.19200000000E+03 0.  0.
   -5000001    1    1    2    0    0  0.68851789626E+01 -0.90692615655E+02  0.55718971761E+02  0.21963870342E+03  0.19200000000E+03 0.  0.
<mgrwt>
<rscale>  0 0.42793299E+03</rscale>
<asrwt>0</asrwt>
<pdfrwt beam="1">  1        2 0.20932330E-01 0.42793299E+03</pdfrwt>
<pdfrwt beam="2">  1       -2 0.44635241E-01 0.42793299E+03</pdfrwt>
<totfact> 0.12786810E+03</totfact>
</mgrwt>
</event>
<event>
 4    1  0.5455400E-005  0.1623961E+04  0.7818608E-02  0.8805962E-01
         -2   -1    0    0    0  501 -0.00000000000E+00  0.00000000000E+00  0.35051892815E+03  0.35051892816E+03  0.25500000000E-02 0. -1.
          2   -1    0    0  501    0  0.00000000000E+00 -0.00000000000E+00 -0.18809599390E+04  0.18809599390E+04  0.25500000000E-02 0.  1.
    5000001    1    1    2    0    0  0.75157799522E+03 -0.16852084159E+03 -0.99994301622E+03  0.12767218932E+04  0.19200000000E+03 0.  0.
   -5000001    1    1    2    0    0 -0.75157799522E+03  0.16852084159E+03 -0.53049799459E+03  0.95475697390E+03  0.19200000000E+03 0.  0.
<mgrwt>
<rscale>  0 0.16239607E+04</rscale>
<asrwt>0</asrwt>
<pdfrwt beam="1">  1        2 0.26870856E+00 0.16239607E+04</pdfrwt>
<pdfrwt beam="2">  1       -2 0.50074134E-01 0.16239607E+04</pdfrwt>
<totfact> 0.33438243E+01</totfact>
</mgrwt>
</event>
<event>
 4    1  0.5455400E-005  0.7375859E+03  0.7818608E-02  0.9655030E-01
          2   -1    0    0  501    0  0.00000000000E+00  0.00000000000E+00  0.13329563093E+03  0.13329563096E+03  0.25500000000E-02 0.  1.
         -2   -1    0    0    0  501 -0.00000000000E+00 -0.00000000000E+00 -0.10203504531E+04  0.10203504531E+04  0.25500000000E-02 0. -1.
    5000001    1    1    2    0    0 -0.15605681430E+03 -0.20390289238E+03 -0.15847713936E+03  0.35764384870E+03  0.19200000000E+03 0.  0.
   -5000001    1    1    2    0    0  0.15605681430E+03  0.20390289238E+03 -0.72857768280E+03  0.79600223535E+03  0.19200000000E+03 0.  0.
<mgrwt>
<rscale>  0 0.73758595E+03</rscale>
<asrwt>0</asrwt>
<pdfrwt beam="1">  1        2 0.19042234E-01 0.73758595E+03</pdfrwt>
<pdfrwt beam="2">  1       -2 0.14576435E+00 0.73758595E+03</pdfrwt>
<totfact> 0.98412511E+01</totfact>
</mgrwt>
</event>
<event>
 4    1  0.5455400E-005  0.4347664E+03  0.7818608E-02  0.1032365E+00
          2   -1    0    0  501    0  0.00000000000E+00  0.00000000000E+00  0.16126663032E+04  0.16126663032E+04  0.25500000000E-02 0.  1.
         -2   -1    0    0    0  501 -0.00000000000E+00 -0.00000000000E+00 -0.29302690190E+02  0.29302690301E+02  0.25500000000E-02 0. -1.
    5000001    1    1    2    0    0  0.82134219805E+02  0.54311521440E+02  0.69206863911E+03  0.72492673606E+03  0.19200000000E+03 0.  0.
   -5000001    1    1    2    0    0 -0.82134219805E+02 -0.54311521440E+02  0.89129497386E+03  0.91704225740E+03  0.19200000000E+03 0.  0.
<mgrwt>
<rscale>  0 0.43476643E+03</rscale>
<asrwt>0</asrwt>
<pdfrwt beam="1">  1        2 0.23038088E+00 0.43476643E+03</pdfrwt>
<pdfrwt beam="2">  1       -2 0.41860990E-02 0.43476643E+03</pdfrwt>
<totfact> 0.35147619E+03</totfact>
</mgrwt>
</event>
<event>
 4    1  0.5455400E-005  0.6353945E+03  0.7818608E-02  0.9834578E-01
         -2   -1    0    0    0  501 -0.00000000000E+00  0.00000000000E+00  0.50850716436E+02  0.50850716500E+02  0.25500000000E-02 0. -1.
          2   -1    0    0  501    0  0.00000000000E+00 -0.00000000000E+00 -0.19848595174E+04  0.19848595174E+04  0.25500000000E-02 0.  1.
    5000001    1    1    2    0    0 -0.18907738824E+03 -0.15140130976E+03 -0.73168118704E+03  0.79428834488E+03  0.19200000000E+03 0.  0.
   -5000001    1    1    2    0    0  0.18907738824E+03  0.15140130976E+03 -0.12023276139E+04  0.12414218890E+04  0.19200000000E+03 0.  0.
<mgrwt>
<rscale>  0 0.63539446E+03</rscale>
<asrwt>0</asrwt>
<pdfrwt beam="1">  1        2 0.28355131E+00 0.63539446E+03</pdfrwt>
<pdfrwt beam="2">  1       -2 0.72643893E-02 0.63539446E+03</pdfrwt>
<totfact> 0.96161087E+02</totfact>
</mgrwt>
</event>
<event>
 4    1  0.5455400E-005  0.5572783E+03  0.7818608E-02  0.9998232E-01
          2   -1    0    0  501    0  0.00000000000E+00  0.00000000000E+00  0.85656711100E+03  0.85656711100E+03  0.25500000000E-02 0.  1.
         -2   -1    0    0    0  501 -0.00000000000E+00 -0.00000000000E+00 -0.90640622569E+02  0.90640622605E+02  0.25500000000E-02 0. -1.
    5000001    1    1    2    0    0 -0.12895825195E+03 -0.86238428103E+02  0.60266906380E+03  0.65126131291E+03  0.19200000000E+03 0.  0.
   -5000001    1    1    2    0    0  0.12895825195E+03  0.86238428103E+02  0.16325742463E+03  0.29594642070E+03  0.19200000000E+03 0.  0.
<mgrwt>
<rscale>  0 0.55727830E+03</rscale>
<asrwt>0</asrwt>
<pdfrwt beam="1">  1        2 0.12236673E+00 0.55727830E+03</pdfrwt>
<pdfrwt beam="2">  1       -2 0.12948660E-01 0.55727830E+03</pdfrwt>
<totfact> 0.15616705E+03</totfact>
</mgrwt>
</event>
<event>
 4    1  0.5455400E-005  0.8850850E+03  0.7818608E-02  0.9444420E-01
         -2   -1    0    0    0  501 -0.00000000000E+00  0.00000000000E+00  0.55593999974E+02  0.55594000032E+02  0.25500000000E-02 0. -1.
          2   -1    0    0  501    0  0.00000000000E+00 -0.00000000000E+00 -0.35227520744E+04  0.35227520744E+04  0.25500000000E-02 0.  1.
    5000001    1    1    2    0    0  0.38417675816E+03 -0.10604784645E+03 -0.16854100545E+04  0.17425007831E+04  0.19200000000E+03 0.  0.
   -5000001    1    1    2    0    0 -0.38417675816E+03  0.10604784645E+03 -0.17817480200E+04  0.18358452914E+04  0.19200000000E+03 0.  0.
<mgrwt>
<rscale>  0 0.88508503E+03</rscale>
<asrwt>0</asrwt>
<pdfrwt beam="1">  1        2 0.50325015E+00 0.88508503E+03</pdfrwt>
<pdfrwt beam="2">  1       -2 0.79420022E-02 0.88508503E+03</pdfrwt>
<totfact> 0.12158988E+02</totfact>
</mgrwt>
</event>
<event>
 4    1  0.5455400E-005  0.7672818E+03  0.7818608E-02  0.9608621E-01
         -2   -1    0    0    0  501 -0.00000000000E+00  0.00000000000E+00  0.22974257696E+03  0.22974257697E+03  0.25500000000E-02 0. -1.
          2   -1    0    0  501    0  0.00000000000E+00 -0.00000000000E+00 -0.64063147023E+03  0.64063147023E+03  0.25500000000E-02 0.  1.
    5000001    1    1    2    0    0 -0.32564966772E+03  0.44159954636E+02 -0.15082387795E+03  0.40940157528E+03  0.19200000000E+03 0.  0.
   -5000001    1    1    2    0    0  0.32564966772E+03 -0.44159954636E+02 -0.26006501532E+03  0.46097247193E+03  0.19200000000E+03 0.  0.
<mgrwt>
<rscale>  0 0.76728176E+03</rscale>
<asrwt>0</asrwt>
<pdfrwt beam="1">  1        2 0.91518781E-01 0.76728176E+03</pdfrwt>
<pdfrwt beam="2">  1       -2 0.32820368E-01 0.76728176E+03</pdfrwt>
<totfact> 0.43609459E+02</totfact>
</mgrwt>
</event>
<event>
 4    1  0.5455400E-005  0.5839555E+03  0.7818608E-02  0.9939264E-01
         -2   -1    0    0    0  501 -0.00000000000E+00  0.00000000000E+00  0.39994990994E+03  0.39994990995E+03  0.25500000000E-02 0. -1.
          2   -1    0    0  501    0  0.00000000000E+00 -0.00000000000E+00 -0.21315420359E+03  0.21315420361E+03  0.25500000000E-02 0.  1.
    5000001    1    1    2    0    0 -0.90690472193E+02 -0.19094705175E+03  0.29521314170E+02  0.28709065869E+03  0.19200000000E+03 0.  0.
   -5000001    1    1    2    0    0  0.90690472193E+02  0.19094705175E+03  0.15727439218E+03  0.32601345487E+03  0.19200000000E+03 0.  0.
<mgrwt>
<rscale>  0 0.58395549E+03</rscale>
<asrwt>0</asrwt>
<pdfrwt beam="1">  1        2 0.30450600E-01 0.58395549E+03</pdfrwt>
<pdfrwt beam="2">  1       -2 0.57135702E-01 0.58395549E+03</pdfrwt>
<totfact> 0.50649420E+02</totfact>
</mgrwt>
</event>
<event>
 4    1  0.5455400E-005  0.9275698E+03  0.7818608E-02  0.9391759E-01
         -2   -1    0    0    0  501 -0.00000000000E+00  0.00000000000E+00  0.84277344856E+02  0.84277344894E+02  0.25500000000E-02 0. -1.
          2   -1    0    0  501    0  0.00000000000E+00 -0.00000000000E+00 -0.25522449035E+04  0.25522449035E+04  0.25500000000E-02 0.  1.
    5000001    1    1    2    0    0 -0.33708314897E+03 -0.13517545495E+03 -0.18458257958E+04  0.18909876576E+04  0.19200000000E+03 0.  0.
   -5000001    1    1    2    0    0  0.33708314897E+03  0.13517545495E+03 -0.62214176292E+03  0.74553459082E+03  0.19200000000E+03 0.  0.
<mgrwt>
<rscale>  0 0.92756978E+03</rscale>
<asrwt>0</asrwt>
<pdfrwt beam="1">  1        2 0.36460637E+00 0.92756978E+03</pdfrwt>
<pdfrwt beam="2">  1       -2 0.12039622E-01 0.92756978E+03</pdfrwt>
<totfact> 0.21313817E+02</totfact>
</mgrwt>
</event>
<event>
 4    1  0.5455400E-005  0.6056690E+03  0.7818608E-02  0.9893714E-01
          2   -1    0    0  501    0  0.00000000000E+00  0.00000000000E+00  0.14777512772E+03  0.14777512774E+03  0.25500000000E-02 0.  1.
         -2   -1    0    0    0  501 -0.00000000000E+00 -0.00000000000E+00 -0.62059662499E+03  0.62059662500E+03  0.25500000000E-02 0. -1.
    5000001    1    1    2    0    0 -0.23150876857E+03 -0.35328138515E+02 -0.23565143773E+03  0.38371863051E+03  0.19200000000E+03 0.  0.
   -5000001    1    1    2    0    0  0.23150876857E+03  0.35328138515E+02 -0.23717005954E+03  0.38465312223E+03  0.19200000000E+03 0.  0.
<mgrwt>
<rscale>  0 0.60566904E+03</rscale>
<asrwt>0</asrwt>
<pdfrwt beam="1">  1        2 0.21110733E-01 0.60566904E+03</pdfrwt>
<pdfrwt beam="2">  1       -2 0.88656659E-01 0.60566904E+03</pdfrwt>
<totfact> 0.29492831E+02</totfact>
</mgrwt>
</event>
<event>
 4    1  0.5455400E-005  0.6136197E+03  0.7818608E-02  0.9877546E-01
         -2   -1    0    0    0  501 -0.00000000000E+00  0.00000000000E+00  0.14863902688E+03  0.14863902690E+03  0.25500000000E-02 0. -1.
          2   -1    0    0  501    0  0.00000000000E+00 -0.00000000000E+00 -0.63329457874E+03  0.63329457875E+03  0.25500000000E-02 0.  1.
    5000001    1    1    2    0    0 -0.16776747323E+02 -0.12064937208E+03  0.20160524654E+02  0.22827215553E+03  0.19200000000E+03 0.  0.
   -5000001    1    1    2    0    0  0.16776747323E+02  0.12064937208E+03 -0.50481607652E+03  0.55366145012E+03  0.19200000000E+03 0.  0.
<mgrwt>
<rscale>  0 0.61361972E+03</rscale>
<asrwt>0</asrwt>
<pdfrwt beam="1">  1        2 0.90470653E-01 0.61361972E+03</pdfrwt>
<pdfrwt beam="2">  1       -2 0.21234147E-01 0.61361972E+03</pdfrwt>
<totfact> 0.97884430E+02</totfact>
</mgrwt>
</event>
<event>
 4    1  0.5455400E-005  0.7574118E+03  0.7818608E-02  0.9623794E-01
         -2   -1    0    0    0  501 -0.00000000000E+00  0.00000000000E+00  0.15932614009E+03  0.15932614011E+03  0.25500000000E-02 0. -1.
          2   -1    0    0  501    0  0.00000000000E+00 -0.00000000000E+00 -0.90015459279E+03  0.90015459279E+03  0.25500000000E-02 0.  1.
    5000001    1    1    2    0    0 -0.14303569156E+03  0.28726576162E+03 -0.28679665364E+03  0.47127184024E+03  0.19200000000E+03 0.  0.
   -5000001    1    1    2    0    0  0.14303569156E+03 -0.28726576162E+03 -0.45403179906E+03  0.58820889267E+03  0.19200000000E+03 0.  0.
<mgrwt>
<rscale>  0 0.75741179E+03</rscale>
<asrwt>0</asrwt>
<pdfrwt beam="1">  1        2 0.12859351E+00 0.75741179E+03</pdfrwt>
<pdfrwt beam="2">  1       -2 0.22760878E-01 0.75741179E+03</pdfrwt>
<totfact> 0.55341473E+02</totfact>
</mgrwt>
</event>
<event>
 4    1  0.5455400E-005  0.5107343E+03  0.7818608E-02  0.1011014E+00
         -2   -1    0    0    0  501 -0.00000000000E+00  0.00000000000E+00  0.15377140436E+03  0.15377140438E+03  0.25500000000E-02 0. -1.
          2   -1    0    0  501    0  0.00000000000E+00 -0.00000000000E+00 -0.42408658198E+03  0.42408658199E+03  0.25500000000E-02 0.  1.
    5000001    1    1    2    0    0 -0.48665758078E+02 -0.14225227275E+03 -0.22090984168E+03  0.32904288970E+03  0.19200000000E+03 0.  0.
   -5000001    1    1    2    0    0  0.48665758078E+02  0.14225227275E+03 -0.49405335946E+02  0.24881509667E+03  0.19200000000E+03 0.  0.
<mgrwt>
<rscale>  0 0.51073433E+03</rscale>
<asrwt>0</asrwt>
<pdfrwt beam="1">  1        2 0.60583797E-01 0.51073433E+03</pdfrwt>
<pdfrwt beam="2">  1       -2 0.21967344E-01 0.51073433E+03</pdfrwt>
<totfact> 0.14604169E+03</totfact>
</mgrwt>
</event>
<event>
 4    1  0.5455400E-005  0.8029393E+03  0.7818608E-02  0.9555772E-01
         -2   -1    0    0    0  501 -0.00000000000E+00  0.00000000000E+00  0.83481490826E+02  0.83481490865E+02  0.25500000000E-02 0. -1.
          2   -1    0    0  501    0  0.00000000000E+00 -0.00000000000E+00 -0.19307020434E+04  0.19307020434E+04  0.25500000000E-02 0.  1.
    5000001    1    1    2    0    0 -0.18153795810E+03 -0.27232178573E+03 -0.12525862089E+04  0.13087976910E+04  0.19200000000E+03 0.  0.
   -5000001    1    1    2    0    0  0.18153795810E+03  0.27232178573E+03 -0.59463434366E+03  0.70538584326E+03  0.19200000000E+03 0.  0.
<mgrwt>
<rscale>  0 0.80293931E+03</rscale>
<asrwt>0</asrwt>
<pdfrwt beam="1">  1        2 0.27581455E+00 0.80293931E+03</pdfrwt>
<pdfrwt beam="2">  1       -2 0.11925928E-01 0.80293931E+03</pdfrwt>
<totfact> 0.45457090E+02</totfact>
</mgrwt>
</event>
<event>
 4    1  0.5455400E-005  0.7075087E+03  0.7818608E-02  0.9704477E-01
          2   -1    0    0  501    0  0.00000000000E+00  0.00000000000E+00  0.70257616747E+03  0.70257616748E+03  0.25500000000E-02 0.  1.
         -2   -1    0    0    0  501 -0.00000000000E+00 -0.00000000000E+00 -0.17811897690E+03  0.17811897692E+03  0.25500000000E-02 0. -1.
    5000001    1    1    2    0    0 -0.29272770504E+03  0.83957158249E+01  0.32469329720E+03  0.47754553143E+03  0.19200000000E+03 0.  0.
   -5000001    1    1    2    0    0  0.29272770504E+03 -0.83957158249E+01  0.19976389337E+03  0.40314961297E+03  0.19200000000E+03 0.  0.
<mgrwt>
<rscale>  0 0.70750872E+03</rscale>
<asrwt>0</asrwt>
<pdfrwt beam="1">  1        2 0.10036802E+00 0.70750872E+03</pdfrwt>
<pdfrwt beam="2">  1       -2 0.25445568E-01 0.70750872E+03</pdfrwt>
<totfact> 0.62416811E+02</totfact>
</mgrwt>
</event>
<event>
 4    1  0.5455400E-005  0.6559777E+03  0.7818608E-02  0.9795627E-01
         -2   -1    0    0    0  501 -0.00000000000E+00  0.00000000000E+00  0.13844148623E+03  0.13844148626E+03  0.25500000000E-02 0. -1.
          2   -1    0    0  501    0  0.00000000000E+00 -0.00000000000E+00 -0.77705517682E+03  0.77705517682E+03  0.25500000000E-02 0.  1.
    5000001    1    1    2    0    0  0.23452158556E+03 -0.12410591849E+03 -0.34388011269E+03  0.47488965561E+03  0.19200000000E+03 0.  0.
   -5000001    1    1    2    0    0 -0.23452158556E+03  0.12410591849E+03 -0.29473357789E+03  0.44060700747E+03  0.19200000000E+03 0.  0.
<mgrwt>
<rscale>  0 0.65597766E+03</rscale>
<asrwt>0</asrwt>
<pdfrwt beam="1">  1        2 0.11100788E+00 0.65597766E+03</pdfrwt>
<pdfrwt beam="2">  1       -2 0.19777356E-01 0.65597766E+03</pdfrwt>
<totfact> 0.86145723E+02</totfact>
</mgrwt>
</event>
<event>
 4    1  0.5455400E-005  0.7558586E+03  0.7818608E-02  0.9626204E-01
         -2   -1    0    0    0  501 -0.00000000000E+00  0.00000000000E+00  0.20359482988E+03  0.20359482989E+03  0.25500000000E-02 0. -1.
          2   -1    0    0  501    0  0.00000000000E+00 -0.00000000000E+00 -0.70154309183E+03  0.70154309183E+03  0.25500000000E-02 0.  1.
    5000001    1    1    2    0    0 -0.16284990333E+01  0.26590006413E+03 -0.24109143904E+02  0.32886280868E+03  0.19200000000E+03 0.  0.
   -5000001    1    1    2    0    0  0.16284990333E+01 -0.26590006413E+03 -0.47383911805E+03  0.57627511304E+03  0.19200000000E+03 0.  0.
<mgrwt>
<rscale>  0 0.75585858E+03</rscale>
<asrwt>0</asrwt>
<pdfrwt beam="1">  1        2 0.10022044E+00 0.75585858E+03</pdfrwt>
<pdfrwt beam="2">  1       -2 0.29084976E-01 0.75585858E+03</pdfrwt>
<totfact> 0.48920351E+02</totfact>
</mgrwt>
</event>
<event>
 4    1  0.5455400E-005  0.5008209E+03  0.7818608E-02  0.1013565E+00
         -2   -1    0    0    0  501 -0.00000000000E+00  0.00000000000E+00  0.29620458143E+02  0.29620458252E+02  0.25500000000E-02 0. -1.
          2   -1    0    0  501    0  0.00000000000E+00 -0.00000000000E+00 -0.21169620645E+04  0.21169620645E+04  0.25500000000E-02 0.  1.
    5000001    1    1    2    0    0 -0.23759243500E+02 -0.13417007790E+03 -0.67808453657E+03  0.71779436484E+03  0.19200000000E+03 0.  0.
   -5000001    1    1    2    0    0  0.23759243500E+02  0.13417007790E+03 -0.14092570697E+04  0.14287881579E+04  0.19200000000E+03 0.  0.
<mgrwt>
<rscale>  0 0.50082087E+03</rscale>
<asrwt>0</asrwt>
<pdfrwt beam="1">  1        2 0.30242306E+00 0.50082087E+03</pdfrwt>
<pdfrwt beam="2">  1       -2 0.42314953E-02 0.50082087E+03</pdfrwt>
<totfact> 0.19299966E+03</totfact>
</mgrwt>
</event>
<event>
 4    1  0.5455400E-005  0.4700122E+03  0.7818608E-02  0.1021917E+00
          2   -1    0    0  501    0  0.00000000000E+00  0.00000000000E+00  0.10378562331E+03  0.10378562334E+03  0.25500000000E-02 0.  1.
         -2   -1    0    0    0  501 -0.00000000000E+00 -0.00000000000E+00 -0.53213410814E+03  0.53213410815E+03  0.25500000000E-02 0. -1.
    5000001    1    1    2    0    0  0.19636996985E+02  0.12907246990E+03 -0.26330375354E+03  0.35105296005E+03  0.19200000000E+03 0.  0.
   -5000001    1    1    2    0    0 -0.19636996985E+02 -0.12907246990E+03 -0.16504473130E+03  0.28486677143E+03  0.19200000000E+03 0.  0.
<mgrwt>
<rscale>  0 0.47001221E+03</rscale>
<asrwt>0</asrwt>
<pdfrwt beam="1">  1        2 0.14826518E-01 0.47001221E+03</pdfrwt>
<pdfrwt beam="2">  1       -2 0.76019156E-01 0.47001221E+03</pdfrwt>
<totfact> 0.63441848E+02</totfact>
</mgrwt>
</event>
<event>
 4    1  0.5455400E-005  0.4414306E+03  0.7818608E-02  0.1030309E+00
          2   -1    0    0  501    0  0.00000000000E+00  0.00000000000E+00  0.93883604917E+03  0.93883604917E+03  0.25500000000E-02 0. -1.
         -2   -1    0    0    0  501 -0.00000000000E+00 -0.00000000000E+00 -0.51888984892E+02  0.51888984955E+02  0.25500000000E-02 0.  1.
    5000001    1    1    2    0    0 -0.34646449820E+02 -0.10320305079E+03  0.44360491622E+03  0.49548013872E+03  0.19200000000E+03 0.  0.
   -5000001    1    1    2    0    0  0.34646449820E+02  0.10320305079E+03  0.44334214806E+03  0.49524489540E+03  0.19200000000E+03 0.  0.
<mgrwt>
<rscale>  0 0.44143063E+03</rscale>
<asrwt>0</asrwt>
<pdfrwt beam="1">  1        2 0.13411943E+00 0.44143063E+03</pdfrwt>
<pdfrwt beam="2">  1       -2 0.74127124E-02 0.44143063E+03</pdfrwt>
<totfact> 0.33979746E+03</totfact>
</mgrwt>
</event>
<event>
 4    1  0.5455400E-005  0.1042236E+04  0.7818608E-02  0.9263396E-01
         -2   -1    0    0    0  501 -0.00000000000E+00  0.00000000000E+00  0.77491085986E+03  0.77491085986E+03  0.25500000000E-02 0. -1.
          2   -1    0    0  501    0  0.00000000000E+00 -0.00000000000E+00 -0.35044566937E+03  0.35044566938E+03  0.25500000000E-02 0.  1.
    5000001    1    1    2    0    0 -0.44231994167E+03 -0.22592856639E+02  0.25230885825E+00  0.48272293464E+03  0.19200000000E+03 0.  0.
   -5000001    1    1    2    0    0  0.44231994167E+03  0.22592856639E+02  0.42421288163E+03  0.64263359460E+03  0.19200000000E+03 0.  0.
<mgrwt>
<rscale>  0 0.10422364E+04</rscale>
<asrwt>0</asrwt>
<pdfrwt beam="1">  1        2 0.50063667E-01 0.10422364E+04</pdfrwt>
<pdfrwt beam="2">  1       -2 0.11070155E+00 0.10422364E+04</pdfrwt>
<totfact> 0.64661425E+01</totfact>
</mgrwt>
</event>
<event>
 4    1  0.5455400E-005  0.7845407E+03  0.7818608E-02  0.9582667E-01
         -2   -1    0    0    0  501 -0.00000000000E+00  0.00000000000E+00  0.98242362889E+02  0.98242362922E+02  0.25500000000E-02 0. -1.
          2   -1    0    0  501    0  0.00000000000E+00 -0.00000000000E+00 -0.15662901028E+04  0.15662901028E+04  0.25500000000E-02 0.  1.
    5000001    1    1    2    0    0 -0.20162513642E+03  0.27020847413E+03 -0.61128367080E+03  0.72401453115E+03  0.19200000000E+03 0.  0.
   -5000001    1    1    2    0    0  0.20162513642E+03 -0.27020847413E+03 -0.85676406906E+03  0.94051793452E+03  0.19200000000E+03 0.  0.
<mgrwt>
<rscale>  0 0.78454073E+03</rscale>
<asrwt>0</asrwt>
<pdfrwt beam="1">  1        2 0.22375571E+00 0.78454073E+03</pdfrwt>
<pdfrwt beam="2">  1       -2 0.14034624E-01 0.78454073E+03</pdfrwt>
<totfact> 0.53321970E+02</totfact>
</mgrwt>
</event>
<event>
 4    1  0.5455400E-005  0.4698080E+03  0.7818608E-02  0.1021974E+00
          2   -1    0    0  501    0  0.00000000000E+00  0.00000000000E+00  0.13922556044E+04  0.13922556044E+04  0.25500000000E-02 0.  1.
         -2   -1    0    0    0  501 -0.00000000000E+00 -0.00000000000E+00 -0.39633455161E+02  0.39633455243E+02  0.25500000000E-02 0. -1.
    5000001    1    1    2    0    0 -0.71684315737E+02 -0.11184587558E+03  0.59755232084E+03  0.64154572491E+03  0.19200000000E+03 0.  0.
   -5000001    1    1    2    0    0  0.71684315737E+02  0.11184587558E+03  0.75506982843E+03  0.79034333477E+03  0.19200000000E+03 0.  0.
<mgrwt>
<rscale>  0 0.46980805E+03</rscale>
<asrwt>0</asrwt>
<pdfrwt beam="1">  1        2 0.19889364E+00 0.46980805E+03</pdfrwt>
<pdfrwt beam="2">  1       -2 0.56619228E-02 0.46980805E+03</pdfrwt>
<totfact> 0.28683071E+03</totfact>
</mgrwt>
</event>
<event>
 4    1  0.5455400E-005  0.5556715E+03  0.7818608E-02  0.1000190E+00
          2   -1    0    0  501    0  0.00000000000E+00  0.00000000000E+00  0.74891909667E+03  0.74891909668E+03  0.25500000000E-02 0.  1.
         -2   -1    0    0    0  501 -0.00000000000E+00 -0.00000000000E+00 -0.10307215482E+03  0.10307215485E+03  0.25500000000E-02 0. -1.
    5000001    1    1    2    0    0  0.14437236247E+03 -0.69193137524E+01  0.10915844856E+03  0.26395231167E+03  0.19200000000E+03 0.  0.
   -5000001    1    1    2    0    0 -0.14437236247E+03  0.69193137524E+01  0.53668849330E+03  0.58803893985E+03  0.19200000000E+03 0.  0.
<mgrwt>
<rscale>  0 0.55567150E+03</rscale>
<asrwt>0</asrwt>
<pdfrwt beam="1">  1        2 0.10698844E+00 0.55567150E+03</pdfrwt>
<pdfrwt beam="2">  1       -2 0.14724594E-01 0.55567150E+03</pdfrwt>
<totfact> 0.14961047E+03</totfact>
</mgrwt>
</event>
<event>
 4    1  0.5455400E-005  0.6821191E+03  0.7818608E-02  0.9748309E-01
         -2   -1    0    0    0  501 -0.00000000000E+00  0.00000000000E+00  0.22702571349E+03  0.22702571350E+03  0.25500000000E-02 0. -1.
          2   -1    0    0  501    0  0.00000000000E+00 -0.00000000000E+00 -0.51237194383E+03  0.51237194384E+03  0.25500000000E-02 0.  1.
    5000001    1    1    2    0    0 -0.15003445097E+03  0.71009626556E+01  0.11588726383E+03  0.26991594630E+03  0.19200000000E+03 0.  0.
   -5000001    1    1    2    0    0  0.15003445097E+03 -0.71009626556E+01 -0.40123349418E+03  0.46948171104E+03  0.19200000000E+03 0.  0.
<mgrwt>
<rscale>  0 0.68211907E+03</rscale>
<asrwt>0</asrwt>
<pdfrwt beam="1">  1        2 0.73195992E-01 0.68211907E+03</pdfrwt>
<pdfrwt beam="2">  1       -2 0.32432245E-01 0.68211907E+03</pdfrwt>
<totfact> 0.58094782E+02</totfact>
</mgrwt>
</event>
<event>
 4    1  0.5455400E-005  0.1660541E+04  0.7818608E-02  0.8784195E-01
         -2   -1    0    0    0  501 -0.00000000000E+00  0.00000000000E+00  0.55619386365E+03  0.55619386366E+03  0.25500000000E-02 0. -1.
          2   -1    0    0  501    0  0.00000000000E+00 -0.00000000000E+00 -0.12394043535E+04  0.12394043535E+04  0.25500000000E-02 0.  1.
    5000001    1    1    2    0    0  0.19759845735E+03 -0.47229160356E+03  0.33401658097E+03  0.64073050926E+03  0.19200000000E+03 0.  0.
   -5000001    1    1    2    0    0 -0.19759845735E+03  0.47229160356E+03 -0.10172270708E+04  0.11548677079E+04  0.19200000000E+03 0.  0.
<mgrwt>
<rscale>  0 0.16605410E+04</rscale>
<asrwt>0</asrwt>
<pdfrwt beam="1">  1        2 0.17705776E+00 0.16605410E+04</pdfrwt>
<pdfrwt beam="2">  1       -2 0.79456267E-01 0.16605410E+04</pdfrwt>
<totfact> 0.27265165E+01</totfact>
</mgrwt>
</event>
<event>
 4    1  0.5455400E-005  0.5156341E+03  0.7818608E-02  0.1009777E+00
          2   -1    0    0  501    0  0.00000000000E+00  0.00000000000E+00  0.44027296277E+03  0.44027296277E+03  0.25500000000E-02 0.  1.
         -2   -1    0    0    0  501 -0.00000000000E+00 -0.00000000000E+00 -0.15097366205E+03  0.15097366207E+03  0.25500000000E-02 0. -1.
    5000001    1    1    2    0    0  0.78834600378E+02 -0.96514456707E+02  0.28068816312E+03  0.36218749217E+03  0.19200000000E+03 0.  0.
   -5000001    1    1    2    0    0 -0.78834600378E+02  0.96514456707E+02  0.86111376005E+01  0.22905913267E+03  0.19200000000E+03 0.  0.
<mgrwt>
<rscale>  0 0.51563406E+03</rscale>
<asrwt>0</asrwt>
<pdfrwt beam="1">  1        2 0.62896137E-01 0.51563406E+03</pdfrwt>
<pdfrwt beam="2">  1       -2 0.21567666E-01 0.51563406E+03</pdfrwt>
<totfact> 0.14467187E+03</totfact>
</mgrwt>
</event>
<event>
 4    1  0.5455400E-005  0.5571464E+03  0.7818608E-02  0.9998532E-01
          2   -1    0    0  501    0  0.00000000000E+00  0.00000000000E+00  0.19616826613E+03  0.19616826615E+03  0.25500000000E-02 0.  1.
         -2   -1    0    0    0  501 -0.00000000000E+00 -0.00000000000E+00 -0.39559414770E+03  0.39559414771E+03  0.25500000000E-02 0. -1.
    5000001    1    1    2    0    0 -0.17292530086E+02  0.12951093690E+03 -0.26311171618E+03  0.35094713215E+03  0.19200000000E+03 0.  0.
   -5000001    1    1    2    0    0  0.17292530086E+02 -0.12951093690E+03  0.63685834608E+02  0.24081528170E+03  0.19200000000E+03 0.  0.
<mgrwt>
<rscale>  0 0.55714637E+03</rscale>
<asrwt>0</asrwt>
<pdfrwt beam="1">  1        2 0.28024038E-01 0.55714637E+03</pdfrwt>
<pdfrwt beam="2">  1       -2 0.56513449E-01 0.55714637E+03</pdfrwt>
<totfact> 0.56908555E+02</totfact>
</mgrwt>
</event>
<event>
 4    1  0.5455400E-005  0.9929067E+03  0.7818608E-02  0.9316359E-01
          2   -1    0    0  501    0  0.00000000000E+00  0.00000000000E+00  0.34378894504E+03  0.34378894505E+03  0.25500000000E-02 0.  1.
         -2   -1    0    0    0  501 -0.00000000000E+00 -0.00000000000E+00 -0.71691053811E+03  0.71691053811E+03  0.25500000000E-02 0. -1.
    5000001    1    1    2    0    0  0.12599324701E+03 -0.40105700140E+03  0.71508711776E+01  0.46220790952E+03  0.19200000000E+03 0.  0.
   -5000001    1    1    2    0    0 -0.12599324701E+03  0.40105700140E+03 -0.38027246425E+03  0.59849157365E+03  0.19200000000E+03 0.  0.
<mgrwt>
<rscale>  0 0.99290668E+03</rscale>
<asrwt>0</asrwt>
<pdfrwt beam="1">  1        2 0.49112707E-01 0.99290668E+03</pdfrwt>
<pdfrwt beam="2">  1       -2 0.10241579E+00 0.99290668E+03</pdfrwt>
<totfact> 0.79892594E+01</totfact>
</mgrwt>
</event>
<event>
 4    1  0.5455400E-005  0.5905956E+03  0.7818608E-02  0.9925112E-01
         -2   -1    0    0    0  501 -0.00000000000E+00  0.00000000000E+00  0.13205861574E+03  0.13205861576E+03  0.25500000000E-02 0. -1.
          2   -1    0    0  501    0  0.00000000000E+00 -0.00000000000E+00 -0.66031880245E+03  0.66031880245E+03  0.25500000000E-02 0.  1.
    5000001    1    1    2    0    0  0.17508914261E+03  0.50067335591E+02 -0.88307123386E+02  0.27897149316E+03  0.19200000000E+03 0.  0.
   -5000001    1    1    2    0    0 -0.17508914261E+03 -0.50067335591E+02 -0.43995306332E+03  0.51340592505E+03  0.19200000000E+03 0.  0.
<mgrwt>
<rscale>  0 0.59059559E+03</rscale>
<asrwt>0</asrwt>
<pdfrwt beam="1">  1        2 0.94331255E-01 0.59059559E+03</pdfrwt>
<pdfrwt beam="2">  1       -2 0.18865517E-01 0.59059559E+03</pdfrwt>
<totfact> 0.11444654E+03</totfact>
</mgrwt>
</event>
<event>
 4    1  0.5455400E-005  0.6279113E+03  0.7818608E-02  0.9849133E-01
          2   -1    0    0  501    0  0.00000000000E+00  0.00000000000E+00  0.90560610486E+03  0.90560610487E+03  0.25500000000E-02 0.  1.
         -2   -1    0    0    0  501 -0.00000000000E+00 -0.00000000000E+00 -0.10884217758E+03  0.10884217761E+03  0.25500000000E-02 0. -1.
    5000001    1    1    2    0    0  0.18763337693E+03 -0.15708806211E+03  0.46732812775E+03  0.56137556269E+03  0.19200000000E+03 0.  0.
   -5000001    1    1    2    0    0 -0.18763337693E+03  0.15708806211E+03  0.32943579954E+03  0.45307271979E+03  0.19200000000E+03 0.  0.
<mgrwt>
<rscale>  0 0.62791127E+03</rscale>
<asrwt>0</asrwt>
<pdfrwt beam="1">  1        2 0.12937231E+00 0.62791127E+03</pdfrwt>
<pdfrwt beam="2">  1       -2 0.15548882E-01 0.62791127E+03</pdfrwt>
<totfact> 0.10667112E+03</totfact>
</mgrwt>
</event>
<event>
 4    1  0.5455400E-005  0.5685489E+03  0.7818608E-02  0.9972895E-01
          2   -1    0    0  501    0  0.00000000000E+00  0.00000000000E+00  0.78242036789E+03  0.78242036789E+03  0.25500000000E-02 0.  1.
         -2   -1    0    0    0  501 -0.00000000000E+00 -0.00000000000E+00 -0.10328459262E+03  0.10328459265E+03  0.25500000000E-02 0. -1.
    5000001    1    1    2    0    0  0.19261070934E+03  0.79668539484E+02  0.37447197706E+03  0.46961603799E+03  0.19200000000E+03 0.  0.
   -5000001    1    1    2    0    0 -0.19261070934E+03 -0.79668539484E+02  0.30466379821E+03  0.41608892255E+03  0.19200000000E+03 0.  0.
<mgrwt>
<rscale>  0 0.56854892E+03</rscale>
<asrwt>0</asrwt>
<pdfrwt beam="1">  1        2 0.11177434E+00 0.56854892E+03</pdfrwt>
<pdfrwt beam="2">  1       -2 0.14754942E-01 0.56854892E+03</pdfrwt>
<totfact> 0.14110815E+03</totfact>
</mgrwt>
</event>
<event>
 4    1  0.5455400E-005  0.9144142E+03  0.7818608E-02  0.9407740E-01
          2   -1    0    0  501    0  0.00000000000E+00  0.00000000000E+00  0.36722572739E+03  0.36722572740E+03  0.25500000000E-02 0. -1.
         -2   -1    0    0    0  501 -0.00000000000E+00 -0.00000000000E+00 -0.56923656029E+03  0.56923656029E+03  0.25500000000E-02 0.  1.
    5000001    1    1    2    0    0 -0.22509027275E+03 -0.33423181529E+03 -0.20237578690E+03  0.49009845578E+03  0.19200000000E+03 0.  0.
   -5000001    1    1    2    0    0  0.22509027275E+03  0.33423181529E+03  0.36495399633E+00  0.44636383190E+03  0.19200000000E+03 0.  0.
<mgrwt>
<rscale>  0 0.91441415E+03</rscale>
<asrwt>0</asrwt>
<pdfrwt beam="1">  1        2 0.52460818E-01 0.91441415E+03</pdfrwt>
<pdfrwt beam="2">  1       -2 0.81319509E-01 0.91441415E+03</pdfrwt>
<totfact> 0.12721338E+02</totfact>
</mgrwt>
</event>
<event>
 4    1  0.5455400E-005  0.5054848E+03  0.7818608E-02  0.1012357E+00
          2   -1    0    0  501    0  0.00000000000E+00  0.00000000000E+00  0.31771742230E+03  0.31771742231E+03  0.25500000000E-02 0.  1.
         -2   -1    0    0    0  501 -0.00000000000E+00 -0.00000000000E+00 -0.20105511841E+03  0.20105511843E+03  0.25500000000E-02 0. -1.
    5000001    1    1    2    0    0  0.10579888148E+03  0.12558118270E+03  0.51025227053E+02  0.25774330363E+03  0.19200000000E+03 0.  0.
   -5000001    1    1    2    0    0 -0.10579888148E+03 -0.12558118270E+03  0.65637076832E+02  0.26102923711E+03  0.19200000000E+03 0.  0.
<mgrwt>
<rscale>  0 0.50548477E+03</rscale>
<asrwt>0</asrwt>
<pdfrwt beam="1">  1        2 0.45388203E-01 0.50548477E+03</pdfrwt>
<pdfrwt beam="2">  1       -2 0.28722160E-01 0.50548477E+03</pdfrwt>
<totfact> 0.12421034E+03</totfact>
</mgrwt>
</event>
<event>
 4    1  0.5455400E-005  0.4727640E+03  0.7818608E-02  0.1021143E+00
          2   -1    0    0  501    0  0.00000000000E+00  0.00000000000E+00  0.48067422283E+03  0.48067422284E+03  0.25500000000E-02 0.  1.
         -2   -1    0    0    0  501 -0.00000000000E+00 -0.00000000000E+00 -0.11624599549E+03  0.11624599552E+03  0.25500000000E-02 0. -1.
    5000001    1    1    2    0    0  0.97144887167E+02  0.57484234258E+02  0.28219946409E+03  0.35950257833E+03  0.19200000000E+03 0.  0.
   -5000001    1    1    2    0    0 -0.97144887167E+02 -0.57484234258E+02  0.82228763259E+02  0.23741764003E+03  0.19200000000E+03 0.  0.
<mgrwt>
<rscale>  0 0.47276402E+03</rscale>
<asrwt>0</asrwt>
<pdfrwt beam="1">  1        2 0.68667745E-01 0.47276402E+03</pdfrwt>
<pdfrwt beam="2">  1       -2 0.16606571E-01 0.47276402E+03</pdfrwt>
<totfact> 0.20563311E+03</totfact>
</mgrwt>
</event>
<event>
 4    1  0.5455400E-005  0.5942503E+03  0.7818608E-02  0.9917407E-01
         -2   -1    0    0    0  501 -0.00000000000E+00  0.00000000000E+00  0.59853637112E+02  0.59853637166E+02  0.25500000000E-02 0. -1.
          2   -1    0    0  501    0  0.00000000000E+00 -0.00000000000E+00 -0.14749871264E+04  0.14749871264E+04  0.25500000000E-02 0.  1.
    5000001    1    1    2    0    0 -0.22585071689E+03 -0.48427997932E+01 -0.75839942856E+03  0.81428845765E+03  0.19200000000E+03 0.  0.
   -5000001    1    1    2    0    0  0.22585071689E+03  0.48427997932E+01 -0.65673406069E+03  0.72055230588E+03  0.19200000000E+03 0.  0.
<mgrwt>
<rscale>  0 0.59425026E+03</rscale>
<asrwt>0</asrwt>
<pdfrwt beam="1">  1        2 0.21071243E+00 0.59425026E+03</pdfrwt>
<pdfrwt beam="2">  1       -2 0.85505205E-02 0.59425026E+03</pdfrwt>
<totfact> 0.13516693E+03</totfact>
</mgrwt>
</event>
<event>
 4    1  0.5455400E-005  0.1306649E+04  0.7818608E-02  0.9024309E-01
          2   -1    0    0  501    0  0.00000000000E+00  0.00000000000E+00  0.80781820898E+03  0.80781820898E+03  0.25500000000E-02 0.  1.
         -2   -1    0    0    0  501 -0.00000000000E+00 -0.00000000000E+00 -0.52837775421E+03  0.52837775422E+03  0.25500000000E-02 0. -1.
    5000001    1    1    2    0    0 -0.47938331593E+03 -0.39929157934E+03  0.11214679229E+03  0.66233151212E+03  0.19200000000E+03 0.  0.
   -5000001    1    1    2    0    0  0.47938331593E+03  0.39929157934E+03  0.16729366247E+03  0.67386445108E+03  0.19200000000E+03 0.  0.
<mgrwt>
<rscale>  0 0.13066494E+04</rscale>
<asrwt>0</asrwt>
<pdfrwt beam="1">  1        2 0.11540260E+00 0.13066494E+04</pdfrwt>
<pdfrwt beam="2">  1       -2 0.75482537E-01 0.13066494E+04</pdfrwt>
<totfact> 0.57977365E+01</totfact>
</mgrwt>
</event>
<event>
 4    1  0.5455400E-005  0.7385015E+03  0.7818608E-02  0.9653564E-01
         -2   -1    0    0    0  501 -0.00000000000E+00  0.00000000000E+00  0.90442372053E+02  0.90442372089E+02  0.25500000000E-02 0. -1.
          2   -1    0    0  501    0  0.00000000000E+00 -0.00000000000E+00 -0.15075469362E+04  0.15075469362E+04  0.25500000000E-02 0.  1.
    5000001    1    1    2    0    0  0.22026977791E+03 -0.18427397383E+03 -0.99073427313E+03  0.10492349939E+04  0.19200000000E+03 0.  0.
   -5000001    1    1    2    0    0 -0.22026977791E+03  0.18427397383E+03 -0.42637029104E+03  0.54875431441E+03  0.19200000000E+03 0.  0.
<mgrwt>
<rscale>  0 0.73850151E+03</rscale>
<asrwt>0</asrwt>
<pdfrwt beam="1">  1        2 0.21536383E+00 0.73850151E+03</pdfrwt>
<pdfrwt beam="2">  1       -2 0.12920340E-01 0.73850151E+03</pdfrwt>
<totfact> 0.65871664E+02</totfact>
</mgrwt>
</event>
<event>
 4    1  0.5455400E-005  0.4698981E+03  0.7818608E-02  0.1021949E+00
         -2   -1    0    0    0  501 -0.00000000000E+00  0.00000000000E+00  0.64223015620E+02  0.64223015671E+02  0.25500000000E-02 0. -1.
          2   -1    0    0  501    0  0.00000000000E+00 -0.00000000000E+00 -0.85952122678E+03  0.85952122679E+03  0.25500000000E-02 0.  1.
    5000001    1    1    2    0    0 -0.10518695684E+03 -0.55935033930E+02 -0.52419821330E+03  0.57082465848E+03  0.19200000000E+03 0.  0.
   -5000001    1    1    2    0    0  0.10518695684E+03  0.55935033930E+02 -0.27109999787E+03  0.35291958397E+03  0.19200000000E+03 0.  0.
<mgrwt>
<rscale>  0 0.46989805E+03</rscale>
<asrwt>0</asrwt>
<pdfrwt beam="1">  1        2 0.12278874E+00 0.46989805E+03</pdfrwt>
<pdfrwt beam="2">  1       -2 0.91747170E-02 0.46989805E+03</pdfrwt>
<totfact> 0.27235057E+03</totfact>
</mgrwt>
</event>
<event>
 4    1  0.5455400E-005  0.4719895E+03  0.7818608E-02  0.1021360E+00
         -2   -1    0    0    0  501 -0.00000000000E+00  0.00000000000E+00  0.12995545407E+02  0.12995545657E+02  0.25500000000E-02 0. -1.
          2   -1    0    0  501    0  0.00000000000E+00 -0.00000000000E+00 -0.42855864141E+04  0.42855864141E+04  0.25500000000E-02 0.  1.
    5000001    1    1    2    0    0 -0.13178832284E+03 -0.27448016526E+02 -0.23786228933E+04  0.23901532220E+04  0.19200000000E+03 0.  0.
   -5000001    1    1    2    0    0  0.13178832284E+03  0.27448016526E+02 -0.18939679753E+04  0.19084287378E+04  0.19200000000E+03 0.  0.
<mgrwt>
<rscale>  0 0.47198955E+03</rscale>
<asrwt>0</asrwt>
<pdfrwt beam="1">  1        2 0.61222573E+00 0.47198955E+03</pdfrwt>
<pdfrwt beam="2">  1       -2 0.18565092E-02 0.47198955E+03</pdfrwt>
<totfact> 0.38178754E+02</totfact>
</mgrwt>
</event>
<event>
 4    1  0.5455400E-005  0.6502456E+03  0.7818608E-02  0.9806318E-01
         -2   -1    0    0    0  501 -0.00000000000E+00  0.00000000000E+00  0.39571738914E+03  0.39571738915E+03  0.25500000000E-02 0. -1.
          2   -1    0    0  501    0  0.00000000000E+00 -0.00000000000E+00 -0.26712205715E+03  0.26712205716E+03  0.25500000000E-02 0.  1.
    5000001    1    1    2    0    0  0.67993595721E+02 -0.24481759900E+03 -0.24071422059E+01  0.31847853958E+03  0.19200000000E+03 0.  0.
   -5000001    1    1    2    0    0 -0.67993595721E+02  0.24481759900E+03  0.13100247420E+03  0.34436090673E+03  0.19200000000E+03 0.  0.
<mgrwt>
<rscale>  0 0.65024562E+03</rscale>
<asrwt>0</asrwt>
<pdfrwt beam="1">  1        2 0.38160294E-01 0.65024562E+03</pdfrwt>
<pdfrwt beam="2">  1       -2 0.56531055E-01 0.65024562E+03</pdfrwt>
<totfact> 0.40205939E+02</totfact>
</mgrwt>
</event>
<event>
 4    1  0.5455400E-005  0.8198555E+03  0.7818608E-02  0.9531714E-01
         -2   -1    0    0    0  501 -0.00000000000E+00  0.00000000000E+00  0.13997659590E+03  0.13997659593E+03  0.25500000000E-02 0. -1.
          2   -1    0    0  501    0  0.00000000000E+00 -0.00000000000E+00 -0.12004919381E+04  0.12004919382E+04  0.25500000000E-02 0.  1.
    5000001    1    1    2    0    0 -0.32547199832E+03 -0.14659509869E+03 -0.63044271193E+03  0.74949593573E+03  0.19200000000E+03 0.  0.
   -5000001    1    1    2    0    0  0.32547199832E+03  0.14659509869E+03 -0.43007263032E+03  0.59097259835E+03  0.19200000000E+03 0.  0.
<mgrwt>
<rscale>  0 0.81985554E+03</rscale>
<asrwt>0</asrwt>
<pdfrwt beam="1">  1        2 0.17149884E+00 0.81985554E+03</pdfrwt>
<pdfrwt beam="2">  1       -2 0.19996657E-01 0.81985554E+03</pdfrwt>
<totfact> 0.45726049E+02</totfact>
</mgrwt>
</event>
<event>
 4    1  0.5455400E-005  0.9502154E+03  0.7818608E-02  0.9364899E-01
         -2   -1    0    0    0  501 -0.00000000000E+00  0.00000000000E+00  0.12274576161E+03  0.12274576164E+03  0.25500000000E-02 0. -1.
          2   -1    0    0  501    0  0.00000000000E+00 -0.00000000000E+00 -0.18389826214E+04  0.18389826214E+04  0.25500000000E-02 0.  1.
    5000001    1    1    2    0    0  0.39987911309E+03  0.16493708668E+03 -0.94462542480E+03  0.10565456643E+04  0.19200000000E+03 0.  0.
   -5000001    1    1    2    0    0 -0.39987911309E+03 -0.16493708668E+03 -0.77161143499E+03  0.90518271871E+03  0.19200000000E+03 0.  0.
<mgrwt>
<rscale>  0 0.95021539E+03</rscale>
<asrwt>0</asrwt>
<pdfrwt beam="1">  1        2 0.26271179E+00 0.95021539E+03</pdfrwt>
<pdfrwt beam="2">  1       -2 0.17535110E-01 0.95021539E+03</pdfrwt>
<totfact> 0.26153041E+02</totfact>
</mgrwt>
</event>
<event>
 4    1  0.5455400E-005  0.5503023E+03  0.7818608E-02  0.1001424E+00
         -2   -1    0    0    0  501 -0.00000000000E+00  0.00000000000E+00  0.21420004495E+03  0.21420004496E+03  0.25500000000E-02 0. -1.
          2   -1    0    0  501    0  0.00000000000E+00 -0.00000000000E+00 -0.35344607102E+03  0.35344607103E+03  0.25500000000E-02 0.  1.
    5000001    1    1    2    0    0  0.13244484671E+03  0.13122140928E+03 -0.37070003146E+01  0.26765357746E+03  0.19200000000E+03 0.  0.
   -5000001    1    1    2    0    0 -0.13244484671E+03 -0.13122140928E+03 -0.13553902575E+03  0.29999253853E+03  0.19200000000E+03 0.  0.
<mgrwt>
<rscale>  0 0.55030233E+03</rscale>
<asrwt>0</asrwt>
<pdfrwt beam="1">  1        2 0.50492296E-01 0.55030233E+03</pdfrwt>
<pdfrwt beam="2">  1       -2 0.30600006E-01 0.55030233E+03</pdfrwt>
<totfact> 0.98319986E+02</totfact>
</mgrwt>
</event>
<event>
 4    1  0.5455400E-005  0.1221637E+04  0.7818608E-02  0.9094126E-01
         -2   -1    0    0    0  501 -0.00000000000E+00  0.00000000000E+00  0.44196316784E+03  0.44196316785E+03  0.25500000000E-02 0. -1.
          2   -1    0    0  501    0  0.00000000000E+00 -0.00000000000E+00 -0.84418621911E+03  0.84418621911E+03  0.25500000000E-02 0.  1.
    5000001    1    1    2    0    0  0.56945318954E+03 -0.85918369260E+02 -0.27233237985E+03  0.66534789874E+03  0.19200000000E+03 0.  0.
   -5000001    1    1    2    0    0 -0.56945318954E+03  0.85918369260E+02 -0.12989067142E+03  0.62080148822E+03  0.19200000000E+03 0.  0.
<mgrwt>
<rscale>  0 0.12216370E+04</rscale>
<asrwt>0</asrwt>
<pdfrwt beam="1">  1        2 0.12059803E+00 0.12216370E+04</pdfrwt>
<pdfrwt beam="2">  1       -2 0.63137595E-01 0.12216370E+04</pdfrwt>
<totfact> 0.81198264E+01</totfact>
</mgrwt>
</event>
<event>
 4    1  0.5455400E-005  0.6555645E+03  0.7818608E-02  0.9796394E-01
          2   -1    0    0  501    0  0.00000000000E+00  0.00000000000E+00  0.35517319093E+03  0.35517319094E+03  0.25500000000E-02 0.  1.
         -2   -1    0    0    0  501 -0.00000000000E+00 -0.00000000000E+00 -0.30250365917E+03  0.30250365918E+03  0.25500000000E-02 0. -1.
    5000001    1    1    2    0    0  0.21229961419E+03  0.99667888494E+02 -0.98856661624E+02  0.31881256834E+03  0.19200000000E+03 0.  0.
   -5000001    1    1    2    0    0 -0.21229961419E+03 -0.99667888494E+02  0.15152619339E+03  0.33886428178E+03  0.19200000000E+03 0.  0.
<mgrwt>
<rscale>  0 0.65556446E+03</rscale>
<asrwt>0</asrwt>
<pdfrwt beam="1">  1        2 0.50739028E-01 0.65556446E+03</pdfrwt>
<pdfrwt beam="2">  1       -2 0.43214808E-01 0.65556446E+03</pdfrwt>
<totfact> 0.50522175E+02</totfact>
</mgrwt>
</event>
<event>
 4    1  0.5455400E-005  0.7245250E+03  0.7818608E-02  0.9676187E-01
          2   -1    0    0  501    0  0.00000000000E+00  0.00000000000E+00  0.15401522332E+04  0.15401522332E+04  0.25500000000E-02 0. -1.
         -2   -1    0    0    0  501 -0.00000000000E+00 -0.00000000000E+00 -0.85208534050E+02  0.85208534088E+02  0.25500000000E-02 0.  1.
    5000001    1    1    2    0    0 -0.29151884786E+03  0.24762252411E+01  0.94474949189E+03  0.10071767336E+04  0.19200000000E+03 0.  0.
   -5000001    1    1    2    0    0  0.29151884786E+03 -0.24762252411E+01  0.51019420727E+03  0.61818403366E+03  0.19200000000E+03 0.  0.
<mgrwt>
<rscale>  0 0.72452499E+03</rscale>
<asrwt>0</asrwt>
<pdfrwt beam="1">  1        2 0.22002174E+00 0.72452499E+03</pdfrwt>
<pdfrwt beam="2">  1       -2 0.12172648E-01 0.72452499E+03</pdfrwt>
<totfact> 0.69967723E+02</totfact>
</mgrwt>
</event>
<event>
 4    1  0.5455400E-005  0.6584238E+03  0.7818608E-02  0.9791100E-01
         -2   -1    0    0    0  501 -0.00000000000E+00  0.00000000000E+00  0.67552587616E+02  0.67552587664E+02  0.25500000000E-02 0. -1.
          2   -1    0    0  501    0  0.00000000000E+00 -0.00000000000E+00 -0.16043865750E+04  0.16043865750E+04  0.25500000000E-02 0.  1.
    5000001    1    1    2    0    0 -0.24550230727E+03  0.35212285462E+02 -0.10224132726E+04  0.10694410633E+04  0.19200000000E+03 0.  0.
   -5000001    1    1    2    0    0  0.24550230727E+03 -0.35212285462E+02 -0.51442071483E+03  0.60249809939E+03  0.19200000000E+03 0.  0.
<mgrwt>
<rscale>  0 0.65842377E+03</rscale>
<asrwt>0</asrwt>
<pdfrwt beam="1">  1        2 0.22919806E+00 0.65842377E+03</pdfrwt>
<pdfrwt beam="2">  1       -2 0.96503706E-02 0.65842377E+03</pdfrwt>
<totfact> 0.95054258E+02</totfact>
</mgrwt>
</event>
<event>
 4    1  0.5455400E-005  0.6630968E+03  0.7818608E-02  0.9782510E-01
         -2   -1    0    0    0  501 -0.00000000000E+00  0.00000000000E+00  0.16748810033E+03  0.16748810035E+03  0.25500000000E-02 0. -1.
          2   -1    0    0  501    0  0.00000000000E+00 -0.00000000000E+00 -0.65631129041E+03  0.65631129041E+03  0.25500000000E-02 0.  1.
    5000001    1    1    2    0    0 -0.15371272257E+03 -0.22081828564E+03 -0.21220580099E+03  0.39278953439E+03  0.19200000000E+03 0.  0.
   -5000001    1    1    2    0    0  0.15371272257E+03  0.22081828564E+03 -0.27661738908E+03  0.43100985637E+03  0.19200000000E+03 0.  0.
<mgrwt>
<rscale>  0 0.66309677E+03</rscale>
<asrwt>0</asrwt>
<pdfrwt beam="1">  1        2 0.93758754E-01 0.66309677E+03</pdfrwt>
<pdfrwt beam="2">  1       -2 0.23926872E-01 0.66309677E+03</pdfrwt>
<totfact> 0.75830504E+02</totfact>
</mgrwt>
</event>
<event>
 4    1  0.5455400E-005  0.7338534E+03  0.7818608E-02  0.9661028E-01
          2   -1    0    0  501    0  0.00000000000E+00  0.00000000000E+00  0.41111990745E+03  0.41111990745E+03  0.25500000000E-02 0.  1.
         -2   -1    0    0    0  501 -0.00000000000E+00 -0.00000000000E+00 -0.32748403758E+03  0.32748403758E+03  0.25500000000E-02 0. -1.
    5000001    1    1    2    0    0 -0.16154857681E+03 -0.25545771121E+03  0.12242773648E+03  0.37842982909E+03  0.19200000000E+03 0.  0.
   -5000001    1    1    2    0    0  0.16154857681E+03  0.25545771121E+03 -0.38791866605E+02  0.36017411595E+03  0.19200000000E+03 0.  0.
<mgrwt>
<rscale>  0 0.73385341E+03</rscale>
<asrwt>0</asrwt>
<pdfrwt beam="1">  1        2 0.58731415E-01 0.73385341E+03</pdfrwt>
<pdfrwt beam="2">  1       -2 0.46783434E-01 0.73385341E+03</pdfrwt>
<totfact> 0.36586184E+02</totfact>
</mgrwt>
</event>
<event>
 4    1  0.5455400E-005  0.1049199E+04  0.7818608E-02  0.9256172E-01
          2   -1    0    0  501    0  0.00000000000E+00  0.00000000000E+00  0.85267633585E+03  0.85267633586E+03  0.25500000000E-02 0.  1.
         -2   -1    0    0    0  501 -0.00000000000E+00 -0.00000000000E+00 -0.32275369055E+03  0.32275369056E+03  0.25500000000E-02 0. -1.
    5000001    1    1    2    0    0 -0.20797191496E+03  0.43841407978E+03  0.20482641612E+03  0.56060421288E+03  0.19200000000E+03 0.  0.
   -5000001    1    1    2    0    0  0.20797191496E+03 -0.43841407978E+03  0.32509622918E+03  0.61482581353E+03  0.19200000000E+03 0.  0.
<mgrwt>
<rscale>  0 0.10491986E+04</rscale>
<asrwt>0</asrwt>
<pdfrwt beam="1">  1        2 0.12181090E+00 0.10491986E+04</pdfrwt>
<pdfrwt beam="2">  1       -2 0.46107670E-01 0.10491986E+04</pdfrwt>
<totfact> 0.15517624E+02</totfact>
</mgrwt>
</event>
<event>
 4    1  0.5455400E-005  0.4692404E+03  0.7818608E-02  0.1022135E+00
         -2   -1    0    0    0  501 -0.00000000000E+00  0.00000000000E+00  0.19628767661E+03  0.19628767662E+03  0.25500000000E-02 0. -1.
          2   -1    0    0  501    0  0.00000000000E+00 -0.00000000000E+00 -0.28043853430E+03  0.28043853431E+03  0.25500000000E-02 0.  1.
    5000001    1    1    2    0    0  0.10820216029E+03 -0.58354677376E+02 -0.98363747762E+02  0.24829901880E+03  0.19200000000E+03 0.  0.
   -5000001    1    1    2    0    0 -0.10820216029E+03  0.58354677376E+02  0.14212890072E+02  0.22842719214E+03  0.19200000000E+03 0.  0.
<mgrwt>
<rscale>  0 0.46924036E+03</rscale>
<asrwt>0</asrwt>
<pdfrwt beam="1">  1        2 0.40062648E-01 0.46924036E+03</pdfrwt>
<pdfrwt beam="2">  1       -2 0.28041097E-01 0.46924036E+03</pdfrwt>
<totfact> 0.14875933E+03</totfact>
</mgrwt>
</event>
<event>
 4    1  0.5455400E-005  0.4842223E+03  0.7818608E-02  0.1017981E+00
          2   -1    0    0  501    0  0.00000000000E+00  0.00000000000E+00  0.31929573026E+03  0.31929573027E+03  0.25500000000E-02 0.  1.
         -2   -1    0    0    0  501 -0.00000000000E+00 -0.00000000000E+00 -0.18358467291E+03  0.18358467293E+03  0.25500000000E-02 0. -1.
    5000001    1    1    2    0    0 -0.89357432021E+01 -0.12883900016E+03  0.14183566985E+03  0.27140503443E+03  0.19200000000E+03 0.  0.
   -5000001    1    1    2    0    0  0.89357432021E+01  0.12883900016E+03 -0.61246125026E+01  0.23147536877E+03  0.19200000000E+03 0.  0.
<mgrwt>
<rscale>  0 0.48422227E+03</rscale>
<asrwt>0</asrwt>
<pdfrwt beam="1">  1        2 0.45613676E-01 0.48422227E+03</pdfrwt>
<pdfrwt beam="2">  1       -2 0.26226382E-01 0.48422227E+03</pdfrwt>
<totfact> 0.14566287E+03</totfact>
</mgrwt>
</event>
<event>
 4    1  0.5455400E-005  0.5237843E+03  0.7818608E-02  0.1007751E+00
         -2   -1    0    0    0  501 -0.00000000000E+00  0.00000000000E+00  0.10443021570E+03  0.10443021573E+03  0.25500000000E-02 0. -1.
          2   -1    0    0  501    0  0.00000000000E+00 -0.00000000000E+00 -0.65677834352E+03  0.65677834353E+03  0.25500000000E-02 0.  1.
    5000001    1    1    2    0    0  0.11521397832E+03  0.16561448275E+02 -0.80249936949E+02  0.23843782156E+03  0.19200000000E+03 0.  0.
   -5000001    1    1    2    0    0 -0.11521397832E+03 -0.16561448275E+02 -0.47209819087E+03  0.52277073770E+03  0.19200000000E+03 0.  0.
<mgrwt>
<rscale>  0 0.52378432E+03</rscale>
<asrwt>0</asrwt>
<pdfrwt beam="1">  1        2 0.93825475E-01 0.52378432E+03</pdfrwt>
<pdfrwt beam="2">  1       -2 0.14918603E-01 0.52378432E+03</pdfrwt>
<totfact> 0.17181481E+03</totfact>
</mgrwt>
</event>
<event>
 4    1  0.5455400E-005  0.8958706E+03  0.7818608E-02  0.9430758E-01
         -2   -1    0    0    0  501 -0.00000000000E+00  0.00000000000E+00  0.17927727739E+03  0.17927727741E+03  0.25500000000E-02 0. -1.
          2   -1    0    0  501    0  0.00000000000E+00 -0.00000000000E+00 -0.11191938565E+04  0.11191938565E+04  0.25500000000E-02 0.  1.
    5000001    1    1    2    0    0  0.39846143916E+03  0.41178752589E+02 -0.55340648538E+03  0.70964071629E+03  0.19200000000E+03 0.  0.
   -5000001    1    1    2    0    0 -0.39846143916E+03 -0.41178752589E+02 -0.38651009374E+03  0.58883041762E+03  0.19200000000E+03 0.  0.
<mgrwt>
<rscale>  0 0.89587059E+03</rscale>
<asrwt>0</asrwt>
<pdfrwt beam="1">  1        2 0.15988483E+00 0.89587059E+03</pdfrwt>
<pdfrwt beam="2">  1       -2 0.25611040E-01 0.89587059E+03</pdfrwt>
<totfact> 0.32653280E+02</totfact>
</mgrwt>
</event>
<event>
 4    1  0.5455400E-005  0.6048989E+03  0.7818608E-02  0.9895294E-01
         -2   -1    0    0    0  501 -0.00000000000E+00  0.00000000000E+00  0.90660221111E+02  0.90660221147E+02  0.25500000000E-02 0. -1.
          2   -1    0    0  501    0  0.00000000000E+00 -0.00000000000E+00 -0.10089945739E+04  0.10089945739E+04  0.25500000000E-02 0.  1.
    5000001    1    1    2    0    0 -0.74136297977E+02  0.21862671778E+03 -0.39317313615E+03  0.49471501635E+03  0.19200000000E+03 0.  0.
   -5000001    1    1    2    0    0  0.74136297977E+02 -0.21862671778E+03 -0.52516121667E+03  0.60493977874E+03  0.19200000000E+03 0.  0.
<mgrwt>
<rscale>  0 0.60489890E+03</rscale>
<asrwt>0</asrwt>
<pdfrwt beam="1">  1        2 0.14414208E+00 0.60489890E+03</pdfrwt>
<pdfrwt beam="2">  1       -2 0.12951461E-01 0.60489890E+03</pdfrwt>
<totfact> 0.12492243E+03</totfact>
</mgrwt>
</event>
<event>
 4    1  0.5455400E-005  0.4261167E+03  0.7818608E-02  0.1035094E+00
         -2   -1    0    0    0  501 -0.00000000000E+00  0.00000000000E+00  0.99161465431E+02  0.99161465464E+02  0.25500000000E-02 0. -1.
          2   -1    0    0  501    0  0.00000000000E+00 -0.00000000000E+00 -0.45777731086E+03  0.45777731087E+03  0.25500000000E-02 0.  1.
    5000001    1    1    2    0    0 -0.57590107586E+01 -0.77594488693E+02 -0.11427452049E+03  0.23659403398E+03  0.19200000000E+03 0.  0.
   -5000001    1    1    2    0    0  0.57590107586E+01  0.77594488693E+02 -0.24434132494E+03  0.32034474236E+03  0.19200000000E+03 0.  0.
<mgrwt>
<rscale>  0 0.42611674E+03</rscale>
<asrwt>0</asrwt>
<pdfrwt beam="1">  1        2 0.65396758E-01 0.42611674E+03</pdfrwt>
<pdfrwt beam="2">  1       -2 0.14165924E-01 0.42611674E+03</pdfrwt>
<totfact> 0.28316246E+03</totfact>
</mgrwt>
</event>
<event>
 4    1  0.5455400E-005  0.4939914E+03  0.7818608E-02  0.1015359E+00
         -2   -1    0    0    0  501 -0.00000000000E+00  0.00000000000E+00  0.34720478458E+03  0.34720478459E+03  0.25500000000E-02 0. -1.
          2   -1    0    0  501    0  0.00000000000E+00 -0.00000000000E+00 -0.17570860170E+03  0.17570860171E+03  0.25500000000E-02 0.  1.
    5000001    1    1    2    0    0 -0.62215321360E+02  0.12197561657E+02 -0.64414045412E+02  0.21220908550E+03  0.19200000000E+03 0.  0.
   -5000001    1    1    2    0    0  0.62215321360E+02 -0.12197561657E+02  0.23591022829E+03  0.31070430080E+03  0.19200000000E+03 0.  0.
<mgrwt>
<rscale>  0 0.49399137E+03</rscale>
<asrwt>0</asrwt>
<pdfrwt beam="1">  1        2 0.25101229E-01 0.49399137E+03</pdfrwt>
<pdfrwt beam="2">  1       -2 0.49600684E-01 0.49399137E+03</pdfrwt>
<totfact> 0.84221127E+02</totfact>
</mgrwt>
</event>
<event>
 4    1  0.5455400E-005  0.6836076E+03  0.7818608E-02  0.9745683E-01
          2   -1    0    0  501    0  0.00000000000E+00  0.00000000000E+00  0.89791600577E+03  0.89791600577E+03  0.25500000000E-02 0.  1.
         -2   -1    0    0    0  501 -0.00000000000E+00 -0.00000000000E+00 -0.13011220340E+03  0.13011220343E+03  0.25500000000E-02 0. -1.
    5000001    1    1    2    0    0  0.36900789443E+02 -0.22362298164E+03  0.63820861336E+03  0.70394825118E+03  0.19200000000E+03 0.  0.
   -5000001    1    1    2    0    0 -0.36900789443E+02  0.22362298164E+03  0.12959518901E+03  0.32407995802E+03  0.19200000000E+03 0.  0.
<mgrwt>
<rscale>  0 0.68360758E+03</rscale>
<asrwt>0</asrwt>
<pdfrwt beam="1">  1        2 0.12827371E+00 0.68360758E+03</pdfrwt>
<pdfrwt beam="2">  1       -2 0.18587458E-01 0.68360758E+03</pdfrwt>
<totfact> 0.79404630E+02</totfact>
</mgrwt>
</event>
<event>
 4    1  0.5455400E-005  0.4699758E+03  0.7818608E-02  0.1021927E+00
         -2   -1    0    0    0  501 -0.00000000000E+00  0.00000000000E+00  0.56526441650E+02  0.56526441707E+02  0.25500000000E-02 0. -1.
          2   -1    0    0  501    0  0.00000000000E+00 -0.00000000000E+00 -0.97687573701E+03  0.97687573701E+03  0.25500000000E-02 0.  1.
    5000001    1    1    2    0    0  0.23999567080E+02 -0.82520511124E+02 -0.69047318313E+03  0.72180525808E+03  0.19200000000E+03 0.  0.
   -5000001    1    1    2    0    0 -0.23999567080E+02  0.82520511124E+02 -0.22987611223E+03  0.31159692064E+03  0.19200000000E+03 0.  0.
<mgrwt>
<rscale>  0 0.46997578E+03</rscale>
<asrwt>0</asrwt>
<pdfrwt beam="1">  1        2 0.13955367E+00 0.46997578E+03</pdfrwt>
<pdfrwt beam="2">  1       -2 0.80752066E-02 0.46997578E+03</pdfrwt>
<totfact> 0.28129542E+03</totfact>
</mgrwt>
</event>
<event>
 4    1  0.5455400E-005  0.5470960E+03  0.7818608E-02  0.1002168E+00
          2   -1    0    0  501    0  0.00000000000E+00  0.00000000000E+00  0.21449253483E+04  0.21449253483E+04  0.25500000000E-02 0.  1.
         -2   -1    0    0    0  501 -0.00000000000E+00 -0.00000000000E+00 -0.34886305480E+02  0.34886305573E+02  0.25500000000E-02 0. -1.
    5000001    1    1    2    0    0 -0.52883048533E+02 -0.15925379419E+03  0.14495715574E+04  0.14718288242E+04  0.19200000000E+03 0.  0.
   -5000001    1    1    2    0    0  0.52883048533E+02  0.15925379419E+03  0.66046748543E+03  0.70798282967E+03  0.19200000000E+03 0.  0.
<mgrwt>
<rscale>  0 0.54709605E+03</rscale>
<asrwt>0</asrwt>
<pdfrwt beam="1">  1        2 0.30641791E+00 0.54709605E+03</pdfrwt>
<pdfrwt beam="2">  1       -2 0.49837578E-02 0.54709605E+03</pdfrwt>
<totfact> 0.14489715E+03</totfact>
</mgrwt>
</event>
<event>
 4    1  0.5455400E-005  0.4955864E+03  0.7818608E-02  0.1014937E+00
          2   -1    0    0  501    0  0.00000000000E+00  0.00000000000E+00  0.33990441443E+04  0.33990441443E+04  0.25500000000E-02 0.  1.
         -2   -1    0    0    0  501 -0.00000000000E+00 -0.00000000000E+00 -0.18064335912E+02  0.18064336092E+02  0.25500000000E-02 0. -1.
    5000001    1    1    2    0    0 -0.20678516559E+01  0.12532552870E+03  0.23382867502E+04  0.23495020090E+04  0.19200000000E+03 0.  0.
   -5000001    1    1    2    0    0  0.20678516559E+01 -0.12532552870E+03  0.10426930581E+04  0.10676064713E+04  0.19200000000E+03 0.  0.
<mgrwt>
<rscale>  0 0.49558642E+03</rscale>
<asrwt>0</asrwt>
<pdfrwt beam="1">  1        2 0.48557786E+00 0.49558642E+03</pdfrwt>
<pdfrwt beam="2">  1       -2 0.25806188E-02 0.49558642E+03</pdfrwt>
<totfact> 0.85914031E+02</totfact>
</mgrwt>
</event>
<event>
 4    1  0.5455400E-005  0.5544331E+03  0.7818608E-02  0.1000473E+00
         -2   -1    0    0    0  501 -0.00000000000E+00  0.00000000000E+00  0.69741605696E+02  0.69741605743E+02  0.25500000000E-02 0. -1.
          2   -1    0    0  501    0  0.00000000000E+00 -0.00000000000E+00 -0.11019105152E+04  0.11019105152E+04  0.25500000000E-02 0.  1.
    5000001    1    1    2    0    0  0.12159904496E+03  0.15861885288E+03 -0.50293123723E+03  0.57423871135E+03  0.19200000000E+03 0.  0.
   -5000001    1    1    2    0    0 -0.12159904496E+03 -0.15861885288E+03 -0.52923767230E+03  0.59741340963E+03  0.19200000000E+03 0.  0.
<mgrwt>
<rscale>  0 0.55443308E+03</rscale>
<asrwt>0</asrwt>
<pdfrwt beam="1">  1        2 0.15741578E+00 0.55443308E+03</pdfrwt>
<pdfrwt beam="2">  1       -2 0.99630872E-02 0.55443308E+03</pdfrwt>
<totfact> 0.16924156E+03</totfact>
</mgrwt>
</event>
<event>
 4    1  0.5455400E-005  0.4188340E+03  0.7818608E-02  0.1037446E+00
          2   -1    0    0  501    0  0.00000000000E+00  0.00000000000E+00  0.15461554384E+04  0.15461554384E+04  0.25500000000E-02 0.  1.
         -2   -1    0    0    0  501 -0.00000000000E+00 -0.00000000000E+00 -0.28364217177E+02  0.28364217292E+02  0.25500000000E-02 0. -1.
    5000001    1    1    2    0    0  0.82836936428E+02  0.19554563277E+01  0.71674676782E+03  0.74662956748E+03  0.19200000000E+03 0.  0.
   -5000001    1    1    2    0    0 -0.82836936428E+02 -0.19554563277E+01  0.80104445344E+03  0.82789008826E+03  0.19200000000E+03 0.  0.
<mgrwt>
<rscale>  0 0.41883404E+03</rscale>
<asrwt>0</asrwt>
<pdfrwt beam="1">  1        2 0.22087939E+00 0.41883404E+03</pdfrwt>
<pdfrwt beam="2">  1       -2 0.40520303E-02 0.41883404E+03</pdfrwt>
<totfact> 0.39931426E+03</totfact>
</mgrwt>
</event>
<event>
 4    1  0.5455400E-005  0.8304438E+03  0.7818608E-02  0.9516967E-01
          2   -1    0    0  501    0  0.00000000000E+00  0.00000000000E+00  0.15908827351E+04  0.15908827351E+04  0.25500000000E-02 0.  1.
         -2   -1    0    0    0  501 -0.00000000000E+00 -0.00000000000E+00 -0.10837331648E+03  0.10837331651E+03  0.25500000000E-02 0. -1.
    5000001    1    1    2    0    0 -0.35343578306E+03 -0.73598069376E+02  0.59353492414E+03  0.72075046634E+03  0.19200000000E+03 0.  0.
   -5000001    1    1    2    0    0  0.35343578306E+03  0.73598069376E+02  0.88897449444E+03  0.97850558523E+03  0.19200000000E+03 0.  0.
<mgrwt>
<rscale>  0 0.83044383E+03</rscale>
<asrwt>0</asrwt>
<pdfrwt beam="1">  1        2 0.22726896E+00 0.83044383E+03</pdfrwt>
<pdfrwt beam="2">  1       -2 0.15481902E-01 0.83044383E+03</pdfrwt>
<totfact> 0.43754151E+02</totfact>
</mgrwt>
</event>
<event>
 4    1  0.5455400E-005  0.4368083E+03  0.7818608E-02  0.1031731E+00
         -2   -1    0    0    0  501 -0.00000000000E+00  0.00000000000E+00  0.69431705336E+02  0.69431705383E+02  0.25500000000E-02 0. -1.
          2   -1    0    0  501    0  0.00000000000E+00 -0.00000000000E+00 -0.68701125411E+03  0.68701125412E+03  0.25500000000E-02 0.  1.
    5000001    1    1    2    0    0 -0.44098676994E+02  0.94228690661E+02 -0.31494261414E+03  0.38324481687E+03  0.19200000000E+03 0.  0.
   -5000001    1    1    2    0    0  0.44098676994E+02 -0.94228690661E+02 -0.30263693464E+03  0.37319814263E+03  0.19200000000E+03 0.  0.
<mgrwt>
<rscale>  0 0.43680826E+03</rscale>
<asrwt>0</asrwt>
<pdfrwt beam="1">  1        2 0.98144461E-01 0.43680826E+03</pdfrwt>
<pdfrwt beam="2">  1       -2 0.99188155E-02 0.43680826E+03</pdfrwt>
<totfact> 0.31769748E+03</totfact>
</mgrwt>
</event>
<event>
 4    1  0.5455400E-005  0.7473130E+03  0.7818608E-02  0.9639575E-01
          2   -1    0    0  501    0  0.00000000000E+00  0.00000000000E+00  0.59540781709E+03  0.59540781709E+03  0.25500000000E-02 0.  1.
         -2   -1    0    0    0  501 -0.00000000000E+00 -0.00000000000E+00 -0.23449338538E+03  0.23449338539E+03  0.25500000000E-02 0. -1.
    5000001    1    1    2    0    0  0.17894063286E+03  0.21112883091E+03  0.36007246838E+03  0.49306319657E+03  0.19200000000E+03 0.  0.
   -5000001    1    1    2    0    0 -0.17894063286E+03 -0.21112883091E+03  0.84196333421E+00  0.33683800592E+03  0.19200000000E+03 0.  0.
<mgrwt>
<rscale>  0 0.74731304E+03</rscale>
<asrwt>0</asrwt>
<pdfrwt beam="1">  1        2 0.85058260E-01 0.74731304E+03</pdfrwt>
<pdfrwt beam="2">  1       -2 0.33499055E-01 0.74731304E+03</pdfrwt>
<totfact> 0.45816300E+02</totfact>
</mgrwt>
</event>
<event>
 4    1  0.5455400E-005  0.6471486E+03  0.7818608E-02  0.9812144E-01
         -2   -1    0    0    0  501 -0.00000000000E+00  0.00000000000E+00  0.79436928544E+02  0.79436928585E+02  0.25500000000E-02 0. -1.
          2   -1    0    0  501    0  0.00000000000E+00 -0.00000000000E+00 -0.13180308064E+04  0.13180308064E+04  0.25500000000E-02 0.  1.
    5000001    1    1    2    0    0 -0.17357637385E+03 -0.10327059442E+03 -0.97440716950E+03  0.10134726958E+04  0.19200000000E+03 0.  0.
   -5000001    1    1    2    0    0  0.17357637385E+03  0.10327059442E+03 -0.26418670838E+03  0.38399503918E+03  0.19200000000E+03 0.  0.
<mgrwt>
<rscale>  0 0.64714857E+03</rscale>
<asrwt>0</asrwt>
<pdfrwt beam="1">  1        2 0.18829010E+00 0.64714857E+03</pdfrwt>
<pdfrwt beam="2">  1       -2 0.11348133E-01 0.64714857E+03</pdfrwt>
<totfact> 0.10338076E+03</totfact>
</mgrwt>
</event>
<event>
 4    1  0.5455400E-005  0.6445995E+03  0.7818608E-02  0.9816966E-01
         -2   -1    0    0    0  501 -0.00000000000E+00  0.00000000000E+00  0.47872235126E+02  0.47872235194E+02  0.25500000000E-02 0. -1.
          2   -1    0    0  501    0  0.00000000000E+00 -0.00000000000E+00 -0.21698826857E+04  0.21698826857E+04  0.25500000000E-02 0.  1.
    5000001    1    1    2    0    0 -0.19411037233E+03  0.17036947244E+03 -0.10005714667E+04  0.10510527360E+04  0.19200000000E+03 0.  0.
   -5000001    1    1    2    0    0  0.19411037233E+03 -0.17036947244E+03 -0.11214389839E+04  0.11667021849E+04  0.19200000000E+03 0.  0.
<mgrwt>
<rscale>  0 0.64459952E+03</rscale>
<asrwt>0</asrwt>
<pdfrwt beam="1">  1        2 0.30998318E+00 0.64459952E+03</pdfrwt>
<pdfrwt beam="2">  1       -2 0.68388921E-02 0.64459952E+03</pdfrwt>
<totfact> 0.85328610E+02</totfact>
</mgrwt>
</event>
<event>
 4    1  0.5455400E-005  0.4439229E+03  0.7818608E-02  0.1029550E+00
          2   -1    0    0  501    0  0.00000000000E+00  0.00000000000E+00  0.32623259272E+04  0.32623259272E+04  0.25500000000E-02 0.  1.
         -2   -1    0    0    0  501 -0.00000000000E+00 -0.00000000000E+00 -0.15101764272E+02  0.15101764487E+02  0.25500000000E-02 0. -1.
    5000001    1    1    2    0    0  0.66157261592E+02  0.10229155462E+02  0.96651705091E+03  0.98767435351E+03  0.19200000000E+03 0.  0.
   -5000001    1    1    2    0    0 -0.66157261592E+02 -0.10229155462E+02  0.22807071120E+04  0.22897533382E+04  0.19200000000E+03 0.  0.
<mgrwt>
<rscale>  0 0.44392286E+03</rscale>
<asrwt>0</asrwt>
<pdfrwt beam="1">  1        2 0.46604637E+00 0.44392286E+03</pdfrwt>
<pdfrwt beam="2">  1       -2 0.21573958E-02 0.44392286E+03</pdfrwt>
<totfact> 0.13529639E+03</totfact>
</mgrwt>
</event>
<event>
 4    1  0.5455400E-005  0.1159536E+04  0.7818608E-02  0.9149031E-01
         -2   -1    0    0    0  501 -0.00000000000E+00  0.00000000000E+00  0.57549862931E+03  0.57549862931E+03  0.25500000000E-02 0. -1.
          2   -1    0    0  501    0  0.00000000000E+00 -0.00000000000E+00 -0.58406912286E+03  0.58406912287E+03  0.25500000000E-02 0.  1.
    5000001    1    1    2    0    0 -0.42502761113E+03  0.31441323921E+03 -0.14486939985E+03  0.58082294912E+03  0.19200000000E+03 0.  0.
   -5000001    1    1    2    0    0  0.42502761113E+03 -0.31441323921E+03  0.13629890629E+03  0.57874480306E+03  0.19200000000E+03 0.  0.
<mgrwt>
<rscale>  0 0.11595361E+04</rscale>
<asrwt>0</asrwt>
<pdfrwt beam="1">  1        2 0.83438446E-01 0.11595361E+04</pdfrwt>
<pdfrwt beam="2">  1       -2 0.82214090E-01 0.11595361E+04</pdfrwt>
<totfact> 0.72121571E+01</totfact>
</mgrwt>
</event>
<event>
 4    1  0.5455400E-005  0.1003583E+04  0.7818608E-02  0.9304623E-01
         -2   -1    0    0    0  501 -0.00000000000E+00  0.00000000000E+00  0.20212846453E+03  0.20212846455E+03  0.25500000000E-02 0. -1.
          2   -1    0    0  501    0  0.00000000000E+00 -0.00000000000E+00 -0.12457168211E+04  0.12457168211E+04  0.25500000000E-02 0.  1.
    5000001    1    1    2    0    0 -0.12938951311E+03  0.23184432147E+02 -0.11631794688E+04  0.11862249536E+04  0.19200000000E+03 0.  0.
   -5000001    1    1    2    0    0  0.12938951311E+03 -0.23184432147E+02  0.11959111223E+03  0.26162033201E+03  0.19200000000E+03 0.  0.
<mgrwt>
<rscale>  0 0.10035832E+04</rscale>
<asrwt>0</asrwt>
<pdfrwt beam="1">  1        2 0.17795954E+00 0.10035832E+04</pdfrwt>
<pdfrwt beam="2">  1       -2 0.28875496E-01 0.10035832E+04</pdfrwt>
<totfact> 0.22064620E+02</totfact>
</mgrwt>
</event>
<event>
 4    1  0.5455400E-005  0.1266506E+04  0.7818608E-02  0.9056556E-01
          2   -1    0    0  501    0  0.00000000000E+00  0.00000000000E+00  0.10104971598E+04  0.10104971598E+04  0.25500000000E-02 0.  1.
         -2   -1    0    0    0  501 -0.00000000000E+00 -0.00000000000E+00 -0.39684347230E+03  0.39684347231E+03  0.25500000000E-02 0. -1.
    5000001    1    1    2    0    0 -0.42013451326E+03 -0.25158247071E+03 -0.85000546346E+02  0.53281877001E+03  0.19200000000E+03 0.  0.
   -5000001    1    1    2    0    0  0.42013451326E+03  0.25158247071E+03  0.69865423381E+03  0.87452186206E+03  0.19200000000E+03 0.  0.
<mgrwt>
<rscale>  0 0.12665057E+04</rscale>
<asrwt>0</asrwt>
<pdfrwt beam="1">  1        2 0.14435674E+00 0.12665057E+04</pdfrwt>
<pdfrwt beam="2">  1       -2 0.56691924E-01 0.12665057E+04</pdfrwt>
<totfact> 0.79382548E+01</totfact>
</mgrwt>
</event>
<event>
 4    1  0.5455400E-005  0.7827438E+03  0.7818608E-02  0.9585336E-01
         -2   -1    0    0    0  501 -0.00000000000E+00  0.00000000000E+00  0.32686151801E+03  0.32686151802E+03  0.25500000000E-02 0. -1.
          2   -1    0    0  501    0  0.00000000000E+00 -0.00000000000E+00 -0.46861419140E+03  0.46861419141E+03  0.25500000000E-02 0.  1.
    5000001    1    1    2    0    0 -0.18964491199E+03  0.27453225753E+03 -0.14255581153E+03  0.41051103818E+03  0.19200000000E+03 0.  0.
   -5000001    1    1    2    0    0  0.18964491199E+03 -0.27453225753E+03  0.80313813123E+00  0.38496467124E+03  0.19200000000E+03 0.  0.
<mgrwt>
<rscale>  0 0.78274375E+03</rscale>
<asrwt>0</asrwt>
<pdfrwt beam="1">  1        2 0.66944884E-01 0.78274375E+03</pdfrwt>
<pdfrwt beam="2">  1       -2 0.46694503E-01 0.78274375E+03</pdfrwt>
<totfact> 0.31639814E+02</totfact>
</mgrwt>
</event>
<event>
 4    1  0.5455400E-005  0.5739089E+03  0.7818608E-02  0.9961066E-01
         -2   -1    0    0    0  501 -0.00000000000E+00  0.00000000000E+00  0.58840699870E+02  0.58840699925E+02  0.25500000000E-02 0. -1.
          2   -1    0    0  501    0  0.00000000000E+00 -0.00000000000E+00 -0.13994199861E+04  0.13994199861E+04  0.25500000000E-02 0.  1.
    5000001    1    1    2    0    0 -0.18698613175E+03 -0.98480464529E+02 -0.74290132585E+03  0.79588227478E+03  0.19200000000E+03 0.  0.
   -5000001    1    1    2    0    0  0.18698613175E+03  0.98480464529E+02 -0.59767796040E+03  0.66237841126E+03  0.19200000000E+03 0.  0.
<mgrwt>
<rscale>  0 0.57390888E+03</rscale>
<asrwt>0</asrwt>
<pdfrwt beam="1">  1        2 0.19991712E+00 0.57390888E+03</pdfrwt>
<pdfrwt beam="2">  1       -2 0.84058151E-02 0.57390888E+03</pdfrwt>
<totfact> 0.15233666E+03</totfact>
</mgrwt>
</event>
<event>
 4    1  0.5455400E-005  0.6915009E+03  0.7818608E-02  0.9731878E-01
          2   -1    0    0  501    0  0.00000000000E+00  0.00000000000E+00  0.61421193429E+03  0.61421193430E+03  0.25500000000E-02 0.  1.
         -2   -1    0    0    0  501 -0.00000000000E+00 -0.00000000000E+00 -0.19462889182E+03  0.19462889183E+03  0.25500000000E-02 0. -1.
    5000001    1    1    2    0    0 -0.92058353268E+02 -0.26281759775E+03  0.12600099647E+03  0.36095440322E+03  0.19200000000E+03 0.  0.
   -5000001    1    1    2    0    0  0.92058353268E+02  0.26281759775E+03  0.29358204601E+03  0.44788642291E+03  0.19200000000E+03 0.  0.
<mgrwt>
<rscale>  0 0.69150094E+03</rscale>
<asrwt>0</asrwt>
<pdfrwt beam="1">  1        2 0.87744561E-01 0.69150094E+03</pdfrwt>
<pdfrwt beam="2">  1       -2 0.27804128E-01 0.69150094E+03</pdfrwt>
<totfact> 0.62529924E+02</totfact>
</mgrwt>
</event>
<event>
 4    1  0.5455400E-005  0.6647904E+03  0.7818608E-02  0.9779415E-01
         -2   -1    0    0    0  501 -0.00000000000E+00  0.00000000000E+00  0.75508072598E+03  0.75508072599E+03  0.25500000000E-02 0. -1.
          2   -1    0    0  501    0  0.00000000000E+00 -0.00000000000E+00 -0.14632417785E+03  0.14632417787E+03  0.25500000000E-02 0.  1.
    5000001    1    1    2    0    0  0.26171036997E+03  0.44252280713E+02  0.22801215850E+03  0.39912921030E+03  0.19200000000E+03 0.  0.
   -5000001    1    1    2    0    0 -0.26171036997E+03 -0.44252280713E+02  0.38074438964E+03  0.50227569356E+03  0.19200000000E+03 0.  0.
<mgrwt>
<rscale>  0 0.66479039E+03</rscale>
<asrwt>0</asrwt>
<pdfrwt beam="1">  1        2 0.20903454E-01 0.66479039E+03</pdfrwt>
<pdfrwt beam="2">  1       -2 0.10786867E+00 0.66479039E+03</pdfrwt>
<totfact> 0.18792754E+02</totfact>
</mgrwt>
</event>
<event>
 4    1  0.5455400E-005  0.5536035E+03  0.7818608E-02  0.1000663E+00
         -2   -1    0    0    0  501 -0.00000000000E+00  0.00000000000E+00  0.42201832608E+02  0.42201832685E+02  0.25500000000E-02 0. -1.
          2   -1    0    0  501    0  0.00000000000E+00 -0.00000000000E+00 -0.18155422216E+04  0.18155422216E+04  0.25500000000E-02 0.  1.
    5000001    1    1    2    0    0 -0.19732663337E+03 -0.26535331898E+02 -0.92238704171E+03  0.96296613585E+03  0.19200000000E+03 0.  0.
   -5000001    1    1    2    0    0  0.19732663337E+03  0.26535331898E+02 -0.85095334732E+03  0.89477791848E+03  0.19200000000E+03 0.  0.
<mgrwt>
<rscale>  0 0.55360350E+03</rscale>
<asrwt>0</asrwt>
<pdfrwt beam="1">  1        2 0.25936313E+00 0.55360350E+03</pdfrwt>
<pdfrwt beam="2">  1       -2 0.60288344E-02 0.55360350E+03</pdfrwt>
<totfact> 0.15754665E+03</totfact>
</mgrwt>
</event>
<event>
 4    1  0.5455400E-005  0.4747154E+03  0.7818608E-02  0.1020598E+00
         -2   -1    0    0    0  501 -0.00000000000E+00  0.00000000000E+00  0.14322821399E+03  0.14322821401E+03  0.25500000000E-02 0. -1.
          2   -1    0    0  501    0  0.00000000000E+00 -0.00000000000E+00 -0.39334906630E+03  0.39334906631E+03  0.25500000000E-02 0.  1.
    5000001    1    1    2    0    0  0.12514399416E+03  0.14678457376E+02 -0.19286235648E+03  0.29989392280E+03  0.19200000000E+03 0.  0.
   -5000001    1    1    2    0    0 -0.12514399416E+03 -0.14678457376E+02 -0.57258495832E+02  0.23668335753E+03  0.19200000000E+03 0.  0.
<mgrwt>
<rscale>  0 0.47471543E+03</rscale>
<asrwt>0</asrwt>
<pdfrwt beam="1">  1        2 0.56192723E-01 0.47471543E+03</pdfrwt>
<pdfrwt beam="2">  1       -2 0.20461174E-01 0.47471543E+03</pdfrwt>
<totfact> 0.17963101E+03</totfact>
</mgrwt>
</event>
<event>
 4    1  0.5455400E-005  0.9043936E+03  0.7818608E-02  0.9420106E-01
          2   -1    0    0  501    0  0.00000000000E+00  0.00000000000E+00  0.33906928753E+04  0.33906928753E+04  0.25500000000E-02 0.  1.
         -2   -1    0    0    0  501 -0.00000000000E+00 -0.00000000000E+00 -0.60306826667E+02  0.60306826721E+02  0.25500000000E-02 0. -1.
    5000001    1    1    2    0    0  0.30775663999E+03  0.23397101667E+03  0.21794277769E+04  0.22217619181E+04  0.19200000000E+03 0.  0.
   -5000001    1    1    2    0    0 -0.30775663999E+03 -0.23397101667E+03  0.11509582718E+04  0.12292377839E+04  0.19200000000E+03 0.  0.
<mgrwt>
<rscale>  0 0.90439356E+03</rscale>
<asrwt>0</asrwt>
<pdfrwt beam="1">  1        2 0.48438465E+00 0.90439356E+03</pdfrwt>
<pdfrwt beam="2">  1       -2 0.86152618E-02 0.90439356E+03</pdfrwt>
<totfact> 0.12756688E+02</totfact>
</mgrwt>
</event>
<event>
 4    1  0.5455400E-005  0.7380630E+03  0.7818608E-02  0.9654266E-01
         -2   -1    0    0    0  501 -0.00000000000E+00  0.00000000000E+00  0.38492114366E+03  0.38492114367E+03  0.25500000000E-02 0. -1.
          2   -1    0    0  501    0  0.00000000000E+00 -0.00000000000E+00 -0.35379777880E+03  0.35379777881E+03  0.25500000000E-02 0.  1.
    5000001    1    1    2    0    0 -0.24735675003E+03 -0.19140002373E+03  0.54337754149E+02  0.37099315681E+03  0.19200000000E+03 0.  0.
   -5000001    1    1    2    0    0  0.24735675003E+03  0.19140002373E+03 -0.23214389285E+02  0.36772576568E+03  0.19200000000E+03 0.  0.
<mgrwt>
<rscale>  0 0.73806299E+03</rscale>
<asrwt>0</asrwt>
<pdfrwt beam="1">  1        2 0.50542540E-01 0.73806299E+03</pdfrwt>
<pdfrwt beam="2">  1       -2 0.54988735E-01 0.73806299E+03</pdfrwt>
<totfact> 0.31111164E+02</totfact>
</mgrwt>
</event>
<event>
 4    1  0.5455400E-005  0.9327634E+03  0.7818608E-02  0.9385528E-01
          2   -1    0    0  501    0  0.00000000000E+00  0.00000000000E+00  0.14211511891E+04  0.14211511891E+04  0.25500000000E-02 0.  1.
         -2   -1    0    0    0  501 -0.00000000000E+00 -0.00000000000E+00 -0.15305331613E+03  0.15305331615E+03  0.25500000000E-02 0. -1.
    5000001    1    1    2    0    0  0.37889987121E+03  0.50483172761E+02  0.32042111036E+03  0.53445986856E+03  0.19200000000E+03 0.  0.
   -5000001    1    1    2    0    0 -0.37889987121E+03 -0.50483172761E+02  0.94767676257E+03  0.10397446367E+04  0.19200000000E+03 0.  0.
<mgrwt>
<rscale>  0 0.93276343E+03</rscale>
<asrwt>0</asrwt>
<pdfrwt beam="1">  1        2 0.20302160E+00 0.93276343E+03</pdfrwt>
<pdfrwt beam="2">  1       -2 0.21864759E-01 0.93276343E+03</pdfrwt>
<totfact> 0.29375349E+02</totfact>
</mgrwt>
</event>
<event>
 4    1  0.5455400E-005  0.4691300E+03  0.7818608E-02  0.1022166E+00
          2   -1    0    0  501    0  0.00000000000E+00  0.00000000000E+00  0.25409671044E+03  0.25409671046E+03  0.25500000000E-02 0.  1.
         -2   -1    0    0    0  501 -0.00000000000E+00 -0.00000000000E+00 -0.21653466653E+03  0.21653466655E+03  0.25500000000E-02 0. -1.
    5000001    1    1    2    0    0 -0.13248512480E+03  0.13907087935E+02 -0.15577616355E+01  0.23369240897E+03  0.19200000000E+03 0.  0.
   -5000001    1    1    2    0    0  0.13248512480E+03 -0.13907087935E+02  0.39119805548E+02  0.23693896803E+03  0.19200000000E+03 0.  0.
<mgrwt>
<rscale>  0 0.46913003E+03</rscale>
<asrwt>0</asrwt>
<pdfrwt beam="1">  1        2 0.36299530E-01 0.46913003E+03</pdfrwt>
<pdfrwt beam="2">  1       -2 0.30933524E-01 0.46913003E+03</pdfrwt>
<totfact> 0.13851305E+03</totfact>
</mgrwt>
</event>
<event>
 4    1  0.5455400E-005  0.1083243E+04  0.7818608E-02  0.9221680E-01
         -2   -1    0    0    0  501 -0.00000000000E+00  0.00000000000E+00  0.33035765545E+03  0.33035765546E+03  0.25500000000E-02 0. -1.
          2   -1    0    0  501    0  0.00000000000E+00 -0.00000000000E+00 -0.88798909169E+03  0.88798909170E+03  0.25500000000E-02 0.  1.
    5000001    1    1    2    0    0 -0.22741427599E+03 -0.45109966428E+03 -0.31908379281E+03  0.62760387736E+03  0.19200000000E+03 0.  0.
   -5000001    1    1    2    0    0  0.22741427599E+03  0.45109966428E+03 -0.23854764343E+03  0.59074286980E+03  0.19200000000E+03 0.  0.
<mgrwt>
<rscale>  0 0.10832433E+04</rscale>
<asrwt>0</asrwt>
<pdfrwt beam="1">  1        2 0.12685558E+00 0.10832433E+04</pdfrwt>
<pdfrwt beam="2">  1       -2 0.47193951E-01 0.10832433E+04</pdfrwt>
<totfact> 0.13998547E+02</totfact>
</mgrwt>
</event>
<event>
 4    1  0.5455400E-005  0.9641130E+03  0.7818608E-02  0.9348805E-01
          2   -1    0    0  501    0  0.00000000000E+00  0.00000000000E+00  0.91359261339E+03  0.91359261339E+03  0.25500000000E-02 0.  1.
         -2   -1    0    0    0  501 -0.00000000000E+00 -0.00000000000E+00 -0.25435675719E+03  0.25435675720E+03  0.25500000000E-02 0. -1.
    5000001    1    1    2    0    0  0.10156712209E+03 -0.42737111261E+03  0.26841397006E+03  0.54942880112E+03  0.19200000000E+03 0.  0.
   -5000001    1    1    2    0    0 -0.10156712209E+03  0.42737111261E+03  0.39082188614E+03  0.61852056948E+03  0.19200000000E+03 0.  0.
<mgrwt>
<rscale>  0 0.96411297E+03</rscale>
<asrwt>0</asrwt>
<pdfrwt beam="1">  1        2 0.13051323E+00 0.96411297E+03</pdfrwt>
<pdfrwt beam="2">  1       -2 0.36336679E-01 0.96411297E+03</pdfrwt>
<totfact> 0.22665380E+02</totfact>
</mgrwt>
</event>
<event>
 4    1  0.5455400E-005  0.5107191E+03  0.7818608E-02  0.1011018E+00
          2   -1    0    0  501    0  0.00000000000E+00  0.00000000000E+00  0.21033151960E+04  0.21033151960E+04  0.25500000000E-02 0.  1.
         -2   -1    0    0    0  501 -0.00000000000E+00 -0.00000000000E+00 -0.31002723005E+02  0.31002723110E+02  0.25500000000E-02 0. -1.
    5000001    1    1    2    0    0  0.16140149299E+03  0.40494492053E+02  0.92926311050E+03  0.96337125469E+03  0.19200000000E+03 0.  0.
   -5000001    1    1    2    0    0 -0.16140149299E+03 -0.40494492053E+02  0.11430493625E+04  0.11709466645E+04  0.19200000000E+03 0.  0.
<mgrwt>
<rscale>  0 0.51071910E+03</rscale>
<asrwt>0</asrwt>
<pdfrwt beam="1">  1        2 0.30047365E+00 0.51071910E+03</pdfrwt>
<pdfrwt beam="2">  1       -2 0.44289597E-02 0.51071910E+03</pdfrwt>
<totfact> 0.18270873E+03</totfact>
</mgrwt>
</event>
<event>
 4    1  0.5455400E-005  0.6004196E+03  0.7818608E-02  0.9904536E-01
         -2   -1    0    0    0  501 -0.00000000000E+00  0.00000000000E+00  0.20729218225E+03  0.20729218227E+03  0.25500000000E-02 0. -1.
          2   -1    0    0  501    0  0.00000000000E+00 -0.00000000000E+00 -0.43477728757E+03  0.43477728758E+03  0.25500000000E-02 0.  1.
    5000001    1    1    2    0    0 -0.19406323055E+03  0.12121674458E+03 -0.14596401293E+03  0.33245079288E+03  0.19200000000E+03 0.  0.
   -5000001    1    1    2    0    0  0.19406323055E+03 -0.12121674458E+03 -0.81521092396E+02  0.30961867696E+03  0.19200000000E+03 0.  0.
<mgrwt>
<rscale>  0 0.60041963E+03</rscale>
<asrwt>0</asrwt>
<pdfrwt beam="1">  1        2 0.62111041E-01 0.60041963E+03</pdfrwt>
<pdfrwt beam="2">  1       -2 0.29613169E-01 0.60041963E+03</pdfrwt>
<totfact> 0.82973272E+02</totfact>
</mgrwt>
</event>
<event>
 4    1  0.5455400E-005  0.6443013E+03  0.7818608E-02  0.9817532E-01
          2   -1    0    0  501    0  0.00000000000E+00  0.00000000000E+00  0.13613809440E+04  0.13613809440E+04  0.25500000000E-02 0.  1.
         -2   -1    0    0    0  501 -0.00000000000E+00 -0.00000000000E+00 -0.76232176978E+02  0.76232177021E+02  0.25500000000E-02 0. -1.
    5000001    1    1    2    0    0  0.23203724150E+03  0.53454575810E+02  0.86812480160E+03  0.92043649660E+03  0.19200000000E+03 0.  0.
   -5000001    1    1    2    0    0 -0.23203724150E+03 -0.53454575810E+02  0.41702396544E+03  0.51717662445E+03  0.19200000000E+03 0.  0.
<mgrwt>
<rscale>  0 0.64430127E+03</rscale>
<asrwt>0</asrwt>
<pdfrwt beam="1">  1        2 0.19448297E+00 0.64430127E+03</pdfrwt>
<pdfrwt beam="2">  1       -2 0.10890312E-01 0.64430127E+03</pdfrwt>
<totfact> 0.10480204E+03</totfact>
</mgrwt>
</event>
<event>
 4    1  0.5455400E-005  0.5333001E+03  0.7818608E-02  0.1005435E+00
          2   -1    0    0  501    0  0.00000000000E+00  0.00000000000E+00  0.14691839856E+04  0.14691839856E+04  0.25500000000E-02 0.  1.
         -2   -1    0    0    0  501 -0.00000000000E+00 -0.00000000000E+00 -0.48395749440E+02  0.48395749507E+02  0.25500000000E-02 0. -1.
    5000001    1    1    2    0    0  0.58146427104E+02 -0.17019239982E+03  0.58662353152E+03  0.64291339049E+03  0.19200000000E+03 0.  0.
   -5000001    1    1    2    0    0 -0.58146427104E+02  0.17019239982E+03  0.83416470465E+03  0.87466634463E+03  0.19200000000E+03 0.  0.
<mgrwt>
<rscale>  0 0.53330014E+03</rscale>
<asrwt>0</asrwt>
<pdfrwt beam="1">  1        2 0.20988348E+00 0.53330014E+03</pdfrwt>
<pdfrwt beam="2">  1       -2 0.69136768E-02 0.53330014E+03</pdfrwt>
<totfact> 0.19107721E+03</totfact>
</mgrwt>
</event>
<event>
 4    1  0.5455400E-005  0.6134727E+03  0.7818608E-02  0.9877842E-01
          2   -1    0    0  501    0  0.00000000000E+00  0.00000000000E+00  0.24419243567E+04  0.24419243567E+04  0.25500000000E-02 0.  1.
         -2   -1    0    0    0  501 -0.00000000000E+00 -0.00000000000E+00 -0.38529936381E+02  0.38529936466E+02  0.25500000000E-02 0. -1.
    5000001    1    1    2    0    0  0.21265947124E+03  0.99011810831E+02  0.10122307001E+04  0.10566467620E+04  0.19200000000E+03 0.  0.
   -5000001    1    1    2    0    0 -0.21265947124E+03 -0.99011810831E+02  0.13911637203E+04  0.14238075312E+04  0.19200000000E+03 0.  0.
<mgrwt>
<rscale>  0 0.61347271E+03</rscale>
<asrwt>0</asrwt>
<pdfrwt beam="1">  1        2 0.34884639E+00 0.61347271E+03</pdfrwt>
<pdfrwt beam="2">  1       -2 0.55042758E-02 0.61347271E+03</pdfrwt>
<totfact> 0.87499344E+02</totfact>
</mgrwt>
</event>
<event>
 4    1  0.5455400E-005  0.7004210E+03  0.7818608E-02  0.9716513E-01
         -2   -1    0    0    0  501 -0.00000000000E+00  0.00000000000E+00  0.77255770132E+02  0.77255770175E+02  0.25500000000E-02 0. -1.
          2   -1    0    0  501    0  0.00000000000E+00 -0.00000000000E+00 -0.15875498998E+04  0.15875498998E+04  0.25500000000E-02 0.  1.
    5000001    1    1    2    0    0 -0.21746187521E+03 -0.60821675923E+02 -0.31178415104E+03  0.43018867985E+03  0.19200000000E+03 0.  0.
   -5000001    1    1    2    0    0  0.21746187521E+03  0.60821675923E+02 -0.11985099786E+04  0.12346169901E+04  0.19200000000E+03 0.  0.
<mgrwt>
<rscale>  0 0.70042099E+03</rscale>
<asrwt>0</asrwt>
<pdfrwt beam="1">  1        2 0.22679282E+00 0.70042099E+03</pdfrwt>
<pdfrwt beam="2">  1       -2 0.11036540E-01 0.70042099E+03</pdfrwt>
<totfact> 0.77776967E+02</totfact>
</mgrwt>
</event>
<event>
 4    1  0.5455400E-005  0.5905246E+03  0.7818608E-02  0.9925262E-01
          2   -1    0    0  501    0  0.00000000000E+00  0.00000000000E+00  0.19732638054E+03  0.19732638056E+03  0.25500000000E-02 0.  1.
         -2   -1    0    0    0  501 -0.00000000000E+00 -0.00000000000E+00 -0.44180522723E+03  0.44180522723E+03  0.25500000000E-02 0. -1.
    5000001    1    1    2    0    0 -0.20793142355E+03 -0.58156065039E+02 -0.56420804361E+02  0.29438904865E+03  0.19200000000E+03 0.  0.
   -5000001    1    1    2    0    0  0.20793142355E+03  0.58156065039E+02 -0.18805804232E+03  0.34474255914E+03  0.19200000000E+03 0.  0.
<mgrwt>
<rscale>  0 0.59052460E+03</rscale>
<asrwt>0</asrwt>
<pdfrwt beam="1">  1        2 0.28189483E-01 0.59052460E+03</pdfrwt>
<pdfrwt beam="2">  1       -2 0.63115032E-01 0.59052460E+03</pdfrwt>
<totfact> 0.44810933E+02</totfact>
</mgrwt>
</event>
<event>
 4    1  0.5455400E-005  0.4436460E+03  0.7818608E-02  0.1029634E+00
         -2   -1    0    0    0  501 -0.00000000000E+00  0.00000000000E+00  0.21163735223E+02  0.21163735376E+02  0.25500000000E-02 0. -1.
          2   -1    0    0  501    0  0.00000000000E+00 -0.00000000000E+00 -0.23249881702E+04  0.23249881702E+04  0.25500000000E-02 0.  1.
    5000001    1    1    2    0    0  0.56000446419E+02  0.50601451843E+02 -0.15829973851E+04  0.15963838129E+04  0.19200000000E+03 0.  0.
   -5000001    1    1    2    0    0 -0.56000446419E+02 -0.50601451843E+02 -0.72082704985E+03  0.74976809263E+03  0.19200000000E+03 0.  0.
<mgrwt>
<rscale>  0 0.44364596E+03</rscale>
<asrwt>0</asrwt>
<pdfrwt beam="1">  1        2 0.33214100E+00 0.44364596E+03</pdfrwt>
<pdfrwt beam="2">  1       -2 0.30233922E-02 0.44364596E+03</pdfrwt>
<totfact> 0.25395930E+03</totfact>
</mgrwt>
</event>
<event>
 4    1  0.5455400E-005  0.1152973E+04  0.7818608E-02  0.9155045E-01
         -2   -1    0    0    0  501 -0.00000000000E+00  0.00000000000E+00  0.26500618691E+03  0.26500618692E+03  0.25500000000E-02 0. -1.
          2   -1    0    0  501    0  0.00000000000E+00 -0.00000000000E+00 -0.12540717045E+04  0.12540717045E+04  0.25500000000E-02 0.  1.
    5000001    1    1    2    0    0  0.48876778948E+03 -0.13399863132E+03 -0.23560128460E+03  0.59094970220E+03  0.19200000000E+03 0.  0.
   -5000001    1    1    2    0    0 -0.48876778948E+03  0.13399863132E+03 -0.75346423296E+03  0.92812818919E+03  0.19200000000E+03 0.  0.
<mgrwt>
<rscale>  0 0.11529731E+04</rscale>
<asrwt>0</asrwt>
<pdfrwt beam="1">  1        2 0.17915310E+00 0.11529731E+04</pdfrwt>
<pdfrwt beam="2">  1       -2 0.37858027E-01 0.11529731E+04</pdfrwt>
<totfact> 0.12963582E+02</totfact>
</mgrwt>
</event>
<event>
 4    1  0.5455400E-005  0.6592885E+03  0.7818608E-02  0.9789504E-01
         -2   -1    0    0    0  501 -0.00000000000E+00  0.00000000000E+00  0.31617678912E+02  0.31617679015E+02  0.25500000000E-02 0. -1.
          2   -1    0    0  501    0  0.00000000000E+00 -0.00000000000E+00 -0.34368534338E+04  0.34368534338E+04  0.25500000000E-02 0.  1.
    5000001    1    1    2    0    0  0.16112711950E+03 -0.27612613689E+02 -0.58565247522E+03  0.63763408535E+03  0.19200000000E+03 0.  0.
   -5000001    1    1    2    0    0 -0.16112711950E+03  0.27612613689E+02 -0.28195832797E+04  0.28308370275E+04  0.19200000000E+03 0.  0.
<mgrwt>
<rscale>  0 0.65928849E+03</rscale>
<asrwt>0</asrwt>
<pdfrwt beam="1">  1        2 0.49097883E+00 0.65928849E+03</pdfrwt>
<pdfrwt beam="2">  1       -2 0.45168135E-02 0.65928849E+03</pdfrwt>
<totfact> 0.34115185E+02</totfact>
</mgrwt>
</event>
<event>
 4    1  0.5455400E-005  0.5156245E+03  0.7818608E-02  0.1009779E+00
          2   -1    0    0  501    0  0.00000000000E+00  0.00000000000E+00  0.52553579522E+03  0.52553579522E+03  0.25500000000E-02 0.  1.
         -2   -1    0    0    0  501 -0.00000000000E+00 -0.00000000000E+00 -0.12647501537E+03  0.12647501539E+03  0.25500000000E-02 0. -1.
    5000001    1    1    2    0    0  0.15168118605E+03 -0.29049248382E+02  0.10362682562E+03  0.26730798720E+03  0.19200000000E+03 0.  0.
   -5000001    1    1    2    0    0 -0.15168118605E+03  0.29049248382E+02  0.29543395423E+03  0.38470282342E+03  0.19200000000E+03 0.  0.
<mgrwt>
<rscale>  0 0.51562447E+03</rscale>
<asrwt>0</asrwt>
<pdfrwt beam="1">  1        2 0.75076540E-01 0.51562447E+03</pdfrwt>
<pdfrwt beam="2">  1       -2 0.18067860E-01 0.51562447E+03</pdfrwt>
<totfact> 0.16107542E+03</totfact>
</mgrwt>
</event>
<event>
 4    1  0.5455400E-005  0.7066104E+03  0.7818608E-02  0.9705994E-01
         -2   -1    0    0    0  501 -0.00000000000E+00  0.00000000000E+00  0.12902004604E+03  0.12902004606E+03  0.25500000000E-02 0. -1.
          2   -1    0    0  501    0  0.00000000000E+00 -0.00000000000E+00 -0.96748188985E+03  0.96748188986E+03  0.25500000000E-02 0.  1.
    5000001    1    1    2    0    0 -0.18583465703E+03 -0.21660154506E+03 -0.54443356838E+03  0.64398964235E+03  0.19200000000E+03 0.  0.
   -5000001    1    1    2    0    0  0.18583465703E+03  0.21660154506E+03 -0.29402827544E+03  0.45251229357E+03  0.19200000000E+03 0.  0.
<mgrwt>
<rscale>  0 0.70661038E+03</rscale>
<asrwt>0</asrwt>
<pdfrwt beam="1">  1        2 0.13821169E+00 0.70661038E+03</pdfrwt>
<pdfrwt beam="2">  1       -2 0.18431436E-01 0.70661038E+03</pdfrwt>
<totfact> 0.72715901E+02</totfact>
</mgrwt>
</event>
<event>
 4    1  0.5455400E-005  0.7586666E+03  0.7818608E-02  0.9621851E-01
         -2   -1    0    0    0  501 -0.00000000000E+00  0.00000000000E+00  0.11491260888E+03  0.11491260891E+03  0.25500000000E-02 0. -1.
          2   -1    0    0  501    0  0.00000000000E+00 -0.00000000000E+00 -0.12522017513E+04  0.12522017513E+04  0.25500000000E-02 0.  1.
    5000001    1    1    2    0    0  0.28782061824E+03  0.51081565551E+02 -0.83335857223E+03  0.90377018348E+03  0.19200000000E+03 0.  0.
   -5000001    1    1    2    0    0 -0.28782061824E+03 -0.51081565551E+02 -0.30393057019E+03  0.46334417674E+03  0.19200000000E+03 0.  0.
<mgrwt>
<rscale>  0 0.75866665E+03</rscale>
<asrwt>0</asrwt>
<pdfrwt beam="1">  1        2 0.17888596E+00 0.75866665E+03</pdfrwt>
<pdfrwt beam="2">  1       -2 0.16416088E-01 0.75866665E+03</pdfrwt>
<totfact> 0.60320186E+02</totfact>
</mgrwt>
</event>
<event>
 4    1  0.5455400E-005  0.6424459E+03  0.7818608E-02  0.9821058E-01
         -2   -1    0    0    0  501 -0.00000000000E+00  0.00000000000E+00  0.73497933414E+03  0.73497933414E+03  0.25500000000E-02 0. -1.
          2   -1    0    0  501    0  0.00000000000E+00 -0.00000000000E+00 -0.14039060029E+03  0.14039060031E+03  0.25500000000E-02 0.  1.
    5000001    1    1    2    0    0  0.20465666411E+03  0.12689905017E+03  0.17291683000E+03  0.35320241958E+03  0.19200000000E+03 0.  0.
   -5000001    1    1    2    0    0 -0.20465666411E+03 -0.12689905017E+03  0.42167190385E+03  0.52216751487E+03  0.19200000000E+03 0.  0.
<mgrwt>
<rscale>  0 0.64244592E+03</rscale>
<asrwt>0</asrwt>
<pdfrwt beam="1">  1        2 0.20055800E-01 0.64244592E+03</pdfrwt>
<pdfrwt beam="2">  1       -2 0.10499705E+00 0.64244592E+03</pdfrwt>
<totfact> 0.21059216E+02</totfact>
</mgrwt>
</event>
<event>
 4    1  0.5455400E-005  0.6557130E+03  0.7818608E-02  0.9796118E-01
          2   -1    0    0  501    0  0.00000000000E+00  0.00000000000E+00  0.10894314817E+04  0.10894314817E+04  0.25500000000E-02 0.  1.
         -2   -1    0    0    0  501 -0.00000000000E+00 -0.00000000000E+00 -0.98666032760E+02  0.98666032793E+02  0.25500000000E-02 0. -1.
    5000001    1    1    2    0    0 -0.25550991118E+03 -0.72739592958E+02  0.48263228705E+03  0.58341605017E+03  0.19200000000E+03 0.  0.
   -5000001    1    1    2    0    0  0.25550991118E+03  0.72739592958E+02  0.50813316191E+03  0.60468146435E+03  0.19200000000E+03 0.  0.
<mgrwt>
<rscale>  0 0.65571299E+03</rscale>
<asrwt>0</asrwt>
<pdfrwt beam="1">  1        2 0.15563307E+00 0.65571299E+03</pdfrwt>
<pdfrwt beam="2">  1       -2 0.14095147E-01 0.65571299E+03</pdfrwt>
<totfact> 0.97014675E+02</totfact>
</mgrwt>
</event>
<event>
 4    1  0.5455400E-005  0.6836525E+03  0.7818608E-02  0.9745604E-01
          2   -1    0    0  501    0  0.00000000000E+00  0.00000000000E+00  0.13231495876E+04  0.13231495876E+04  0.25500000000E-02 0.  1.
         -2   -1    0    0    0  501 -0.00000000000E+00 -0.00000000000E+00 -0.88308383015E+02  0.88308383052E+02  0.25500000000E-02 0. -1.
    5000001    1    1    2    0    0  0.14663895339E+03  0.23133193457E+03  0.76287861178E+03  0.83298572791E+03  0.19200000000E+03 0.  0.
   -5000001    1    1    2    0    0 -0.14663895339E+03 -0.23133193457E+03  0.47196259276E+03  0.57847224270E+03  0.19200000000E+03 0.  0.
<mgrwt>
<rscale>  0 0.68365255E+03</rscale>
<asrwt>0</asrwt>
<pdfrwt beam="1">  1        2 0.18902136E+00 0.68365255E+03</pdfrwt>
<pdfrwt beam="2">  1       -2 0.12615484E-01 0.68365255E+03</pdfrwt>
<totfact> 0.86146830E+02</totfact>
</mgrwt>
</event>
<event>
 4    1  0.5455400E-005  0.9531873E+03  0.7818608E-02  0.9361433E-01
         -2   -1    0    0    0  501 -0.00000000000E+00  0.00000000000E+00  0.19849043236E+03  0.19849043237E+03  0.25500000000E-02 0. -1.
          2   -1    0    0  501    0  0.00000000000E+00 -0.00000000000E+00 -0.11443449400E+04  0.11443449400E+04  0.25500000000E-02 0.  1.
    5000001    1    1    2    0    0  0.29325885677E+03 -0.31357342256E+03 -0.36427286404E+03  0.59488466772E+03  0.19200000000E+03 0.  0.
   -5000001    1    1    2    0    0 -0.29325885677E+03  0.31357342256E+03 -0.58158164359E+03  0.74795070464E+03  0.19200000000E+03 0.  0.
<mgrwt>
<rscale>  0 0.95318733E+03</rscale>
<asrwt>0</asrwt>
<pdfrwt beam="1">  1        2 0.16347784E+00 0.95318733E+03</pdfrwt>
<pdfrwt beam="2">  1       -2 0.28355777E-01 0.95318733E+03</pdfrwt>
<totfact> 0.26134531E+02</totfact>
</mgrwt>
</event>
<event>
 4    1  0.5455400E-005  0.5436551E+03  0.7818608E-02  0.1002973E+00
         -2   -1    0    0    0  501 -0.00000000000E+00  0.00000000000E+00  0.30455127853E+02  0.30455127959E+02  0.25500000000E-02 0. -1.
          2   -1    0    0  501    0  0.00000000000E+00 -0.00000000000E+00 -0.24261994522E+04  0.24261994522E+04  0.25500000000E-02 0.  1.
    5000001    1    1    2    0    0 -0.14377461892E+03  0.11045068720E+03 -0.90656997918E+03  0.94424764892E+03  0.19200000000E+03 0.  0.
   -5000001    1    1    2    0    0  0.14377461892E+03 -0.11045068720E+03 -0.14891743452E+04  0.15124069312E+04  0.19200000000E+03 0.  0.
<mgrwt>
<rscale>  0 0.54365509E+03</rscale>
<asrwt>0</asrwt>
<pdfrwt beam="1">  1        2 0.34659980E+00 0.54365509E+03</pdfrwt>
<pdfrwt beam="2">  1       -2 0.43507341E-02 0.54365509E+03</pdfrwt>
<totfact> 0.12892225E+03</totfact>
</mgrwt>
</event>
<event>
 4    1  0.5455400E-005  0.4515757E+03  0.7818608E-02  0.1027253E+00
         -2   -1    0    0    0  501 -0.00000000000E+00  0.00000000000E+00  0.14283203701E+02  0.14283203928E+02  0.25500000000E-02 0. -1.
          2   -1    0    0  501    0  0.00000000000E+00 -0.00000000000E+00 -0.35692381160E+04  0.35692381160E+04  0.25500000000E-02 0.  1.
    5000001    1    1    2    0    0 -0.67142076671E+02  0.97970296367E+02 -0.17524859469E+04  0.17669683731E+04  0.19200000000E+03 0.  0.
   -5000001    1    1    2    0    0  0.67142076671E+02 -0.97970296367E+02 -0.18024689654E+04  0.18165529468E+04  0.19200000000E+03 0.  0.
<mgrwt>
<rscale>  0 0.45157571E+03</rscale>
<asrwt>0</asrwt>
<pdfrwt beam="1">  1        2 0.50989059E+00 0.45157571E+03</pdfrwt>
<pdfrwt beam="2">  1       -2 0.20404600E-02 0.45157571E+03</pdfrwt>
<totfact> 0.97567567E+02</totfact>
</mgrwt>
</event>
<event>
 4    1  0.5455400E-005  0.6047486E+03  0.7818608E-02  0.9895603E-01
         -2   -1    0    0    0  501 -0.00000000000E+00  0.00000000000E+00  0.32157689561E+02  0.32157689662E+02  0.25500000000E-02 0. -1.
          2   -1    0    0  501    0  0.00000000000E+00 -0.00000000000E+00 -0.28431833438E+04  0.28431833438E+04  0.25500000000E-02 0.  1.
    5000001    1    1    2    0    0  0.14566810407E+03 -0.17618310201E+03 -0.11771667031E+04  0.12144320190E+04  0.19200000000E+03 0.  0.
   -5000001    1    1    2    0    0 -0.14566810407E+03  0.17618310201E+03 -0.16338589511E+04  0.16609090144E+04  0.19200000000E+03 0.  0.
<mgrwt>
<rscale>  0 0.60474857E+03</rscale>
<asrwt>0</asrwt>
<pdfrwt beam="1">  1        2 0.40616889E+00 0.60474857E+03</pdfrwt>
<pdfrwt beam="2">  1       -2 0.45939575E-02 0.60474857E+03</pdfrwt>
<totfact> 0.71647468E+02</totfact>
</mgrwt>
</event>
<event>
 4    1  0.5455400E-005  0.5152547E+03  0.7818608E-02  0.1009872E+00
          2   -1    0    0  501    0  0.00000000000E+00  0.00000000000E+00  0.75253447913E+02  0.75253447956E+02  0.25500000000E-02 0.  1.
         -2   -1    0    0    0  501 -0.00000000000E+00 -0.00000000000E+00 -0.88197760172E+03  0.88197760172E+03  0.25500000000E-02 0. -1.
    5000001    1    1    2    0    0 -0.14994586976E+03 -0.82568150700E+02 -0.37665958911E+03  0.45611150987E+03  0.19200000000E+03 0.  0.
   -5000001    1    1    2    0    0  0.14994586976E+03  0.82568150700E+02 -0.43006456469E+03  0.50111953981E+03  0.19200000000E+03 0.  0.
<mgrwt>
<rscale>  0 0.51525472E+03</rscale>
<asrwt>0</asrwt>
<pdfrwt beam="1">  1        2 0.10750493E-01 0.51525472E+03</pdfrwt>
<pdfrwt beam="2">  1       -2 0.12599679E+00 0.51525472E+03</pdfrwt>
<totfact> 0.28883875E+02</totfact>
</mgrwt>
</event>
<event>
 4    1  0.5455400E-005  0.4189783E+03  0.7818608E-02  0.1037399E+00
         -2   -1    0    0    0  501 -0.00000000000E+00  0.00000000000E+00  0.11694301674E+03  0.11694301677E+03  0.25500000000E-02 0. -1.
          2   -1    0    0  501    0  0.00000000000E+00 -0.00000000000E+00 -0.37527430435E+03  0.37527430436E+03  0.25500000000E-02 0.  1.
    5000001    1    1    2    0    0 -0.69728042600E+02 -0.24310530453E+02 -0.82635294222E+02  0.22168805486E+03  0.19200000000E+03 0.  0.
   -5000001    1    1    2    0    0  0.69728042600E+02  0.24310530453E+02 -0.17569599338E+03  0.27052926627E+03  0.19200000000E+03 0.  0.
<mgrwt>
<rscale>  0 0.41897833E+03</rscale>
<asrwt>0</asrwt>
<pdfrwt beam="1">  1        2 0.53610614E-01 0.41897833E+03</pdfrwt>
<pdfrwt beam="2">  1       -2 0.16706145E-01 0.41897833E+03</pdfrwt>
<totfact> 0.26737363E+03</totfact>
</mgrwt>
</event>
<event>
 4    1  0.5455400E-005  0.6587152E+03  0.7818608E-02  0.9790562E-01
          2   -1    0    0  501    0  0.00000000000E+00  0.00000000000E+00  0.12039499171E+03  0.12039499173E+03  0.25500000000E-02 0.  1.
         -2   -1    0    0    0  501 -0.00000000000E+00 -0.00000000000E+00 -0.90100457141E+03  0.90100457141E+03  0.25500000000E-02 0. -1.
    5000001    1    1    2    0    0 -0.25531874027E+03  0.78763236463E+02 -0.41336286963E+03  0.52832203110E+03  0.19200000000E+03 0.  0.
   -5000001    1    1    2    0    0  0.25531874027E+03 -0.78763236463E+02 -0.36724671007E+03  0.49307753205E+03  0.19200000000E+03 0.  0.
<mgrwt>
<rscale>  0 0.65871523E+03</rscale>
<asrwt>0</asrwt>
<pdfrwt beam="1">  1        2 0.17199285E-01 0.65871523E+03</pdfrwt>
<pdfrwt beam="2">  1       -2 0.12871494E+00 0.65871523E+03</pdfrwt>
<totfact> 0.15331064E+02</totfact>
</mgrwt>
</event>
<event>
 4    1  0.5455400E-005  0.5250052E+03  0.7818608E-02  0.1007451E+00
          2   -1    0    0  501    0  0.00000000000E+00  0.00000000000E+00  0.83925942054E+03  0.83925942054E+03  0.25500000000E-02 0.  1.
         -2   -1    0    0    0  501 -0.00000000000E+00 -0.00000000000E+00 -0.82105270235E+02  0.82105270274E+02  0.25500000000E-02 0. -1.
    5000001    1    1    2    0    0 -0.29610038802E+02  0.16827755010E+03  0.47225878436E+03  0.53766759961E+03  0.19200000000E+03 0.  0.
   -5000001    1    1    2    0    0  0.29610038802E+02 -0.16827755010E+03  0.28489536594E+03  0.38369709120E+03  0.19200000000E+03 0.  0.
<mgrwt>
<rscale>  0 0.52500522E+03</rscale>
<asrwt>0</asrwt>
<pdfrwt beam="1">  1        2 0.11989420E+00 0.52500522E+03</pdfrwt>
<pdfrwt beam="2">  1       -2 0.11729324E-01 0.52500522E+03</pdfrwt>
<totfact> 0.18877274E+03</totfact>
</mgrwt>
</event>
<event>
 4    1  0.5455400E-005  0.6166670E+03  0.7818608E-02  0.9871418E-01
         -2   -1    0    0    0  501 -0.00000000000E+00  0.00000000000E+00  0.30437915674E+03  0.30437915675E+03  0.25500000000E-02 0. -1.
          2   -1    0    0  501    0  0.00000000000E+00 -0.00000000000E+00 -0.31233923943E+03  0.31233923944E+03  0.25500000000E-02 0.  1.
    5000001    1    1    2    0    0 -0.21496276302E+03 -0.10113556965E+03 -0.46033055567E+02  0.30890198306E+03  0.19200000000E+03 0.  0.
   -5000001    1    1    2    0    0  0.21496276302E+03  0.10113556965E+03  0.38072972879E+02  0.30781641314E+03  0.19200000000E+03 0.  0.
<mgrwt>
<rscale>  0 0.61666702E+03</rscale>
<asrwt>0</asrwt>
<pdfrwt beam="1">  1        2 0.44619891E-01 0.61666702E+03</pdfrwt>
<pdfrwt beam="2">  1       -2 0.43482737E-01 0.61666702E+03</pdfrwt>
<totfact> 0.57576807E+02</totfact>
</mgrwt>
</event>
<event>
 4    1  0.5455400E-005  0.7041602E+03  0.7818608E-02  0.9710144E-01
          2   -1    0    0  501    0  0.00000000000E+00  0.00000000000E+00  0.10229769525E+04  0.10229769525E+04  0.25500000000E-02 0.  1.
         -2   -1    0    0    0  501 -0.00000000000E+00 -0.00000000000E+00 -0.12117614516E+03  0.12117614519E+03  0.25500000000E-02 0. -1.
    5000001    1    1    2    0    0  0.22320438491E+03 -0.19301392198E+03  0.45849249294E+03  0.57806049649E+03  0.19200000000E+03 0.  0.
   -5000001    1    1    2    0    0 -0.22320438491E+03  0.19301392198E+03  0.44330831444E+03  0.56609260124E+03  0.19200000000E+03 0.  0.
<mgrwt>
<rscale>  0 0.70416022E+03</rscale>
<asrwt>0</asrwt>
<pdfrwt beam="1">  1        2 0.14613956E+00 0.70416022E+03</pdfrwt>
<pdfrwt beam="2">  1       -2 0.17310879E-01 0.70416022E+03</pdfrwt>
<totfact> 0.74898351E+02</totfact>
</mgrwt>
</event>
<event>
 4    1  0.5455400E-005  0.9017484E+03  0.7818608E-02  0.9423398E-01
         -2   -1    0    0    0  501 -0.00000000000E+00  0.00000000000E+00  0.10853366080E+03  0.10853366083E+03  0.25500000000E-02 0. -1.
          2   -1    0    0  501    0  0.00000000000E+00 -0.00000000000E+00 -0.18730369939E+04  0.18730369939E+04  0.25500000000E-02 0.  1.
    5000001    1    1    2    0    0 -0.66970232861E+02  0.37455011431E+03 -0.12055926476E+04  0.12787065465E+04  0.19200000000E+03 0.  0.
   -5000001    1    1    2    0    0  0.66970232861E+02 -0.37455011431E+03 -0.55891068549E+03  0.70286410819E+03  0.19200000000E+03 0.  0.
<mgrwt>
<rscale>  0 0.90174844E+03</rscale>
<asrwt>0</asrwt>
<pdfrwt beam="1">  1        2 0.26757669E+00 0.90174844E+03</pdfrwt>
<pdfrwt beam="2">  1       -2 0.15504810E-01 0.90174844E+03</pdfrwt>
<totfact> 0.31120521E+02</totfact>
</mgrwt>
</event>
<event>
 4    1  0.5455400E-005  0.5486023E+03  0.7818608E-02  0.1001818E+00
          2   -1    0    0  501    0  0.00000000000E+00  0.00000000000E+00  0.21372824052E+04  0.21372824052E+04  0.25500000000E-02 0.  1.
         -2   -1    0    0    0  501 -0.00000000000E+00 -0.00000000000E+00 -0.35204101803E+02  0.35204101896E+02  0.25500000000E-02 0. -1.
    5000001    1    1    2    0    0  0.18673887318E+03 -0.10596696777E+02  0.12817232813E+04  0.13094511318E+04  0.19200000000E+03 0.  0.
   -5000001    1    1    2    0    0 -0.18673887318E+03  0.10596696777E+02  0.82035502209E+03  0.86303537529E+03  0.19200000000E+03 0.  0.
<mgrwt>
<rscale>  0 0.54860225E+03</rscale>
<asrwt>0</asrwt>
<pdfrwt beam="1">  1        2 0.30532617E+00 0.54860225E+03</pdfrwt>
<pdfrwt beam="2">  1       -2 0.50291556E-02 0.54860225E+03</pdfrwt>
<totfact> 0.14413099E+03</totfact>
</mgrwt>
</event>
<event>
 4    1  0.5455400E-005  0.1189766E+04  0.7818608E-02  0.9121862E-01
          2   -1    0    0  501    0  0.00000000000E+00  0.00000000000E+00  0.59630593207E+03  0.59630593207E+03  0.25500000000E-02 0. -1.
         -2   -1    0    0    0  501 -0.00000000000E+00 -0.00000000000E+00 -0.59346327518E+03  0.59346327518E+03  0.25500000000E-02 0.  1.
    5000001    1    1    2    0    0  0.17761734039E+03 -0.43101025555E+03 -0.31433883469E+03  0.59413017344E+03  0.19200000000E+03 0.  0.
   -5000001    1    1    2    0    0 -0.17761734039E+03  0.43101025555E+03  0.31718149159E+03  0.59563903381E+03  0.19200000000E+03 0.  0.
<mgrwt>
<rscale>  0 0.11897658E+04</rscale>
<asrwt>0</asrwt>
<pdfrwt beam="1">  1        2 0.85186561E-01 0.11897658E+04</pdfrwt>
<pdfrwt beam="2">  1       -2 0.84780468E-01 0.11897658E+04</pdfrwt>
<totfact> 0.65505012E+01</totfact>
</mgrwt>
</event>
<event>
 4    1  0.5455400E-005  0.1499831E+04  0.7818608E-02  0.8884565E-01
          2   -1    0    0  501    0  0.00000000000E+00  0.00000000000E+00  0.22661640448E+04  0.22661640448E+04  0.25500000000E-02 0.  1.
         -2   -1    0    0    0  501 -0.00000000000E+00 -0.00000000000E+00 -0.24816099811E+03  0.24816099812E+03  0.25500000000E-02 0. -1.
    5000001    1    1    2    0    0 -0.35157382673E+03  0.52823216707E+03  0.15966434756E+04  0.17288053002E+04  0.19200000000E+03 0.  0.
   -5000001    1    1    2    0    0  0.35157382673E+03 -0.52823216707E+03  0.42135957106E+03  0.78551974265E+03  0.19200000000E+03 0.  0.
<mgrwt>
<rscale>  0 0.14998314E+04</rscale>
<asrwt>0</asrwt>
<pdfrwt beam="1">  1        2 0.32373774E+00 0.14998314E+04</pdfrwt>
<pdfrwt beam="2">  1       -2 0.35451569E-01 0.14998314E+04</pdfrwt>
<totfact> 0.42291238E+01</totfact>
</mgrwt>
</event>
<event>
 4    1  0.5455400E-005  0.4596319E+03  0.7818608E-02  0.1024888E+00
         -2   -1    0    0    0  501 -0.00000000000E+00  0.00000000000E+00  0.98397159295E+02  0.98397159328E+02  0.25500000000E-02 0. -1.
          2   -1    0    0  501    0  0.00000000000E+00 -0.00000000000E+00 -0.53675717026E+03  0.53675717026E+03  0.25500000000E-02 0.  1.
    5000001    1    1    2    0    0 -0.11090740118E+03 -0.56549439845E+02 -0.18976551673E+03  0.29727637330E+03  0.19200000000E+03 0.  0.
   -5000001    1    1    2    0    0  0.11090740118E+03  0.56549439845E+02 -0.24859449424E+03  0.33787795629E+03  0.19200000000E+03 0.  0.
<mgrwt>
<rscale>  0 0.45963194E+03</rscale>
<asrwt>0</asrwt>
<pdfrwt beam="1">  1        2 0.76679594E-01 0.45963194E+03</pdfrwt>
<pdfrwt beam="2">  1       -2 0.14056737E-01 0.45963194E+03</pdfrwt>
<totfact> 0.23999227E+03</totfact>
</mgrwt>
</event>
<event>
 4    1  0.5455400E-005  0.5442700E+03  0.7818608E-02  0.1002829E+00
         -2   -1    0    0    0  501 -0.00000000000E+00  0.00000000000E+00  0.62188099966E+02  0.62188100018E+02  0.25500000000E-02 0. -1.
          2   -1    0    0  501    0  0.00000000000E+00 -0.00000000000E+00 -0.11908623986E+04  0.11908623986E+04  0.25500000000E-02 0.  1.
    5000001    1    1    2    0    0 -0.38993245876E+02  0.18361814798E+03 -0.46248015037E+03  0.53477844663E+03  0.19200000000E+03 0.  0.
   -5000001    1    1    2    0    0  0.38993245876E+02 -0.18361814798E+03 -0.66619414826E+03  0.71827205199E+03  0.19200000000E+03 0.  0.
<mgrwt>
<rscale>  0 0.54427004E+03</rscale>
<asrwt>0</asrwt>
<pdfrwt beam="1">  1        2 0.17012319E+00 0.54427004E+03</pdfrwt>
<pdfrwt beam="2">  1       -2 0.88840150E-02 0.54427004E+03</pdfrwt>
<totfact> 0.18116699E+03</totfact>
</mgrwt>
</event>
<event>
 4    1  0.5455400E-005  0.1110682E+04  0.7818608E-02  0.9194843E-01
          2   -1    0    0  501    0  0.00000000000E+00  0.00000000000E+00  0.23167766373E+04  0.23167766373E+04  0.25500000000E-02 0.  1.
         -2   -1    0    0    0  501 -0.00000000000E+00 -0.00000000000E+00 -0.13311747916E+03  0.13311747918E+03  0.25500000000E-02 0. -1.
    5000001    1    1    2    0    0 -0.16920167091E+03  0.43160124779E+03  0.16167377880E+04  0.16928124284E+04  0.19200000000E+03 0.  0.
   -5000001    1    1    2    0    0  0.16920167091E+03 -0.43160124779E+03  0.56692137011E+03  0.75708168808E+03  0.19200000000E+03 0.  0.
<mgrwt>
<rscale>  0 0.11106817E+04</rscale>
<asrwt>0</asrwt>
<pdfrwt beam="1">  1        2 0.33096809E+00 0.11106817E+04</pdfrwt>
<pdfrwt beam="2">  1       -2 0.19016783E-01 0.11106817E+04</pdfrwt>
<totfact> 0.12793002E+02</totfact>
</mgrwt>
</event>
<event>
 4    1  0.5455400E-005  0.5277120E+03  0.7818608E-02  0.1006789E+00
          2   -1    0    0  501    0  0.00000000000E+00  0.00000000000E+00  0.28785886046E+03  0.28785886047E+03  0.25500000000E-02 0.  1.
         -2   -1    0    0    0  501 -0.00000000000E+00 -0.00000000000E+00 -0.24185460336E+03  0.24185460337E+03  0.25500000000E-02 0. -1.
    5000001    1    1    2    0    0 -0.17145619787E+03 -0.57908679467E+02  0.25323382750E+02  0.26505832690E+03  0.19200000000E+03 0.  0.
   -5000001    1    1    2    0    0  0.17145619787E+03  0.57908679467E+02  0.20680874350E+02  0.26465513694E+03  0.19200000000E+03 0.  0.
<mgrwt>
<rscale>  0 0.52771201E+03</rscale>
<asrwt>0</asrwt>
<pdfrwt beam="1">  1        2 0.41122694E-01 0.52771201E+03</pdfrwt>
<pdfrwt beam="2">  1       -2 0.34550658E-01 0.52771201E+03</pdfrwt>
<totfact> 0.98238063E+02</totfact>
</mgrwt>
</event>
<event>
 4    1  0.5455400E-005  0.5282029E+03  0.7818608E-02  0.1006669E+00
          2   -1    0    0  501    0  0.00000000000E+00  0.00000000000E+00  0.20959218076E+04  0.20959218076E+04  0.25500000000E-02 0.  1.
         -2   -1    0    0    0  501 -0.00000000000E+00 -0.00000000000E+00 -0.33278705038E+02  0.33278705135E+02  0.25500000000E-02 0. -1.
    5000001    1    1    2    0    0 -0.46806241514E+01  0.76425175746E+02  0.36867586090E+03  0.42266843523E+03  0.19200000000E+03 0.  0.
   -5000001    1    1    2    0    0  0.46806241514E+01 -0.76425175746E+02  0.16939672416E+04  0.17065320775E+04  0.19200000000E+03 0.  0.
<mgrwt>
<rscale>  0 0.52820285E+03</rscale>
<asrwt>0</asrwt>
<pdfrwt beam="1">  1        2 0.29941747E+00 0.52820285E+03</pdfrwt>
<pdfrwt beam="2">  1       -2 0.47540996E-02 0.52820285E+03</pdfrwt>
<totfact> 0.16508072E+03</totfact>
</mgrwt>
</event>
<event>
 4    1  0.5455400E-005  0.5650226E+03  0.7818608E-02  0.9980754E-01
          2   -1    0    0  501    0  0.00000000000E+00  0.00000000000E+00  0.12509058106E+04  0.12509058106E+04  0.25500000000E-02 0.  1.
         -2   -1    0    0    0  501 -0.00000000000E+00 -0.00000000000E+00 -0.63803875717E+02  0.63803875768E+02  0.25500000000E-02 0. -1.
    5000001    1    1    2    0    0  0.14398857742E+03 -0.45201792168E+02  0.26307009258E+03  0.35895095215E+03  0.19200000000E+03 0.  0.
   -5000001    1    1    2    0    0 -0.14398857742E+03  0.45201792168E+02  0.92403184228E+03  0.95575873419E+03  0.19200000000E+03 0.  0.
<mgrwt>
<rscale>  0 0.56502262E+03</rscale>
<asrwt>0</asrwt>
<pdfrwt beam="1">  1        2 0.17870083E+00 0.56502262E+03</pdfrwt>
<pdfrwt beam="2">  1       -2 0.91148394E-02 0.56502262E+03</pdfrwt>
<totfact> 0.16095056E+03</totfact>
</mgrwt>
</event>
<event>
 4    1  0.5455400E-005  0.4633600E+03  0.7818608E-02  0.1023811E+00
          2   -1    0    0  501    0  0.00000000000E+00  0.00000000000E+00  0.45113062381E+02  0.45113062453E+02  0.25500000000E-02 0.  1.
         -2   -1    0    0    0  501 -0.00000000000E+00 -0.00000000000E+00 -0.11898020858E+04  0.11898020858E+04  0.25500000000E-02 0. -1.
    5000001    1    1    2    0    0 -0.89416942083E+02  0.23028521048E+02 -0.81494339703E+03  0.84233155152E+03  0.19200000000E+03 0.  0.
   -5000001    1    1    2    0    0  0.89416942083E+02 -0.23028521048E+02 -0.32974562643E+03  0.39258359678E+03  0.19200000000E+03 0.  0.
<mgrwt>
<rscale>  0 0.46335997E+03</rscale>
<asrwt>0</asrwt>
<pdfrwt beam="1">  1        2 0.64447239E-02 0.46335997E+03</pdfrwt>
<pdfrwt beam="2">  1       -2 0.16997171E+00 0.46335997E+03</pdfrwt>
<totfact> 0.25614484E+02</totfact>
</mgrwt>
</event>
<event>
 4    1  0.5455400E-005  0.1032333E+04  0.7818608E-02  0.9273776E-01
         -2   -1    0    0    0  501 -0.00000000000E+00  0.00000000000E+00  0.17313882080E+04  0.17313882080E+04  0.25500000000E-02 0. -1.
          2   -1    0    0  501    0  0.00000000000E+00 -0.00000000000E+00 -0.15388116408E+03  0.15388116410E+03  0.25500000000E-02 0.  1.
    5000001    1    1    2    0    0  0.46223066564E+03  0.54129162504E+02  0.58071748321E+03  0.76855965923E+03  0.19200000000E+03 0.  0.
   -5000001    1    1    2    0    0 -0.46223066564E+03 -0.54129162504E+02  0.99678956067E+03  0.11167097128E+04  0.19200000000E+03 0.  0.
<mgrwt>
<rscale>  0 0.10323333E+04</rscale>
<asrwt>0</asrwt>
<pdfrwt beam="1">  1        2 0.21983023E-01 0.10323333E+04</pdfrwt>
<pdfrwt beam="2">  1       -2 0.24734117E+00 0.10323333E+04</pdfrwt>
<totfact> 0.17050351E+01</totfact>
</mgrwt>
</event>
<event>
 4    1  0.5455400E-005  0.7860215E+03  0.7818608E-02  0.9580474E-01
          2   -1    0    0  501    0  0.00000000000E+00  0.00000000000E+00  0.57220748924E+03  0.57220748925E+03  0.25500000000E-02 0.  1.
         -2   -1    0    0    0  501 -0.00000000000E+00 -0.00000000000E+00 -0.26993261869E+03  0.26993261870E+03  0.25500000000E-02 0. -1.
    5000001    1    1    2    0    0  0.30779257992E+03 -0.15072799327E+03  0.16373560022E+03  0.42559199592E+03  0.19200000000E+03 0.  0.
   -5000001    1    1    2    0    0 -0.30779257992E+03  0.15072799327E+03  0.13853927033E+03  0.41654811203E+03  0.19200000000E+03 0.  0.
<mgrwt>
<rscale>  0 0.78602154E+03</rscale>
<asrwt>0</asrwt>
<pdfrwt beam="1">  1        2 0.81743928E-01 0.78602154E+03</pdfrwt>
<pdfrwt beam="2">  1       -2 0.38561802E-01 0.78602154E+03</pdfrwt>
<totfact> 0.36639396E+02</totfact>
</mgrwt>
</event>
<event>
 4    1  0.5455400E-005  0.9304709E+03  0.7818608E-02  0.9388273E-01
          2   -1    0    0  501    0  0.00000000000E+00  0.00000000000E+00  0.43366864713E+03  0.43366864714E+03  0.25500000000E-02 0.  1.
         -2   -1    0    0    0  501 -0.00000000000E+00 -0.00000000000E+00 -0.49910001201E+03  0.49910001202E+03  0.25500000000E-02 0. -1.
    5000001    1    1    2    0    0 -0.11598759319E+03 -0.36847654803E+03  0.14193261883E+03  0.45413319248E+03  0.19200000000E+03 0.  0.
   -5000001    1    1    2    0    0  0.11598759319E+03  0.36847654803E+03 -0.20736398371E+03  0.47863546668E+03  0.19200000000E+03 0.  0.
<mgrwt>
<rscale>  0 0.93047091E+03</rscale>
<asrwt>0</asrwt>
<pdfrwt beam="1">  1        2 0.61952664E-01 0.93047091E+03</pdfrwt>
<pdfrwt beam="2">  1       -2 0.71300002E-01 0.93047091E+03</pdfrwt>
<totfact> 0.14134565E+02</totfact>
</mgrwt>
</event>
<event>
 4    1  0.5455400E-005  0.6562523E+03  0.7818608E-02  0.9795117E-01
         -2   -1    0    0    0  501 -0.00000000000E+00  0.00000000000E+00  0.92256754740E+02  0.92256754775E+02  0.25500000000E-02 0. -1.
          2   -1    0    0  501    0  0.00000000000E+00 -0.00000000000E+00 -0.11670339987E+04  0.11670339987E+04  0.25500000000E-02 0.  1.
    5000001    1    1    2    0    0 -0.18388892468E+03 -0.19209658691E+03 -0.51953818706E+03  0.61441041913E+03  0.19200000000E+03 0.  0.
   -5000001    1    1    2    0    0  0.18388892468E+03  0.19209658691E+03 -0.55523905692E+03  0.64488033436E+03  0.19200000000E+03 0.  0.
<mgrwt>
<rscale>  0 0.65625230E+03</rscale>
<asrwt>0</asrwt>
<pdfrwt beam="1">  1        2 0.16671913E+00 0.65625230E+03</pdfrwt>
<pdfrwt beam="2">  1       -2 0.13179537E-01 0.65625230E+03</pdfrwt>
<totfact> 0.97893789E+02</totfact>
</mgrwt>
</event>
<event>
 4    1  0.5455400E-005  0.7477886E+03  0.7818608E-02  0.9638826E-01
         -2   -1    0    0    0  501 -0.00000000000E+00  0.00000000000E+00  0.28095642990E+03  0.28095642992E+03  0.25500000000E-02 0. -1.
          2   -1    0    0  501    0  0.00000000000E+00 -0.00000000000E+00 -0.49757516923E+03  0.49757516924E+03  0.25500000000E-02 0.  1.
    5000001    1    1    2    0    0  0.19760901327E+02  0.20339642734E+03 -0.36580802754E+03  0.46091226159E+03  0.19200000000E+03 0.  0.
   -5000001    1    1    2    0    0 -0.19760901327E+02 -0.20339642734E+03  0.14918928821E+03  0.31761933756E+03  0.19200000000E+03 0.  0.
<mgrwt>
<rscale>  0 0.74778859E+03</rscale>
<asrwt>0</asrwt>
<pdfrwt beam="1">  1        2 0.71082167E-01 0.74778859E+03</pdfrwt>
<pdfrwt beam="2">  1       -2 0.40136633E-01 0.74778859E+03</pdfrwt>
<totfact> 0.39904414E+02</totfact>
</mgrwt>
</event>
<event>
 4    1  0.5455400E-005  0.7641621E+03  0.7818608E-02  0.9613391E-01
         -2   -1    0    0    0  501 -0.00000000000E+00  0.00000000000E+00  0.75695964655E+02  0.75695964698E+02  0.25500000000E-02 0. -1.
          2   -1    0    0  501    0  0.00000000000E+00 -0.00000000000E+00 -0.19285827321E+04  0.19285827321E+04  0.25500000000E-02 0.  1.
    5000001    1    1    2    0    0 -0.22161195996E+03  0.40522418301E+02 -0.15601088389E+04  0.15879412824E+04  0.19200000000E+03 0.  0.
   -5000001    1    1    2    0    0  0.22161195996E+03 -0.40522418301E+02 -0.29277792858E+03  0.41633741442E+03  0.19200000000E+03 0.  0.
<mgrwt>
<rscale>  0 0.76416210E+03</rscale>
<asrwt>0</asrwt>
<pdfrwt beam="1">  1        2 0.27551179E+00 0.76416210E+03</pdfrwt>
<pdfrwt beam="2">  1       -2 0.10813710E-01 0.76416210E+03</pdfrwt>
<totfact> 0.53669398E+02</totfact>
</mgrwt>
</event>
<event>
 4    1  0.5455400E-005  0.7480320E+03  0.7818608E-02  0.9638443E-01
          2   -1    0    0  501    0  0.00000000000E+00  0.00000000000E+00  0.75513683404E+03  0.75513683405E+03  0.25500000000E-02 0.  1.
         -2   -1    0    0    0  501 -0.00000000000E+00 -0.00000000000E+00 -0.18524849918E+03  0.18524849919E+03  0.25500000000E-02 0. -1.
    5000001    1    1    2    0    0  0.25180240800E+03 -0.18850163129E+03  0.36530959598E+03  0.51889538308E+03  0.19200000000E+03 0.  0.
   -5000001    1    1    2    0    0 -0.25180240800E+03  0.18850163129E+03  0.20457873889E+03  0.42148995015E+03  0.19200000000E+03 0.  0.
<mgrwt>
<rscale>  0 0.74803199E+03</rscale>
<asrwt>0</asrwt>
<pdfrwt beam="1">  1        2 0.10787669E+00 0.74803199E+03</pdfrwt>
<pdfrwt beam="2">  1       -2 0.26464072E-01 0.74803199E+03</pdfrwt>
<totfact> 0.53069308E+02</totfact>
</mgrwt>
</event>
